
    -----------------------------------------------------------------------
          Psi4: An Open-Source Ab Initio Electronic Structure Package
                               Psi4 1.2.1 release

                         Git: Rev {HEAD} 406f4de 


    R. M. Parrish, L. A. Burns, D. G. A. Smith, A. C. Simmonett,
    A. E. DePrince III, E. G. Hohenstein, U. Bozkaya, A. Yu. Sokolov,
    R. Di Remigio, R. M. Richard, J. F. Gonthier, A. M. James,
    H. R. McAlexander, A. Kumar, M. Saitow, X. Wang, B. P. Pritchard,
    P. Verma, H. F. Schaefer III, K. Patkowski, R. A. King, E. F. Valeev,
    F. A. Evangelista, J. M. Turney, T. D. Crawford, and C. D. Sherrill,
    J. Chem. Theory Comput. 13(7) pp 3185--3197 (2017).
    (doi: 10.1021/acs.jctc.7b00174)


                         Additional Contributions by
    P. Kraus, H. Kruse, M. H. Lechner, M. C. Schieber, and R. A. Shaw

    -----------------------------------------------------------------------


    Psi4 started on: Saturday, 29 September 2018 08:28PM

    Process ID: 16126
    Host:       green.prib.upf.edu
    PSIDATADIR: /shared/joao/test_parameterize/miniconda3/share/psi4
    Memory:     500.0 MiB
    Threads:    1
    
  ==> Input File <==

--------------------------------------------------------------------------
set_num_threads(4)
set_memory('3000 MB')

set { scf_mem_safety_factor 0.7 }

set { reference rks }
set { basis 6-31G* }

molecule MOL {
    1 1
    noreorient
    nocom
    symmetry c1
    C   -0.000000  -0.000000  -0.177864
    C    0.036678   1.219374   0.524165
    C    0.031765   1.213120   1.915444
    C    0.000000   0.000000   2.610107
    C   -0.031765  -1.213120   1.915444
    C   -0.036678  -1.219375   0.524165
    C   -0.000000   0.000000  -1.644734
    H    0.018170   2.164705  -0.010854
    H    0.042402   2.152895   2.457886
    H    0.000000   0.000000   3.695756
    H   -0.042402  -2.152895   2.457886
    H   -0.018170  -2.164705  -0.010853
    N   -0.712590  -0.905950  -2.308461
    N    0.712590   0.905950  -2.308460
    H    0.673432   1.006470  -3.315997
    H    1.377190   1.485970  -1.813316
    H   -1.001126  -1.757983  -1.845783
    H   -1.045781  -0.758973  -3.254055
}

set optking { frozen_dihedral = (" 1 7 13 17 ") }

set optking { dynamic_level = 1 
 geom_maxiter = 250
 print_trajectory_xyz_file = True }

energy, wfn = optimize('B3LYP-D3', return_wfn=True)

import os
os.chdir(os.environ['HTMD_PSI4_WORKDIR'])

oeprop(wfn, 'DIPOLE', 'QUADRUPOLE', 'MULLIKEN_CHARGES')

with open('psi4out.xyz', 'w') as f:
    f.write('18 ' )
    f.write('%.12f\n' % energy)
    f.write(MOL.save_string_xyz())
--------------------------------------------------------------------------
  Threads set to 4 by Python driver.

  Memory set to   2.794 GiB by Python driver.
gradient() will perform analytic gradient computation.

*** tstart() called on green.prib.upf.edu
*** at Sat Sep 29 20:28:00 2018

   => Loading Basis Set <=

    Name: 6-31G*
    Role: ORBITAL
    Keyword: BASIS
    atoms 1-7         entry C          line   111 file /shared/joao/test_parameterize/miniconda3/share/psi4/basis/6-31gs.gbs 
    atoms 8-12, 15-18 entry H          line    44 file /shared/joao/test_parameterize/miniconda3/share/psi4/basis/6-31gs.gbs 
    atoms 13-14       entry N          line   128 file /shared/joao/test_parameterize/miniconda3/share/psi4/basis/6-31gs.gbs 


         ---------------------------------------------------------
                                   SCF
            by Justin Turney, Rob Parrish, Andy Simmonett
                             and Daniel Smith
                              RKS Reference
                        4 Threads,   2861 MiB Core
         ---------------------------------------------------------

  ==> Geometry <==

    Molecular point group: c1
    Full point group: C1

    Geometry (in Angstrom), charge = 1, multiplicity = 1:

       Center              X                  Y                   Z               Mass       
    ------------   -----------------  -----------------  -----------------  -----------------
         C            0.000000000000     0.000000000000    -0.177864000000    12.000000000000
         C            0.036678000000     1.219374000000     0.524165000000    12.000000000000
         C            0.031765000000     1.213120000000     1.915444000000    12.000000000000
         C            0.000000000000     0.000000000000     2.610107000000    12.000000000000
         C           -0.031765000000    -1.213120000000     1.915444000000    12.000000000000
         C           -0.036678000000    -1.219375000000     0.524165000000    12.000000000000
         C            0.000000000000     0.000000000000    -1.644734000000    12.000000000000
         H            0.018170000000     2.164705000000    -0.010854000000     1.007825032070
         H            0.042402000000     2.152895000000     2.457886000000     1.007825032070
         H            0.000000000000     0.000000000000     3.695756000000     1.007825032070
         H           -0.042402000000    -2.152895000000     2.457886000000     1.007825032070
         H           -0.018170000000    -2.164705000000    -0.010853000000     1.007825032070
         N           -0.712590000000    -0.905950000000    -2.308461000000    14.003074004780
         N            0.712590000000     0.905950000000    -2.308460000000    14.003074004780
         H            0.673432000000     1.006470000000    -3.315997000000     1.007825032070
         H            1.377190000000     1.485970000000    -1.813316000000     1.007825032070
         H           -1.001126000000    -1.757983000000    -1.845783000000     1.007825032070
         H           -1.045781000000    -0.758973000000    -3.254055000000     1.007825032070

  Running in c1 symmetry.

  Rotational constants: A =      0.12173  B =      0.03961  C =      0.03129 [cm^-1]
  Rotational constants: A =   3649.42759  B =   1187.60502  C =    937.97419 [MHz]
  Nuclear repulsion =  416.955793595038472

  Charge       = 1
  Multiplicity = 1
  Electrons    = 64
  Nalpha       = 32
  Nbeta        = 32

  ==> Algorithm <==

  SCF Algorithm Type is DF.
  DIIS enabled.
  MOM disabled.
  Fractional occupation disabled.
  Guess Type is SAD.
  Energy threshold   = 1.00e-08
  Density threshold  = 1.00e-08
  Integral threshold = 0.00e+00

  ==> Primary Basis <==

  Basis Set: 6-31G*
    Blend: 6-31G*
    Number of shells: 72
    Number of basis function: 153
    Number of Cartesian functions: 153
    Spherical Harmonics?: false
    Max angular momentum: 2

  ==> DFT Potential <==

   => Composite Functional: B3LYP-D3ZERO <= 

    B3LYP-d3zero Hyb-GGA Exchange-Correlation Functional

    P. J. Stephens, F. J. Devlin, C. F. Chabalowski, and M. J. Frisch, J. Phys. Chem. 98, 11623 (1994)

    Deriv               =              1
    GGA                 =           TRUE
    Meta                =          FALSE

    Exchange Hybrid     =           TRUE
    MP2 Hybrid          =          FALSE

   => Exchange Functionals <=

    0.0800   Slater exchange
    0.7200         Becke 88

   => Exact (HF) Exchange <=

    0.2000               HF 

   => Correlation Functionals <=

    0.1900   Vosko, Wilk & Nusair (VWN5_RPA)
    0.8100   Lee, Yang & Parr

   => Molecular Quadrature <=

    Radial Scheme       =       TREUTLER
    Pruning Scheme      =           FLAT
    Nuclear Scheme      =       TREUTLER

    BS radius alpha     =              1
    Pruning alpha       =              1
    Radial Points       =             75
    Spherical Points    =            302
    Total Points        =         396897
    Total Blocks        =           3011
    Max Points          =            256
    Max Functions       =            149

   => -D3ZERO: Empirical Dispersion <=

    Grimme's -D3 (zero-damping) Dispersion Correction
    Grimme S.; Antony J.; Ehrlich S.; Krieg H. (2010), J. Chem. Phys., 132: 154104

        S6 =   1.000000E+00
        S8 =   1.703000E+00
       SR6 =   1.261000E+00
       SR8 =   1.000000E+00
    ALPHA6 =   1.400000E+01

   => Loading Basis Set <=

    Name: (6-31G* AUX)
    Role: JKFIT
    Keyword: DF_BASIS_SCF
    atoms 1-7         entry C          line   121 file /shared/joao/test_parameterize/miniconda3/share/psi4/basis/cc-pvdz-jkfit.gbs 
    atoms 8-12, 15-18 entry H          line    51 file /shared/joao/test_parameterize/miniconda3/share/psi4/basis/cc-pvdz-jkfit.gbs 
    atoms 13-14       entry N          line   171 file /shared/joao/test_parameterize/miniconda3/share/psi4/basis/cc-pvdz-jkfit.gbs 

  ==> Pre-Iterations <==

   -------------------------------------------------------
    Irrep   Nso     Nmo     Nalpha   Nbeta   Ndocc  Nsocc
   -------------------------------------------------------
     A        153     153       0       0       0       0
   -------------------------------------------------------
    Total     153     153      32      32      32       0
   -------------------------------------------------------

  ==> Integral Setup <==

  ==> DiskDFJK: Density-Fitted J/K Matrices <==

    J tasked:                  Yes
    K tasked:                  Yes
    wK tasked:                  No
    OpenMP threads:              4
    Integrals threads:           4
    Memory (MB):              2002
    Algorithm:                Core
    Integral Cache:           NONE
    Schwarz Cutoff:          1E-12
    Fitting Condition:       1E-12

   => Auxiliary Basis Set <=

  Basis Set: (6-31G* AUX)
    Blend: CC-PVDZ-JKFIT
    Number of shells: 297
    Number of basis function: 954
    Number of Cartesian functions: 954
    Spherical Harmonics?: false
    Max angular momentum: 3

  Minimum eigenvalue in the overlap matrix is 4.8661358303E-04.
  Using Symmetric Orthogonalization.

  SCF Guess: Superposition of Atomic Densities via on-the-fly atomic UHF.

  ==> Iterations <==

                           Total Energy        Delta E     RMS |[F,P]|

   @DF-RKS iter   0:  -379.62379747292238   -3.79624e+02   6.73443e-02 
   @DF-RKS iter   1:  -381.03349288827496   -1.40970e+00   1.18062e-02 
   @DF-RKS iter   2:  -380.94910956850845    8.43833e-02   1.29762e-02 DIIS
   @DF-RKS iter   3:  -381.45374134426896   -5.04632e-01   1.66530e-03 DIIS
   @DF-RKS iter   4:  -381.45955323685064   -5.81189e-03   7.88099e-04 DIIS
   @DF-RKS iter   5:  -381.46111461160660   -1.56137e-03   2.38688e-04 DIIS
   @DF-RKS iter   6:  -381.46125484161360   -1.40230e-04   7.95700e-05 DIIS
   @DF-RKS iter   7:  -381.46127196918405   -1.71276e-05   1.38038e-05 DIIS
   @DF-RKS iter   8:  -381.46127242347012   -4.54286e-07   6.60686e-06 DIIS
   @DF-RKS iter   9:  -381.46127255511044   -1.31640e-07   2.01447e-06 DIIS
   @DF-RKS iter  10:  -381.46127256780346   -1.26930e-08   6.51079e-07 DIIS
   @DF-RKS iter  11:  -381.46127256904282   -1.23936e-09   8.57278e-08 DIIS
   @DF-RKS iter  12:  -381.46127256905260   -9.77707e-12   6.64802e-08 DIIS
   @DF-RKS iter  13:  -381.46127256906561   -1.30171e-11   1.89854e-08 DIIS
   @DF-RKS iter  14:  -381.46127256906692   -1.30740e-12   5.42710e-09 DIIS

  ==> Post-Iterations <==

    Orbital Energies [Eh]
    ---------------------

    Doubly Occupied:                                                      

       1A    -14.570145     2A    -14.563280     3A    -10.499235  
       4A    -10.374353     5A    -10.357616     6A    -10.356703  
       7A    -10.342473     8A    -10.341110     9A    -10.340547  
      10A     -1.183944    11A     -1.092018    12A     -1.014719  
      13A     -0.926855    14A     -0.902974    15A     -0.845840  
      16A     -0.785497    17A     -0.774854    18A     -0.740924  
      19A     -0.734016    20A     -0.688844    21A     -0.671430  
      22A     -0.630369    23A     -0.613437    24A     -0.590746  
      25A     -0.577759    26A     -0.573651    27A     -0.516985  
      28A     -0.507067    29A     -0.498908    30A     -0.469060  
      31A     -0.409754    32A     -0.405953  

    Virtual:                                                              

      33A     -0.220756    34A     -0.157228    35A     -0.137514  
      36A     -0.109528    37A     -0.072352    38A     -0.056365  
      39A     -0.040347    40A     -0.032899    41A      0.006807  
      42A      0.019565    43A      0.027395    44A      0.060121  
      45A      0.067397    46A      0.084243    47A      0.123727  
      48A      0.147808    49A      0.156634    50A      0.164949  
      51A      0.206329    52A      0.240674    53A      0.299651  
      54A      0.348750    55A      0.354602    56A      0.379714  
      57A      0.388726    58A      0.397329    59A      0.420634  
      60A      0.422298    61A      0.440907    62A      0.450959  
      63A      0.453407    64A      0.470305    65A      0.471129  
      66A      0.474649    67A      0.486221    68A      0.504476  
      69A      0.514906    70A      0.537866    71A      0.545121  
      72A      0.589176    73A      0.609890    74A      0.652479  
      75A      0.660605    76A      0.679366    77A      0.689304  
      78A      0.705068    79A      0.716731    80A      0.722476  
      81A      0.761246    82A      0.771651    83A      0.776321  
      84A      0.806847    85A      0.814815    86A      0.840560  
      87A      0.851882    88A      0.926984    89A      0.959264  
      90A      0.982319    91A      0.996374    92A      1.020856  
      93A      1.024728    94A      1.071406    95A      1.141533  
      96A      1.167182    97A      1.259373    98A      1.273461  
      99A      1.279414   100A      1.308262   101A      1.317084  
     102A      1.342803   103A      1.356350   104A      1.361459  
     105A      1.407835   106A      1.452524   107A      1.533250  
     108A      1.602583   109A      1.620062   110A      1.649652  
     111A      1.679820   112A      1.736053   113A      1.753887  
     114A      1.796097   115A      1.826079   116A      1.838788  
     117A      1.894190   118A      1.922719   119A      1.952754  
     120A      1.980414   121A      1.995670   122A      2.018809  
     123A      2.021903   124A      2.080268   125A      2.113312  
     126A      2.128831   127A      2.150992   128A      2.190700  
     129A      2.216093   130A      2.290810   131A      2.341605  
     132A      2.379067   133A      2.447004   134A      2.452232  
     135A      2.488841   136A      2.518289   137A      2.544574  
     138A      2.588921   139A      2.602935   140A      2.628388  
     141A      2.735498   142A      2.877523   143A      2.984690  
     144A      3.258227   145A      3.631857   146A      3.664229  
     147A      3.914229   148A      3.947976   149A      3.963137  
     150A      4.051251   151A      4.172935   152A      4.255590  
     153A      4.545676  

    Final Occupation by Irrep:
              A 
    DOCC [    32 ]

  Energy converged.

  @DF-RKS Final Energy:  -381.46127256906692

   => Energetics <=

    Nuclear Repulsion Energy =            416.9557935950384717
    One-Electron Energy =               -1329.0836010340892699
    Two-Electron Energy =                 575.0852669977049345
    DFT Exchange-Correlation Energy =     -44.4068772477211127
    Empirical Dispersion Energy =          -0.0118548800000000
    VV10 Nonlocal Energy =                  0.0000000000000000
    Total Energy =                       -381.4612725690669777



Properties will be evaluated at   0.000000,   0.000000,   0.000000 [a0]

Properties computed using the SCF density matrix

  Nuclear Dipole Moment: [e a0]
     X:     0.0070      Y:    -0.0463      Z:     0.0805

  Electronic Dipole Moment: [e a0]
     X:     0.0047      Y:     0.0843      Z:    -2.3301

  Dipole Moment: [e a0]
     X:     0.0117      Y:     0.0380      Z:    -2.2496     Total:     2.2500

  Dipole Moment: [D]
     X:     0.0297      Y:     0.0965      Z:    -5.7180     Total:     5.7189


*** tstop() called on green.prib.upf.edu at Sat Sep 29 20:28:28 2018
Module time:
	user time   =     100.35 seconds =       1.67 minutes
	system time =       0.54 seconds =       0.01 minutes
	total time  =         28 seconds =       0.47 minutes
Total time:
	user time   =     100.35 seconds =       1.67 minutes
	system time =       0.54 seconds =       0.01 minutes
	total time  =         28 seconds =       0.47 minutes

*** tstart() called on green.prib.upf.edu
*** at Sat Sep 29 20:28:28 2018


         ------------------------------------------------------------
                                   SCF GRAD                          
                          Rob Parrish, Justin Turney,                
                       Andy Simmonett, and Alex Sokolov              
         ------------------------------------------------------------

  ==> Geometry <==

    Molecular point group: c1
    Full point group: C1

    Geometry (in Angstrom), charge = 1, multiplicity = 1:

       Center              X                  Y                   Z               Mass       
    ------------   -----------------  -----------------  -----------------  -----------------
         C            0.000000000000     0.000000000000    -0.177864000000    12.000000000000
         C            0.036678000000     1.219374000000     0.524165000000    12.000000000000
         C            0.031765000000     1.213120000000     1.915444000000    12.000000000000
         C            0.000000000000     0.000000000000     2.610107000000    12.000000000000
         C           -0.031765000000    -1.213120000000     1.915444000000    12.000000000000
         C           -0.036678000000    -1.219375000000     0.524165000000    12.000000000000
         C            0.000000000000     0.000000000000    -1.644734000000    12.000000000000
         H            0.018170000000     2.164705000000    -0.010854000000     1.007825032070
         H            0.042402000000     2.152895000000     2.457886000000     1.007825032070
         H            0.000000000000     0.000000000000     3.695756000000     1.007825032070
         H           -0.042402000000    -2.152895000000     2.457886000000     1.007825032070
         H           -0.018170000000    -2.164705000000    -0.010853000000     1.007825032070
         N           -0.712590000000    -0.905950000000    -2.308461000000    14.003074004780
         N            0.712590000000     0.905950000000    -2.308460000000    14.003074004780
         H            0.673432000000     1.006470000000    -3.315997000000     1.007825032070
         H            1.377190000000     1.485970000000    -1.813316000000     1.007825032070
         H           -1.001126000000    -1.757983000000    -1.845783000000     1.007825032070
         H           -1.045781000000    -0.758973000000    -3.254055000000     1.007825032070

  Nuclear repulsion =  416.955793595038472

  ==> Basis Set <==

  Basis Set: 6-31G*
    Blend: 6-31G*
    Number of shells: 72
    Number of basis function: 153
    Number of Cartesian functions: 153
    Spherical Harmonics?: false
    Max angular momentum: 2

  ==> DFJKGrad: Density-Fitted SCF Gradients <==

    Gradient:                    1
    J tasked:                  Yes
    K tasked:                  Yes
    wK tasked:                  No
    OpenMP threads:              4
    Integrals threads:           4
    Memory (MB):              2002
    Schwarz Cutoff:          0E+00
    Fitting Condition:       1E-12

   => Auxiliary Basis Set <=

  Basis Set: (6-31G* AUX)
    Blend: CC-PVDZ-JKFIT
    Number of shells: 297
    Number of basis function: 954
    Number of Cartesian functions: 954
    Spherical Harmonics?: false
    Max angular momentum: 3

  ==> DFT Potential <==

   => Composite Functional: B3LYP-D3ZERO <= 

    B3LYP-d3zero Hyb-GGA Exchange-Correlation Functional

    P. J. Stephens, F. J. Devlin, C. F. Chabalowski, and M. J. Frisch, J. Phys. Chem. 98, 11623 (1994)

    Deriv               =              1
    GGA                 =           TRUE
    Meta                =          FALSE

    Exchange Hybrid     =           TRUE
    MP2 Hybrid          =          FALSE

   => Exchange Functionals <=

    0.0800   Slater exchange
    0.7200         Becke 88

   => Exact (HF) Exchange <=

    0.2000               HF 

   => Correlation Functionals <=

    0.1900   Vosko, Wilk & Nusair (VWN5_RPA)
    0.8100   Lee, Yang & Parr

   => Molecular Quadrature <=

    Radial Scheme       =       TREUTLER
    Pruning Scheme      =           FLAT
    Nuclear Scheme      =       TREUTLER

    BS radius alpha     =              1
    Pruning alpha       =              1
    Radial Points       =             75
    Spherical Points    =            302
    Total Points        =         396897
    Total Blocks        =           3011
    Max Points          =            256
    Max Functions       =            149


  -Total Gradient:
     Atom            X                  Y                   Z
    ------   -----------------  -----------------  -----------------
       1       -0.006993673263     0.004859184481    -0.002234150728
       2       -0.000950958121     0.000264658931     0.001697876722
       3        0.000752029552     0.001111500037    -0.000859986420
       4       -0.000149770560    -0.000853314388     0.000029003040
       5        0.000054586276     0.000876995693     0.000729018363
       6        0.000025454475    -0.002524512222    -0.001304223289
       7       -0.005515852995    -0.001290421292     0.000244121622
       8       -0.000251597269     0.000043468716    -0.000084929332
       9        0.000099783054    -0.000038477930     0.000093206424
      10       -0.000025979056     0.000056773309     0.000052462707
      11        0.000045396896    -0.000016629937    -0.000046158890
      12       -0.000318290870     0.001078755042    -0.001189519109
      13        0.003912950113     0.001996522886     0.003770322634
      14        0.006076569006    -0.003568245594    -0.001446798160
      15       -0.001363089530     0.001538318135     0.000329149578
      16        0.002812502477    -0.002733700998    -0.000559417300
      17        0.009332824830    -0.005026540995    -0.002100558845
      18       -0.007547081681     0.004227115227     0.002865837434


*** tstop() called on green.prib.upf.edu at Sat Sep 29 20:28:34 2018
Module time:
	user time   =      25.82 seconds =       0.43 minutes
	system time =       0.24 seconds =       0.00 minutes
	total time  =          6 seconds =       0.10 minutes
Total time:
	user time   =     126.24 seconds =       2.10 minutes
	system time =       0.78 seconds =       0.01 minutes
	total time  =         34 seconds =       0.57 minutes

			-----------------------------------------
			 OPTKING 2.0: for geometry optimizations 
			  - R.A. King,  Bethel University        
			-----------------------------------------
	At level 1: Red. Int., RFO, no backsteps, dynamic trust

	Internal coordinates to be generated automatically.
	Detected frag 1 with atoms:  1 2 3 4 5 6 7 8 9 10 11 12 13 14 15 16 17 18
	---Fragment 1 Bond Connectivity---
	 1 : 2 6 7
	 2 : 1 3 8
	 3 : 2 4 9
	 4 : 3 5 10
	 5 : 4 6 11
	 6 : 1 5 12
	 7 : 1 13 14
	 8 : 2
	 9 : 3
	 10 : 4
	 11 : 5
	 12 : 6
	 13 : 7 17 18
	 14 : 7 15 16
	 15 : 14
	 16 : 14
	 17 : 13
	 18 : 13

	Assuming in current code that numbering for constraints corresponds to unified fragment.
	Frozen dihedral atom list: 
	     1     7    13    17
	---Fragment 1 Geometry and Gradient---
	 C           0.0000000000        0.0000000000       -0.3361142489
	 C           0.0693113751        2.3042829136        0.9905282984
	 C           0.0600271506        2.2924645663        3.6196645829
	 C           0.0000000000        0.0000000000        4.9323874075
	 C          -0.0600271506       -2.2924645663        3.6196645829
	 C          -0.0693113751       -2.3042848033        0.9905282984
	 C           0.0000000000        0.0000000000       -3.1080968214
	 H           0.0343363238        4.0906996085       -0.0205110874
	 H           0.0801281675        4.0683819429        4.6447314059
	 H           0.0000000000        0.0000000000        6.9839666940
	 H          -0.0801281675       -4.0683819429        4.6447314059
	 H          -0.0343363238       -4.0906996085       -0.0205091977
	 N          -1.3465999450       -1.7119973901       -4.3623590784
	 N           1.3465999450        1.7119973901       -4.3623571887
	 H           1.2726020491        1.9019526610       -6.2663261875
	 H           2.6025119329        2.8080763417       -3.4266706324
	 H          -1.8918539645       -3.3221064163       -3.4880243707
	 H          -1.9762396850       -1.4342511123       -6.1492727713
	            -0.0069936733        0.0048591845       -0.0022341507
	            -0.0009509581        0.0002646589        0.0016978767
	             0.0007520296        0.0011115000       -0.0008599864
	            -0.0001497706       -0.0008533144        0.0000290030
	             0.0000545863        0.0008769957        0.0007290184
	             0.0000254545       -0.0025245122       -0.0013042233
	            -0.0055158530       -0.0012904213        0.0002441216
	            -0.0002515973        0.0000434687       -0.0000849293
	             0.0000997831       -0.0000384779        0.0000932064
	            -0.0000259791        0.0000567733        0.0000524627
	             0.0000453969       -0.0000166299       -0.0000461589
	            -0.0003182909        0.0010787550       -0.0011895191
	             0.0039129501        0.0019965229        0.0037703226
	             0.0060765690       -0.0035682456       -0.0014467982
	            -0.0013630895        0.0015383181        0.0003291496
	             0.0028125025       -0.0027337010       -0.0005594173
	             0.0093328248       -0.0050265410       -0.0021005588
	            -0.0075470817        0.0042271152        0.0028658374

	Previous optimization step data not found.  Starting new optimization.

	---Fragment 1 Intrafragment Coordinates---
	 - Coordinate -           - BOHR/RAD -       - ANG/DEG -
	 R(1,2)           =         2.659794	       1.407502
	 R(1,6)           =         2.659796	       1.407503
	 R(1,7)           =         2.771983	       1.466870
	 R(2,3)           =         2.629179	       1.391302
	 R(2,8)           =         2.052976	       1.086388
	 R(3,4)           =         2.642393	       1.398294
	 R(3,9)           =         2.050622	       1.085142
	 R(4,5)           =         2.642393	       1.398294
	 R(4,10)          =         2.051579	       1.085649
	 R(5,6)           =         2.629179	       1.391302
	 R(5,11)          =         2.050622	       1.085142
	 R(6,12)          =         2.052973	       1.086386
	 R(7,13)          =         2.513452	       1.330061
	 R(7,14)          =         2.513451	       1.330061
	 R(13,17)         =         1.911600	       1.011575
	 R(13,18)         =         1.914850	       1.013295
	 R(14,15)         =         1.914852	       1.013296
	 R(14,16)         =         1.911600	       1.011575
	 B(1,2,3)         =         2.088380	     119.655376
	 B(1,2,8)         =         2.103396	     120.515689
	 B(1,6,5)         =         2.088379	     119.655315
	 B(1,6,12)        =         2.103396	     120.515729
	 B(1,7,13)        =         2.093264	     119.935172
	 B(1,7,14)        =         2.093263	     119.935135
	 B(2,1,6)         =         2.097220	     120.161857
	 B(2,1,7)         =         2.092983	     119.919082
	 B(2,3,4)         =         2.095279	     120.050636
	 B(2,3,9)         =         2.089719	     119.732108
	 B(3,2,8)         =         2.090149	     119.756722
	 B(3,4,5)         =         2.101793	     120.423859
	 B(3,4,10)        =         2.090696	     119.788070
	 B(4,3,9)         =         2.098135	     120.214297
	 B(4,5,6)         =         2.095280	     120.050677
	 B(4,5,11)        =         2.098135	     120.214297
	 B(5,4,10)        =         2.090696	     119.788070
	 B(5,6,12)        =         2.090149	     119.756743
	 B(6,1,7)         =         2.092982	     119.919061
	 B(6,5,11)        =         2.089719	     119.732067
	 B(7,13,17)       =         2.092411	     119.886317
	 B(7,13,18)       =         2.144860	     122.891428
	 B(7,14,15)       =         2.144860	     122.891405
	 B(7,14,16)       =         2.092412	     119.886393
	 B(13,7,14)       =         2.096659	     120.129694
	 B(15,14,16)      =         2.043399	     117.078146
	 B(17,13,18)      =         2.043400	     117.078201
	 D(1,2,3,4)       =         0.007799	       0.446825
	 D(1,2,3,9)       =        -3.122896	    -178.928735
	 D(1,6,5,4)       =         0.007799	       0.446822
	 D(1,6,5,11)      =        -3.122896	    -178.928737
	*D(1,7,13,17)     =        -0.349067	     -20.000047
	 D(1,7,13,18)     =         2.714111	     155.507086
	 D(1,7,14,15)     =        -3.032165	    -173.730230
	 D(1,7,14,16)     =         0.187844	      10.762681
	 D(2,1,6,5)       =        -0.003906	      -0.223802
	 D(2,1,6,12)      =        -3.091437	    -177.126283
	 D(2,1,7,13)      =        -2.505167	    -143.535494
	 D(2,1,7,14)      =         0.636426	      36.464506
	 D(2,3,4,5)       =        -0.003942	      -0.225875
	 D(2,3,4,10)      =         3.137650	     179.774125
	 D(3,2,1,6)       =        -0.003906	      -0.223806
	 D(3,2,1,7)       =         3.137687	     179.776196
	 D(3,4,5,6)       =        -0.003942	      -0.225874
	 D(3,4,5,11)      =         3.126699	     179.146646
	 D(4,3,2,8)       =         3.095744	     177.373058
	 D(4,5,6,12)      =         3.095744	     177.373055
	 D(5,4,3,9)       =         3.126699	     179.146646
	 D(5,6,1,7)       =         3.137687	     179.776197
	 D(6,1,2,8)       =        -3.091437	    -177.126287
	 D(6,1,7,13)      =         0.636426	      36.464508
	 D(6,1,7,14)      =        -2.505167	    -143.535492
	 D(6,5,4,10)      =         3.137650	     179.774126
	 D(7,1,2,8)       =         0.050156	       2.873714
	 D(7,1,6,12)      =         0.050156	       2.873716
	 D(8,2,3,9)       =        -0.034950	      -2.002503
	 D(9,3,4,10)      =        -0.014894	      -0.853354
	 D(10,4,5,11)     =        -0.014894	      -0.853354
	 D(11,5,6,12)     =        -0.034950	      -2.002504
	 D(13,7,14,15)    =         0.109428	       6.269770
	 D(13,7,14,16)    =        -2.953748	    -169.237319
	 D(14,7,13,17)    =         2.792526	     159.999953
	 D(14,7,13,18)    =        -0.427482	     -24.492914

	Current energy   :      -381.4612725691

	Generating empirical Hessian (Schlegel '84) for each fragment.
	Taking RFO optimization step.
	Going to follow RFO solution 1.
	Using RFO vector 1.

	Determining step-restricting scale parameter for RS-RFO.
	Maximum step size allowed    0.50000

	 Iter      |step|        alpha        rfo_root  
	------------------------------------------------
	    0     0.50487       1.00000           1
	    1     0.50008       1.04527           1
	    2     0.50000       1.04605           1
	------------------------------------------------
	Norm of target step-size    0.50000
	Projected energy change by RFO approximation:        -0.0075981504

	Back-transformation to cartesian coordinates...
	Could not converge backtransformation.
	Using first guess instead.

	Back-transformation to cartesian coordinates to adjust frozen coordinates...
	Successfully converged to displaced geometry.

	--- Internal Coordinate Step in ANG or DEG, aJ/ANG or AJ/DEG ---
	 ---------------------------------------------------------------------------
	   Coordinate                Previous        Force       Change         New 
	   ----------                --------       ------       ------       ------
	    1 R(1,2)          =      1.407502    -0.006502    -0.000740     1.406763
	    2 R(1,6)          =      1.407503     0.005069     0.001031     1.408534
	    3 R(1,7)          =      1.466870     0.025609     0.004466     1.471336
	    4 R(2,3)          =      1.391302     0.005156     0.001098     1.392400
	    5 R(2,8)          =      1.086388    -0.000687     0.000123     1.086511
	    6 R(3,4)          =      1.398294    -0.007934    -0.000784     1.397510
	    7 R(3,9)          =      1.085142    -0.000120     0.000143     1.085285
	    8 R(4,5)          =      1.398294    -0.001385    -0.000030     1.398264
	    9 R(4,10)         =      1.085649    -0.000439     0.000171     1.085820
	   10 R(5,6)          =      1.391302    -0.005200    -0.000448     1.390853
	   11 R(5,11)         =      1.085142     0.000071     0.000219     1.085362
	   12 R(6,12)         =      1.086386     0.002954     0.000921     1.087308
	   13 R(7,13)         =      1.330061     0.050537     0.008593     1.338655
	   14 R(7,14)         =      1.330061    -0.013380     0.001117     1.331178
	   15 R(13,17)        =      1.011575    -0.005034     0.002571     1.014146
	   16 R(13,18)        =      1.013295    -0.003457     0.012931     1.026226
	   17 R(14,15)        =      1.013296     0.001014     0.000278     1.013574
	   18 R(14,16)        =      1.011575    -0.000062     0.004854     1.016429
	   19 B(1,2,3)        =    119.655376     0.000021     0.051061   119.706437
	   20 B(1,2,8)        =    120.515689    -0.000006    -0.022045   120.493644
	   21 B(1,6,5)        =    119.655315     0.000058     0.188918   119.844233
	   22 B(1,6,12)       =    120.515729     0.000092     0.448991   120.964721
	   23 B(1,7,13)       =    119.935172     0.000332     0.878119   120.813291
	   24 B(1,7,14)       =    119.935135    -0.000254    -0.802810   119.132324
	   25 B(2,1,6)        =    120.161857    -0.000077    -0.223587   119.938270
	   26 B(2,1,7)        =    119.919082    -0.000245    -0.718709   119.200373
	   27 B(2,3,4)        =    120.050636     0.000028     0.097701   120.148337
	   28 B(2,3,9)        =    119.732108    -0.000022    -0.082397   119.649711
	   29 B(3,2,8)        =    119.756722    -0.000016    -0.057572   119.699150
	   30 B(3,4,5)        =    120.423859    -0.000026    -0.101061   120.322799
	   31 B(3,4,10)       =    119.788070     0.000017     0.073740   119.861810
	   32 B(4,3,9)        =    120.214297    -0.000006    -0.013392   120.200904
	   33 B(4,5,6)        =    120.050677    -0.000004    -0.022754   120.027923
	   34 B(4,5,11)       =    120.214297    -0.000002    -0.008697   120.205599
	   35 B(5,4,10)       =    119.788070     0.000009     0.027299   119.815369
	   36 B(5,6,12)       =    119.756743    -0.000150    -0.638316   119.118427
	   37 B(6,1,7)        =    119.919061     0.000322     0.942036   120.861097
	   38 B(6,5,11)       =    119.732067     0.000006     0.032682   119.764748
	   39 B(7,13,17)      =    119.886317     0.000074     0.649382   120.535700
	   40 B(7,13,18)      =    122.891428     0.000020    -0.831578   122.059849
	   41 B(7,14,15)      =    122.891405    -0.000027    -0.073689   122.817716
	   42 B(7,14,16)      =    119.886393     0.000024     0.345030   120.231423
	   43 B(13,7,14)      =    120.129694    -0.000078    -0.629819   119.499875
	   44 B(15,14,16)     =    117.078146     0.000011    -0.138719   116.939427
	   45 B(17,13,18)     =    117.078201    -0.000066     0.092939   117.171140
	   46 D(1,2,3,4)      =      0.446825     0.000006     0.754969     1.201794
	   47 D(1,2,3,9)      =   -178.928735     0.000004     0.502107  -178.426628
	   48 D(1,6,5,4)      =      0.446822     0.000000     0.030730     0.477552
	   49 D(1,6,5,11)     =   -178.928737    -0.000001    -0.116315  -179.045052
	   50 *D(1,7,13,17)   =    -20.000047    -0.000000    -0.000000   -20.000047
	   51 D(1,7,13,18)    =    155.507086     0.000095    10.200497   165.707583
	   52 D(1,7,14,15)    =   -173.730230     0.000004     0.885656  -172.844574
	   53 D(1,7,14,16)    =     10.762681    -0.000024    -2.338906     8.423775
	   54 D(2,1,6,5)      =     -0.223802     0.000004     0.527540     0.303738
	   55 D(2,1,6,12)     =   -177.126283     0.000005     0.556266  -176.570016
	   56 D(2,1,7,13)     =   -143.535494     0.000032     4.133662  -139.401832
	   57 D(2,1,7,14)     =     36.464506    -0.000034    -4.448560    32.015946
	   58 D(2,3,4,5)      =     -0.225875    -0.000002    -0.197990    -0.423866
	   59 D(2,3,4,10)     =    179.774125    -0.000002    -0.251873   179.522252
	   60 D(3,2,1,6)      =     -0.223806    -0.000007    -0.919382    -1.143187
	   61 D(3,2,1,7)      =    179.776196    -0.000008    -1.103405   178.672790
	   62 D(3,4,5,6)      =     -0.225874    -0.000001    -0.197592    -0.423466
	   63 D(3,4,5,11)     =    179.146646    -0.000000    -0.049633   179.097014
	   64 D(4,3,2,8)      =    177.373058     0.000002     0.197551   177.570608
	   65 D(4,5,6,12)     =    177.373055     0.000001     0.036034   177.409090
	   66 D(5,4,3,9)      =    179.146646     0.000000     0.055846   179.202493
	   67 D(5,6,1,7)      =    179.776197     0.000005     0.714673   180.490870
	   68 D(6,1,2,8)      =   -177.126287    -0.000003    -0.356373  -177.482660
	   69 D(6,1,7,13)     =     36.464508     0.000031     3.947891    40.412399
	   70 D(6,1,7,14)     =   -143.535492    -0.000035    -4.634331  -148.169824
	   71 D(6,5,4,10)     =    179.774126    -0.000001    -0.143734   179.630391
	   72 D(7,1,2,8)      =      2.873714    -0.000004    -0.540397     2.333318
	   73 D(7,1,6,12)     =      2.873716     0.000006     0.743400     3.617116
	   74 D(8,2,3,9)      =     -2.002503    -0.000000    -0.055311    -2.057814
	   75 D(9,3,4,10)     =     -0.853354     0.000000     0.001964    -0.851390
	   76 D(10,4,5,11)    =     -0.853354     0.000000     0.004225    -0.849129
	   77 D(11,5,6,12)    =     -2.002504    -0.000000    -0.111011    -2.113514
	   78 D(13,7,14,15)   =      6.269770    -0.000062    -7.582176    -1.312405
	   79 D(13,7,14,16)   =   -169.237319    -0.000090   -10.806737  -180.044056
	   80 D(14,7,13,17)   =    159.999953     0.000066     8.613429   168.613382
	   81 D(14,7,13,18)   =    -24.492914     0.000161    18.813926    -5.678988
	 ---------------------------------------------------------------------------
	Successfully symmetrized geometry.

  ==> Convergence Check <==

  Measures of convergence in internal coordinates in au.
  Criteria marked as inactive (o), active & met (*), and active & unmet ( ).
  --------------------------------------------------------------------------------------------- ~
   Step     Total Energy     Delta E     MAX Force     RMS Force      MAX Disp      RMS Disp    ~
  --------------------------------------------------------------------------------------------- ~
    Convergence Criteria    1.00e-06 *    3.00e-04 *             o    1.20e-03 *             o  ~
  --------------------------------------------------------------------------------------------- ~
      1    -381.46127257   -3.81e+02      9.22e-03      1.95e-03 o    3.28e-01      5.49e-02 o  ~
  ---------------------------------------------------------------------------------------------

	Writing optimization data to binary file.
	Structure for next step:
	Cartesian Geometry (in Angstrom)
	    C     0.0303520149  -0.0373558028  -0.1734334888
	    C     0.0752471081   1.1911031179   0.5105649788
	    C     0.0459464286   1.2072818940   1.9025622042
	    C    -0.0024114128   0.0075121216   2.6175775518
	    C    -0.0306480875  -1.2163280901   1.9418859144
	    C    -0.0195499213  -1.2440709709   0.5513536792
	    C     0.0322250012  -0.0401957891  -1.6447654071
	    H     0.0728016417   2.1284659722  -0.0388438534
	    H     0.0547496628   2.1564317390   2.4287574005
	    H    -0.0172623813   0.0253229377   3.7031494937
	    H    -0.0534209540  -2.1473858410   2.4992211878
	    H     0.0010834044  -2.2041805150   0.0414499261
	    N    -0.7470796192  -0.8859801509  -2.3298421598
	    N     0.6858221390   0.9208145991  -2.2938450943
	    H     0.6376851016   1.0350257281  -3.2998129979
	    H     1.2800137645   1.5694991115  -1.7846573978
	    H    -1.1138232367  -1.7217346801  -1.8876810211
	    H    -0.9280156541  -0.7687423809  -3.3331649163
			--------------------------
			 OPTKING Finished Execution 
			--------------------------

    Structure for next step:
    Molecular point group: c1
    Full point group: C1

    Geometry (in Angstrom), charge = 1, multiplicity = 1:

    C            0.030352014923    -0.037355802819    -0.173433488789
    C            0.075247108102     1.191103117921     0.510564978774
    C            0.045946428590     1.207281893985     1.902562204217
    C           -0.002411412841     0.007512121582     2.617577551798
    C           -0.030648087518    -1.216328090125     1.941885914427
    C           -0.019549921268    -1.244070970931     0.551353679242
    C            0.032225001208    -0.040195789137    -1.644765407092
    H            0.072801641682     2.128465972153    -0.038843853450
    H            0.054749662811     2.156431738987     2.428757400477
    H           -0.017262381273     0.025322937671     3.703149493712
    H           -0.053420953961    -2.147385841019     2.499221187840
    H            0.001083404355    -2.204180515009     0.041449926071
    N           -0.747079619195    -0.885980150884    -2.329842159798
    N            0.685822139047     0.920814599095    -2.293845094325
    H            0.637685101563     1.035025728073    -3.299812997891
    H            1.280013764485     1.569499111461    -1.784657397777
    H           -1.113823236656    -1.721734680127    -1.887681021147
    H           -0.928015654052    -0.768742380875    -3.333164916287

gradient() will perform analytic gradient computation.

*** tstart() called on green.prib.upf.edu
*** at Sat Sep 29 20:28:35 2018

   => Loading Basis Set <=

    Name: 6-31G*
    Role: ORBITAL
    Keyword: BASIS
    atoms 1-7         entry C          line   111 file /shared/joao/test_parameterize/miniconda3/share/psi4/basis/6-31gs.gbs 
    atoms 8-12, 15-18 entry H          line    44 file /shared/joao/test_parameterize/miniconda3/share/psi4/basis/6-31gs.gbs 
    atoms 13-14       entry N          line   128 file /shared/joao/test_parameterize/miniconda3/share/psi4/basis/6-31gs.gbs 


         ---------------------------------------------------------
                                   SCF
            by Justin Turney, Rob Parrish, Andy Simmonett
                             and Daniel Smith
                              RKS Reference
                        4 Threads,   2861 MiB Core
         ---------------------------------------------------------

  ==> Geometry <==

    Molecular point group: c1
    Full point group: C1

    Geometry (in Angstrom), charge = 1, multiplicity = 1:

       Center              X                  Y                   Z               Mass       
    ------------   -----------------  -----------------  -----------------  -----------------
         C            0.030352014923    -0.037355802819    -0.173433488789    12.000000000000
         C            0.075247108102     1.191103117921     0.510564978774    12.000000000000
         C            0.045946428590     1.207281893985     1.902562204217    12.000000000000
         C           -0.002411412841     0.007512121582     2.617577551798    12.000000000000
         C           -0.030648087518    -1.216328090125     1.941885914427    12.000000000000
         C           -0.019549921268    -1.244070970931     0.551353679242    12.000000000000
         C            0.032225001208    -0.040195789137    -1.644765407092    12.000000000000
         H            0.072801641682     2.128465972153    -0.038843853450     1.007825032070
         H            0.054749662811     2.156431738987     2.428757400477     1.007825032070
         H           -0.017262381273     0.025322937671     3.703149493712     1.007825032070
         H           -0.053420953961    -2.147385841019     2.499221187840     1.007825032070
         H            0.001083404355    -2.204180515009     0.041449926071     1.007825032070
         N           -0.747079619195    -0.885980150884    -2.329842159798    14.003074004780
         N            0.685822139047     0.920814599095    -2.293845094325    14.003074004780
         H            0.637685101563     1.035025728073    -3.299812997891     1.007825032070
         H            1.280013764485     1.569499111461    -1.784657397777     1.007825032070
         H           -1.113823236656    -1.721734680127    -1.887681021147     1.007825032070
         H           -0.928015654052    -0.768742380875    -3.333164916287     1.007825032070

  Running in c1 symmetry.

  Rotational constants: A =      0.12182  B =      0.03943  C =      0.03114 [cm^-1]
  Rotational constants: A =   3652.15154  B =   1182.09307  C =    933.49196 [MHz]
  Nuclear repulsion =  416.321862768282017

  Charge       = 1
  Multiplicity = 1
  Electrons    = 64
  Nalpha       = 32
  Nbeta        = 32

  ==> Algorithm <==

  SCF Algorithm Type is DF.
  DIIS enabled.
  MOM disabled.
  Fractional occupation disabled.
  Guess Type is READ.
  Energy threshold   = 1.00e-08
  Density threshold  = 1.00e-08
  Integral threshold = 0.00e+00

  ==> Primary Basis <==

  Basis Set: 6-31G*
    Blend: 6-31G*
    Number of shells: 72
    Number of basis function: 153
    Number of Cartesian functions: 153
    Spherical Harmonics?: false
    Max angular momentum: 2

  ==> DFT Potential <==

   => Composite Functional: B3LYP-D3ZERO <= 

    B3LYP-d3zero Hyb-GGA Exchange-Correlation Functional

    P. J. Stephens, F. J. Devlin, C. F. Chabalowski, and M. J. Frisch, J. Phys. Chem. 98, 11623 (1994)

    Deriv               =              1
    GGA                 =           TRUE
    Meta                =          FALSE

    Exchange Hybrid     =           TRUE
    MP2 Hybrid          =          FALSE

   => Exchange Functionals <=

    0.0800   Slater exchange
    0.7200         Becke 88

   => Exact (HF) Exchange <=

    0.2000               HF 

   => Correlation Functionals <=

    0.1900   Vosko, Wilk & Nusair (VWN5_RPA)
    0.8100   Lee, Yang & Parr

   => Molecular Quadrature <=

    Radial Scheme       =       TREUTLER
    Pruning Scheme      =           FLAT
    Nuclear Scheme      =       TREUTLER

    BS radius alpha     =              1
    Pruning alpha       =              1
    Radial Points       =             75
    Spherical Points    =            302
    Total Points        =         396870
    Total Blocks        =           2996
    Max Points          =            256
    Max Functions       =            149

   => -D3ZERO: Empirical Dispersion <=

    Grimme's -D3 (zero-damping) Dispersion Correction
    Grimme S.; Antony J.; Ehrlich S.; Krieg H. (2010), J. Chem. Phys., 132: 154104

        S6 =   1.000000E+00
        S8 =   1.703000E+00
       SR6 =   1.261000E+00
       SR8 =   1.000000E+00
    ALPHA6 =   1.400000E+01

   => Loading Basis Set <=

    Name: (6-31G* AUX)
    Role: JKFIT
    Keyword: DF_BASIS_SCF
    atoms 1-7         entry C          line   121 file /shared/joao/test_parameterize/miniconda3/share/psi4/basis/cc-pvdz-jkfit.gbs 
    atoms 8-12, 15-18 entry H          line    51 file /shared/joao/test_parameterize/miniconda3/share/psi4/basis/cc-pvdz-jkfit.gbs 
    atoms 13-14       entry N          line   171 file /shared/joao/test_parameterize/miniconda3/share/psi4/basis/cc-pvdz-jkfit.gbs 

  Reading orbitals from file 180, no projection.

  ==> Pre-Iterations <==

   -------------------------------------------------------
    Irrep   Nso     Nmo     Nalpha   Nbeta   Ndocc  Nsocc
   -------------------------------------------------------
     A        153     153       0       0       0       0
   -------------------------------------------------------
    Total     153     153      32      32      32       0
   -------------------------------------------------------

  ==> Integral Setup <==

  ==> DiskDFJK: Density-Fitted J/K Matrices <==

    J tasked:                  Yes
    K tasked:                  Yes
    wK tasked:                  No
    OpenMP threads:              4
    Integrals threads:           4
    Memory (MB):              2002
    Algorithm:                Core
    Integral Cache:           NONE
    Schwarz Cutoff:          1E-12
    Fitting Condition:       1E-12

   => Auxiliary Basis Set <=

  Basis Set: (6-31G* AUX)
    Blend: CC-PVDZ-JKFIT
    Number of shells: 297
    Number of basis function: 954
    Number of Cartesian functions: 954
    Spherical Harmonics?: false
    Max angular momentum: 3

  Minimum eigenvalue in the overlap matrix is 4.8716953427E-04.
  Using Symmetric Orthogonalization.

  SCF Guess: Orbitals guess was supplied from a previous computation.

  ==> Iterations <==

                           Total Energy        Delta E     RMS |[F,P]|

   @DF-RKS iter   0:  -381.43221930818470   -3.81432e+02   1.94218e-03 
   @DF-RKS iter   1:  -381.46479921892535   -3.25799e-02   2.66225e-04 
   @DF-RKS iter   2:  -381.46467993019081    1.19289e-04   3.49493e-04 DIIS
   @DF-RKS iter   3:  -381.46504770164154   -3.67771e-04   8.16154e-05 DIIS
   @DF-RKS iter   4:  -381.46506440415067   -1.67025e-05   3.44591e-05 DIIS
   @DF-RKS iter   5:  -381.46506773668551   -3.33253e-06   9.42357e-06 DIIS
   @DF-RKS iter   6:  -381.46506799212813   -2.55443e-07   3.33281e-06 DIIS
   @DF-RKS iter   7:  -381.46506802149366   -2.93655e-08   8.38308e-07 DIIS
   @DF-RKS iter   8:  -381.46506802347034   -1.97667e-09   2.50576e-07 DIIS
   @DF-RKS iter   9:  -381.46506802364428   -1.73941e-10   6.28101e-08 DIIS
   @DF-RKS iter  10:  -381.46506802365320   -8.92442e-12   2.60280e-08 DIIS
   @DF-RKS iter  11:  -381.46506802365496   -1.76215e-12   9.63851e-09 DIIS

  ==> Post-Iterations <==

    Orbital Energies [Eh]
    ---------------------

    Doubly Occupied:                                                      

       1A    -14.569915     2A    -14.568417     3A    -10.500050  
       4A    -10.375229     5A    -10.357031     6A    -10.356824  
       7A    -10.342136     8A    -10.340563     9A    -10.340426  
      10A     -1.182287    11A     -1.089703    12A     -1.014310  
      13A     -0.926374    14A     -0.902445    15A     -0.845314  
      16A     -0.785044    17A     -0.773171    18A     -0.739506  
      19A     -0.733654    20A     -0.686194    21A     -0.669318  
      22A     -0.627781    23A     -0.616121    24A     -0.589785  
      25A     -0.578356    26A     -0.574556    27A     -0.516939  
      28A     -0.506642    29A     -0.498546    30A     -0.470668  
      31A     -0.410013    32A     -0.405545  

    Virtual:                                                              

      33A     -0.217831    34A     -0.157322    35A     -0.134845  
      36A     -0.112435    37A     -0.072523    38A     -0.065225  
      39A     -0.039248    40A     -0.035795    41A      0.006790  
      42A      0.021353    43A      0.025379    44A      0.062128  
      45A      0.063232    46A      0.082058    47A      0.121783  
      48A      0.146948    49A      0.156993    50A      0.165075  
      51A      0.203047    52A      0.239587    53A      0.299097  
      54A      0.349184    55A      0.353273    56A      0.379301  
      57A      0.388500    58A      0.398141    59A      0.419705  
      60A      0.421705    61A      0.441425    62A      0.450632  
      63A      0.452837    64A      0.468121    65A      0.471435  
      66A      0.474489    67A      0.486465    68A      0.500956  
      69A      0.513564    70A      0.539700    71A      0.544935  
      72A      0.589073    73A      0.607752    74A      0.650649  
      75A      0.656585    76A      0.677797    77A      0.685462  
      78A      0.704911    79A      0.716159    80A      0.724206  
      81A      0.757803    82A      0.775070    83A      0.775781  
      84A      0.800733    85A      0.816428    86A      0.838940  
      87A      0.847514    88A      0.936626    89A      0.959490  
      90A      0.987055    91A      1.002174    92A      1.023604  
      93A      1.042028    94A      1.068657    95A      1.138989  
      96A      1.171064    97A      1.248364    98A      1.261785  
      99A      1.275536   100A      1.312766   101A      1.322256  
     102A      1.341133   103A      1.345806   104A      1.362700  
     105A      1.416269   106A      1.452450   107A      1.506396  
     108A      1.610003   109A      1.616087   110A      1.653965  
     111A      1.678497   112A      1.736037   113A      1.750521  
     114A      1.793243   115A      1.825265   116A      1.837374  
     117A      1.895556   118A      1.922959   119A      1.947799  
     120A      1.975783   121A      1.995377   122A      2.019605  
     123A      2.022885   124A      2.081090   125A      2.114193  
     126A      2.126622   127A      2.151336   128A      2.197051  
     129A      2.209940   130A      2.257965   131A      2.325632  
     132A      2.369423   133A      2.441984   134A      2.452910  
     135A      2.488017   136A      2.522342   137A      2.545218  
     138A      2.588786   139A      2.606776   140A      2.627811  
     141A      2.735190   142A      2.870943   143A      2.979246  
     144A      3.256729   145A      3.629294   146A      3.651868  
     147A      3.913997   148A      3.948708   149A      3.962920  
     150A      4.052538   151A      4.173185   152A      4.254722  
     153A      4.544271  

    Final Occupation by Irrep:
              A 
    DOCC [    32 ]

  Energy converged.

  @DF-RKS Final Energy:  -381.46506802365496

   => Energetics <=

    Nuclear Repulsion Energy =            416.3218627682820170
    One-Electron Energy =               -1327.8498150697232632
    Two-Electron Energy =                 574.4670092535658341
    DFT Exchange-Correlation Energy =     -44.3923145157795034
    Empirical Dispersion Energy =          -0.0118104600000000
    VV10 Nonlocal Energy =                  0.0000000000000000
    Total Energy =                       -381.4650680236549078



Properties will be evaluated at   0.000000,   0.000000,   0.000000 [a0]

Properties computed using the SCF density matrix

  Nuclear Dipole Moment: [e a0]
     X:     0.5518      Y:    -0.8991      Z:     0.3724

  Electronic Dipole Moment: [e a0]
     X:    -0.5499      Y:     0.9131      Z:    -2.6545

  Dipole Moment: [e a0]
     X:     0.0018      Y:     0.0140      Z:    -2.2821     Total:     2.2821

  Dipole Moment: [D]
     X:     0.0047      Y:     0.0355      Z:    -5.8005     Total:     5.8006


*** tstop() called on green.prib.upf.edu at Sat Sep 29 20:28:57 2018
Module time:
	user time   =      80.52 seconds =       1.34 minutes
	system time =       0.39 seconds =       0.01 minutes
	total time  =         22 seconds =       0.37 minutes
Total time:
	user time   =     207.65 seconds =       3.46 minutes
	system time =       1.21 seconds =       0.02 minutes
	total time  =         57 seconds =       0.95 minutes

*** tstart() called on green.prib.upf.edu
*** at Sat Sep 29 20:28:57 2018


         ------------------------------------------------------------
                                   SCF GRAD                          
                          Rob Parrish, Justin Turney,                
                       Andy Simmonett, and Alex Sokolov              
         ------------------------------------------------------------

  ==> Geometry <==

    Molecular point group: c1
    Full point group: C1

    Geometry (in Angstrom), charge = 1, multiplicity = 1:

       Center              X                  Y                   Z               Mass       
    ------------   -----------------  -----------------  -----------------  -----------------
         C            0.030352014923    -0.037355802819    -0.173433488789    12.000000000000
         C            0.075247108102     1.191103117921     0.510564978774    12.000000000000
         C            0.045946428590     1.207281893985     1.902562204217    12.000000000000
         C           -0.002411412841     0.007512121582     2.617577551798    12.000000000000
         C           -0.030648087518    -1.216328090125     1.941885914427    12.000000000000
         C           -0.019549921268    -1.244070970931     0.551353679242    12.000000000000
         C            0.032225001208    -0.040195789137    -1.644765407092    12.000000000000
         H            0.072801641682     2.128465972153    -0.038843853450     1.007825032070
         H            0.054749662811     2.156431738987     2.428757400477     1.007825032070
         H           -0.017262381273     0.025322937671     3.703149493712     1.007825032070
         H           -0.053420953961    -2.147385841019     2.499221187840     1.007825032070
         H            0.001083404355    -2.204180515009     0.041449926071     1.007825032070
         N           -0.747079619195    -0.885980150884    -2.329842159798    14.003074004780
         N            0.685822139047     0.920814599095    -2.293845094325    14.003074004780
         H            0.637685101563     1.035025728073    -3.299812997891     1.007825032070
         H            1.280013764485     1.569499111461    -1.784657397777     1.007825032070
         H           -1.113823236656    -1.721734680127    -1.887681021147     1.007825032070
         H           -0.928015654052    -0.768742380875    -3.333164916287     1.007825032070

  Nuclear repulsion =  416.321862768282017

  ==> Basis Set <==

  Basis Set: 6-31G*
    Blend: 6-31G*
    Number of shells: 72
    Number of basis function: 153
    Number of Cartesian functions: 153
    Spherical Harmonics?: false
    Max angular momentum: 2

  ==> DFJKGrad: Density-Fitted SCF Gradients <==

    Gradient:                    1
    J tasked:                  Yes
    K tasked:                  Yes
    wK tasked:                  No
    OpenMP threads:              4
    Integrals threads:           4
    Memory (MB):              2002
    Schwarz Cutoff:          0E+00
    Fitting Condition:       1E-12

   => Auxiliary Basis Set <=

  Basis Set: (6-31G* AUX)
    Blend: CC-PVDZ-JKFIT
    Number of shells: 297
    Number of basis function: 954
    Number of Cartesian functions: 954
    Spherical Harmonics?: false
    Max angular momentum: 3

  ==> DFT Potential <==

   => Composite Functional: B3LYP-D3ZERO <= 

    B3LYP-d3zero Hyb-GGA Exchange-Correlation Functional

    P. J. Stephens, F. J. Devlin, C. F. Chabalowski, and M. J. Frisch, J. Phys. Chem. 98, 11623 (1994)

    Deriv               =              1
    GGA                 =           TRUE
    Meta                =          FALSE

    Exchange Hybrid     =           TRUE
    MP2 Hybrid          =          FALSE

   => Exchange Functionals <=

    0.0800   Slater exchange
    0.7200         Becke 88

   => Exact (HF) Exchange <=

    0.2000               HF 

   => Correlation Functionals <=

    0.1900   Vosko, Wilk & Nusair (VWN5_RPA)
    0.8100   Lee, Yang & Parr

   => Molecular Quadrature <=

    Radial Scheme       =       TREUTLER
    Pruning Scheme      =           FLAT
    Nuclear Scheme      =       TREUTLER

    BS radius alpha     =              1
    Pruning alpha       =              1
    Radial Points       =             75
    Spherical Points    =            302
    Total Points        =         396870
    Total Blocks        =           2996
    Max Points          =            256
    Max Functions       =            149


  -Total Gradient:
     Atom            X                  Y                   Z
    ------   -----------------  -----------------  -----------------
       1       -0.006646952781     0.007613923159    -0.000740160440
       2        0.000622386216     0.000185974573    -0.000403492362
       3       -0.000222095920    -0.000034443930     0.000161739389
       4       -0.000014705723    -0.000122976616    -0.000060756038
       5        0.000152892203    -0.000179780985    -0.000119557169
       6       -0.000093306284    -0.000655786571     0.001362782405
       7        0.013122250778    -0.008065918472     0.004094391103
       8        0.000446586233    -0.000189864941    -0.001122263940
       9       -0.000034419781     0.000025168794     0.000132679474
      10        0.000050082273    -0.000065093077     0.000176644435
      11       -0.000014305952    -0.000109440295     0.000170684080
      12        0.000229045583    -0.000323474486     0.000486330742
      13       -0.006831368631    -0.000659136726     0.005754107797
      14       -0.000991137723    -0.000917969920    -0.001678503282
      15       -0.000579664067     0.000204384986    -0.000213386834
      16        0.002289361853     0.003423084326     0.002386259839
      17        0.004510601201    -0.005405148488    -0.000626626692
      18       -0.005983916737     0.005274700044    -0.009776773424


*** tstop() called on green.prib.upf.edu at Sat Sep 29 20:29:03 2018
Module time:
	user time   =      25.67 seconds =       0.43 minutes
	system time =       0.22 seconds =       0.00 minutes
	total time  =          6 seconds =       0.10 minutes
Total time:
	user time   =     233.38 seconds =       3.89 minutes
	system time =       1.44 seconds =       0.02 minutes
	total time  =         63 seconds =       1.05 minutes

			-----------------------------------------
			 OPTKING 2.0: for geometry optimizations 
			  - R.A. King,  Bethel University        
			-----------------------------------------
	At level 1: Red. Int., RFO, no backsteps, dynamic trust

	Previous internal coordinate definitions found.
	---Fragment 1 Geometry and Gradient---
	 C           0.0573569958       -0.0705922368       -0.3277417961
	 C           0.1421964266        2.2508586889        0.9648279829
	 C           0.0868261668        2.2814321448        3.5953215167
	 C          -0.0045569099        0.0141958525        4.9465047045
	 C          -0.0579164919       -2.2985269781        3.6696325596
	 C          -0.0369439971       -2.3509534249        1.0419074561
	 C           0.0608964269       -0.0759590332       -3.1081561722
	 H           0.1375751648        4.0222177705       -0.0734042450
	 H           0.1034618686        4.0750654109        4.5896863301
	 H          -0.0326211730        0.0478534171        6.9979383723
	 H          -0.1009509727       -4.0579711412        4.7228435905
	 H           0.0020473375       -4.1652975208        0.0783290085
	 N          -1.4117758797       -1.6742598443       -4.4027636149
	 N           1.2960160187        1.7400874115       -4.3347390195
	 H           1.2050502010        1.9559151665       -6.2357428557
	 H           2.4188754612        2.9659234865       -3.3725137228
	 H          -2.1048208777       -3.2536070189       -3.5672001562
	 H          -1.7536954332       -1.4527125666       -6.2987688475
	            -0.0066469528        0.0076139232       -0.0007401604
	             0.0006223862        0.0001859746       -0.0004034924
	            -0.0002220959       -0.0000344439        0.0001617394
	            -0.0000147057       -0.0001229766       -0.0000607560
	             0.0001528922       -0.0001797810       -0.0001195572
	            -0.0000933063       -0.0006557866        0.0013627824
	             0.0131222508       -0.0080659185        0.0040943911
	             0.0004465862       -0.0001898649       -0.0011222639
	            -0.0000344198        0.0000251688        0.0001326795
	             0.0000500823       -0.0000650931        0.0001766444
	            -0.0000143060       -0.0001094403        0.0001706841
	             0.0002290456       -0.0003234745        0.0004863307
	            -0.0068313686       -0.0006591367        0.0057541078
	            -0.0009911377       -0.0009179699       -0.0016785033
	            -0.0005796641        0.0002043850       -0.0002133868
	             0.0022893619        0.0034230843        0.0023862598
	             0.0045106012       -0.0054051485       -0.0006266267
	            -0.0059839167        0.0052747000       -0.0097767734

	---Fragment 1 Intrafragment Coordinates---
	 - Coordinate -           - BOHR/RAD -       - ANG/DEG -
	 R(1,2)           =         2.658396	       1.406763
	 R(1,6)           =         2.661744	       1.408534
	 R(1,7)           =         2.780422	       1.471336
	 R(2,3)           =         2.631254	       1.392400
	 R(2,8)           =         2.053207	       1.086511
	 R(3,4)           =         2.640910	       1.397510
	 R(3,9)           =         2.050892	       1.085285
	 R(4,5)           =         2.642335	       1.398264
	 R(4,10)          =         2.051902	       1.085820
	 R(5,6)           =         2.628332	       1.390853
	 R(5,11)          =         2.051036	       1.085362
	 R(6,12)          =         2.054714	       1.087308
	 R(7,13)          =         2.529691	       1.338655
	 R(7,14)          =         2.515562	       1.331178
	 R(13,17)         =         1.916459	       1.014146
	 R(13,18)         =         1.939285	       1.026226
	 R(14,15)         =         1.915378	       1.013574
	 R(14,16)         =         1.920772	       1.016429
	 B(1,2,3)         =         2.089271	     119.706437
	 B(1,2,8)         =         2.103011	     120.493644
	 B(1,6,5)         =         2.091676	     119.844233
	 B(1,6,12)        =         2.111233	     120.964721
	 B(1,7,13)        =         2.108590	     120.813291
	 B(1,7,14)        =         2.079251	     119.132324
	 B(2,1,6)         =         2.093318	     119.938270
	 B(2,1,7)         =         2.080439	     119.200373
	 B(2,3,4)         =         2.096984	     120.148337
	 B(2,3,9)         =         2.088281	     119.649711
	 B(3,2,8)         =         2.089144	     119.699150
	 B(3,4,5)         =         2.100029	     120.322799
	 B(3,4,10)        =         2.091983	     119.861810
	 B(4,3,9)         =         2.097902	     120.200904
	 B(4,5,6)         =         2.094882	     120.027923
	 B(4,5,11)        =         2.097983	     120.205599
	 B(5,4,10)        =         2.091173	     119.815369
	 B(5,6,12)        =         2.079009	     119.118427
	 B(6,1,7)         =         2.109424	     120.861097
	 B(6,5,11)        =         2.090289	     119.764748
	 B(7,13,17)       =         2.103745	     120.535700
	 B(7,13,18)       =         2.130346	     122.059849
	 B(7,14,15)       =         2.143574	     122.817716
	 B(7,14,16)       =         2.098434	     120.231423
	 B(13,7,14)       =         2.085666	     119.499875
	 B(15,14,16)      =         2.040978	     116.939427
	 B(17,13,18)      =         2.045022	     117.171140
	 D(1,2,3,4)       =         0.020975	       1.201794
	 D(1,2,3,9)       =        -3.114132	    -178.426628
	 D(1,6,5,4)       =         0.008335	       0.477552
	 D(1,6,5,11)      =        -3.124926	    -179.045052
	*D(1,7,13,17)     =        -0.349067	     -20.000047
	 D(1,7,13,18)     =         2.892143	     165.707583
	 D(1,7,14,15)     =        -3.016707	    -172.844574
	 D(1,7,14,16)     =         0.147023	       8.423775
	 D(2,1,6,5)       =         0.005301	       0.303738
	 D(2,1,6,12)      =        -3.081728	    -176.570016
	 D(2,1,7,13)      =        -2.433021	    -139.401832
	 D(2,1,7,14)      =         0.558784	      32.015946
	 D(2,3,4,5)       =        -0.007398	      -0.423866
	 D(2,3,4,10)      =         3.133254	     179.522252
	 D(3,2,1,6)       =        -0.019952	      -1.143187
	 D(3,2,1,7)       =         3.118428	     178.672790
	 D(3,4,5,6)       =        -0.007391	      -0.423466
	 D(3,4,5,11)      =         3.125833	     179.097014
	 D(4,3,2,8)       =         3.099192	     177.570608
	 D(4,5,6,12)      =         3.096373	     177.409090
	 D(5,4,3,9)       =         3.127674	     179.202493
	 D(5,6,1,7)       =        -3.133025	    -179.509130
	 D(6,1,2,8)       =        -3.097657	    -177.482660
	 D(6,1,7,13)      =         0.705329	      40.412399
	 D(6,1,7,14)      =        -2.586051	    -148.169824
	 D(6,5,4,10)      =         3.135142	     179.630391
	 D(7,1,2,8)       =         0.040724	       2.333318
	 D(7,1,6,12)      =         0.063131	       3.617116
	 D(8,2,3,9)       =        -0.035916	      -2.057814
	 D(9,3,4,10)      =        -0.014860	      -0.851390
	 D(10,4,5,11)     =        -0.014820	      -0.849129
	 D(11,5,6,12)     =        -0.036888	      -2.113514
	 D(13,7,14,15)    =        -0.022906	      -1.312405
	 D(13,7,14,16)    =         3.140824	     179.955944
	 D(14,7,13,17)    =         2.942859	     168.613382
	 D(14,7,13,18)    =        -0.099117	      -5.678988

	Current energy   :      -381.4650680237

	Energy change for the previous step:
		Projected    :        -0.0075981504
		Actual       :        -0.0037954546

	Performing BFGS update.
	Previous computed or guess Hessian on step 1.
	Steps to be used in Hessian update: 1
	Taking RFO optimization step.
	Going to follow RFO solution 1.
	Using RFO vector 1.
	Norm of target step-size    0.41604
	Projected energy change by RFO approximation:        -0.0054691116

	Back-transformation to cartesian coordinates...
	Could not converge backtransformation.
	Using first guess instead.

	Back-transformation to cartesian coordinates to adjust frozen coordinates...
	Successfully converged to displaced geometry.

	--- Internal Coordinate Step in ANG or DEG, aJ/ANG or AJ/DEG ---
	 ---------------------------------------------------------------------------
	   Coordinate                Previous        Force       Change         New 
	   ----------                --------       ------       ------       ------
	    1 R(1,2)          =      1.406763     0.006276     0.000745     1.407507
	    2 R(1,6)          =      1.408534    -0.015944    -0.001835     1.406699
	    3 R(1,7)          =      1.471336    -0.000603     0.001942     1.473278
	    4 R(2,3)          =      1.392400    -0.003811     0.000138     1.392537
	    5 R(2,8)          =      1.086511    -0.003315    -0.000182     1.086329
	    6 R(3,4)          =      1.397510    -0.002812    -0.000533     1.396977
	    7 R(3,9)          =      1.085285    -0.000713     0.000007     1.085293
	    8 R(4,5)          =      1.398264    -0.000618     0.000048     1.398311
	    9 R(4,10)         =      1.085820    -0.001448    -0.000080     1.085739
	   10 R(5,6)          =      1.390853     0.000003    -0.000032     1.390821
	   11 R(5,11)         =      1.085362    -0.001501    -0.000072     1.085289
	   12 R(6,12)         =      1.087308    -0.000506     0.000413     1.087720
	   13 R(7,13)         =      1.338655    -0.063551    -0.003189     1.335466
	   14 R(7,14)         =      1.331178    -0.017011    -0.000289     1.330888
	   15 R(13,17)        =      1.014146    -0.021017    -0.001743     1.012403
	   16 R(13,18)        =      1.026226    -0.092400     0.020936     1.047162
	   17 R(14,15)        =      1.013574    -0.002157     0.000639     1.014213
	   18 R(14,16)        =      1.016429    -0.038868    -0.003194     1.013235
	   19 B(1,2,3)        =    119.706437    -0.000007    -0.000615   119.705823
	   20 B(1,2,8)        =    120.493644     0.000086     0.378296   120.871940
	   21 B(1,6,5)        =    119.844233     0.000014     0.109638   119.953870
	   22 B(1,6,12)       =    120.964721    -0.000052    -0.049376   120.915345
	   23 B(1,7,13)       =    120.813291    -0.000315    -0.435915   120.377376
	   24 B(1,7,14)       =    119.132324     0.000321     0.763513   119.895837
	   25 B(2,1,6)        =    119.938270     0.000004    -0.079100   119.859170
	   26 B(2,1,7)        =    119.200373     0.000260     0.492155   119.692528
	   27 B(2,3,4)        =    120.148337    -0.000001     0.052800   120.201137
	   28 B(2,3,9)        =    119.649711    -0.000008    -0.079620   119.570090
	   29 B(3,2,8)        =    119.699150    -0.000079    -0.401084   119.298066
	   30 B(3,4,5)        =    120.322799    -0.000012    -0.072517   120.250282
	   31 B(3,4,10)       =    119.861810     0.000001     0.021191   119.883001
	   32 B(4,3,9)        =    120.200904     0.000009     0.024979   120.225883
	   33 B(4,5,6)        =    120.027923     0.000002    -0.004935   120.022988
	   34 B(4,5,11)       =    120.205599     0.000006     0.027257   120.232856
	   35 B(5,4,10)       =    119.815369     0.000011     0.050865   119.866234
	   36 B(5,6,12)       =    119.118427     0.000038    -0.049434   119.068993
	   37 B(6,1,7)        =    120.861097    -0.000264    -0.427103   120.433994
	   38 B(6,5,11)       =    119.764748    -0.000008    -0.021953   119.742795
	   39 B(7,13,17)      =    120.535700    -0.000037    -0.332084   120.203615
	   40 B(7,13,18)      =    122.059849     0.000070    -1.609555   120.450294
	   41 B(7,14,15)      =    122.817716     0.000023     0.100388   122.918104
	   42 B(7,14,16)      =    120.231423    -0.000017     0.055175   120.286598
	   43 B(13,7,14)      =    119.499875     0.000014    -0.027290   119.472584
	   44 B(15,14,16)     =    116.939427    -0.000007    -0.187014   116.752412
	   45 B(17,13,18)     =    117.171140    -0.000069    -1.550831   115.620309
	   46 D(1,2,3,4)      =      1.201794    -0.000003    -0.268583     0.933211
	   47 D(1,2,3,9)      =   -178.426628    -0.000001    -0.023189  -178.449817
	   48 D(1,6,5,4)      =      0.477552    -0.000000     0.055494     0.533047
	   49 D(1,6,5,11)     =   -179.045052     0.000000     0.001482  -179.043570
	   50 *D(1,7,13,17)   =    -20.000047     0.000000     0.000000   -20.000047
	   51 D(1,7,13,18)    =    165.707583     0.000102    16.985678   182.693261
	   52 D(1,7,14,15)    =   -172.844574    -0.000022    -3.561811  -176.406385
	   53 D(1,7,14,16)    =      8.423775    -0.000005    -2.369740     6.054035
	   54 D(2,1,6,5)      =      0.303738    -0.000003    -0.444859    -0.141121
	   55 D(2,1,6,12)     =   -176.570016    -0.000005    -0.685770  -177.255787
	   56 D(2,1,7,13)     =   -139.401832    -0.000008     0.842928  -138.558903
	   57 D(2,1,7,14)     =     32.015946     0.000027     3.603297    35.619243
	   58 D(2,3,4,5)      =     -0.423866    -0.000000    -0.121213    -0.545079
	   59 D(2,3,4,10)     =    179.522252     0.000002     0.185883   179.708135
	   60 D(3,2,1,6)      =     -1.143187     0.000005     0.551379    -0.591809
	   61 D(3,2,1,7)      =    178.672790    -0.000002    -0.634408   178.038383
	   62 D(3,4,5,6)      =     -0.423466     0.000002     0.229132    -0.194334
	   63 D(3,4,5,11)     =    179.097014     0.000002     0.283174   179.380188
	   64 D(4,3,2,8)      =    177.570608    -0.000004    -0.652289   176.918319
	   65 D(4,5,6,12)     =    177.409090     0.000001     0.291842   177.700932
	   66 D(5,4,3,9)      =    179.202493    -0.000002    -0.368618   178.833875
	   67 D(5,6,1,7)      =   -179.509130     0.000003     0.748119  -178.761011
	   68 D(6,1,2,8)      =   -177.482660     0.000007     0.970260  -176.512400
	   69 D(6,1,7,13)     =     40.412399    -0.000014    -0.349117    40.063282
	   70 D(6,1,7,14)     =   -148.169824     0.000020     2.411252  -145.758572
	   71 D(6,5,4,10)     =    179.630391    -0.000000    -0.077897   179.552495
	   72 D(7,1,2,8)      =      2.333318     0.000001    -0.215527     2.117791
	   73 D(7,1,6,12)     =      3.617116     0.000001     0.507208     4.124323
	   74 D(8,2,3,9)      =     -2.057814    -0.000002    -0.406895    -2.464709
	   75 D(9,3,4,10)     =     -0.851390    -0.000000    -0.061522    -0.912911
	   76 D(10,4,5,11)    =     -0.849129    -0.000000    -0.023855    -0.872984
	   77 D(11,5,6,12)    =     -2.113514     0.000002     0.237829    -1.875685
	   78 D(13,7,14,15)   =     -1.312405     0.000006    -0.862973    -2.175379
	   79 D(13,7,14,16)   =    179.955944     0.000023     0.329098   180.285042
	   80 D(14,7,13,17)   =    168.613382    -0.000041    -2.816123   165.797259
	   81 D(14,7,13,18)   =     -5.678988     0.000061    14.169555     8.490566
	 ---------------------------------------------------------------------------
	Successfully symmetrized geometry.

  ==> Convergence Check <==

  Measures of convergence in internal coordinates in au.
  Criteria marked as inactive (o), active & met (*), and active & unmet ( ).
  ---------------------------------------------------------------------------------------------
   Step     Total Energy     Delta E     MAX Force     RMS Force      MAX Disp      RMS Disp   
  ---------------------------------------------------------------------------------------------
    Convergence Criteria    1.00e-06 *    3.00e-04 *             o    1.20e-03 *             o
  ---------------------------------------------------------------------------------------------
      2    -381.46506802   -3.80e-03      1.12e-02      2.07e-03 o    2.96e-01      4.56e-02 o  ~
  ---------------------------------------------------------------------------------------------

	Writing optimization data to binary file.
	Structure for next step:
	Cartesian Geometry (in Angstrom)
	    C     0.0217042797  -0.0121692667  -0.1702298142
	    C     0.0648604013   1.2079118443   0.5302099494
	    C     0.0484205926   1.2051791388   1.9226476965
	    C     0.0090240315  -0.0031538523   2.6225925160
	    C    -0.0256556920  -1.2175139955   1.9302046434
	    C    -0.0251012055  -1.2258516893   0.5394086439
	    C    -0.0046784921  -0.0074665009  -1.6432643348
	    H     0.0445945302   2.1559536425   0.0001950035
	    H     0.0562510027   2.1479559904   2.4602075152
	    H     0.0011551065   0.0006123066   3.7082967691
	    H    -0.0461186656  -2.1563664011   2.4742545012
	    H    -0.0141977961  -2.1796484952   0.0166389540
	    N    -0.8006081683  -0.8496231329  -2.3071453111
	    N     0.6786141735   0.9154548041  -2.3160134500
	    H     0.6506448760   0.9941792762  -3.3267797304
	    H     1.2893886367   1.5578951784  -1.8252284633
	    H    -1.1550668919  -1.6813749243  -1.8516151785
	    H    -0.7895157191  -0.8764909230  -3.3539039100
			--------------------------
			 OPTKING Finished Execution 
			--------------------------

    Structure for next step:
    Molecular point group: c1
    Full point group: C1

    Geometry (in Angstrom), charge = 1, multiplicity = 1:

    C            0.021704279721    -0.012169266675    -0.170229814204
    C            0.064860401280     1.207911844292     0.530209949396
    C            0.048420592569     1.205179138778     1.922647696504
    C            0.009024031538    -0.003153852299     2.622592516024
    C           -0.025655691951    -1.217513995505     1.930204643360
    C           -0.025101205539    -1.225851689294     0.539408643878
    C           -0.004678492069    -0.007466500926    -1.643264334831
    H            0.044594530207     2.155953642481     0.000195003524
    H            0.056251002668     2.147955990385     2.460207515227
    H            0.001155106469     0.000612306551     3.708296769123
    H           -0.046118665601    -2.156366401149     2.474254501175
    H           -0.014197796132    -2.179648495154     0.016638954002
    N           -0.800608168306    -0.849623132859    -2.307145311099
    N            0.678614173493     0.915454804115    -2.316013450004
    H            0.650644875984     0.994179276207    -3.326779730357
    H            1.289388636721     1.557895178365    -1.825228463275
    H           -1.155066891907    -1.681374924330    -1.851615178477
    H           -0.789515719144    -0.876490922982    -3.353903909967

gradient() will perform analytic gradient computation.

*** tstart() called on green.prib.upf.edu
*** at Sat Sep 29 20:29:03 2018

   => Loading Basis Set <=

    Name: 6-31G*
    Role: ORBITAL
    Keyword: BASIS
    atoms 1-7         entry C          line   111 file /shared/joao/test_parameterize/miniconda3/share/psi4/basis/6-31gs.gbs 
    atoms 8-12, 15-18 entry H          line    44 file /shared/joao/test_parameterize/miniconda3/share/psi4/basis/6-31gs.gbs 
    atoms 13-14       entry N          line   128 file /shared/joao/test_parameterize/miniconda3/share/psi4/basis/6-31gs.gbs 


         ---------------------------------------------------------
                                   SCF
            by Justin Turney, Rob Parrish, Andy Simmonett
                             and Daniel Smith
[...]
	            -0.0000011761        0.0000022556       -0.0000001030
	            -0.0000033976        0.0000021763       -0.0000077600
	             0.0000019974       -0.0000017037       -0.0000028302
	             0.0000010393       -0.0000021571       -0.0000035592
	             0.0000064316       -0.0000041416        0.0000111726
	            -0.0096847473        0.0070902070        0.0029935059
	             0.0000029629       -0.0000208428        0.0000139750
	             0.0000136582       -0.0000104501        0.0000045143
	             0.0000067356       -0.0000238149       -0.0000115085
	             0.0056769897       -0.0038097682       -0.0021807796
	            -0.0000047705       -0.0000133666       -0.0000129029

	---Fragment 1 Intrafragment Coordinates---
	 - Coordinate -           - BOHR/RAD -       - ANG/DEG -
	 R(1,2)           =         2.658628	       1.406886
	 R(1,6)           =         2.658398	       1.406764
	 R(1,7)           =         2.776893	       1.469468
	 R(2,3)           =         2.630057	       1.391766
	 R(2,8)           =         2.052784	       1.086287
	 R(3,4)           =         2.641443	       1.397792
	 R(3,9)           =         2.050650	       1.085157
	 R(4,5)           =         2.642083	       1.398130
	 R(4,10)          =         2.051470	       1.085591
	 R(5,6)           =         2.628986	       1.391200
	 R(5,11)          =         2.050557	       1.085108
	 R(6,12)          =         2.054428	       1.087157
	 R(7,13)          =         2.521164	       1.334143
	 R(7,14)          =         2.510533	       1.328517
	 R(13,17)         =         1.913709	       1.012691
	 R(13,18)         =         1.917918	       1.014919
	 R(14,15)         =         1.915281	       1.013523
	 R(14,16)         =         1.911528	       1.011537
	 B(1,2,3)         =         2.088082	     119.638287
	 B(1,2,8)         =         2.105442	     120.632946
	 B(1,6,5)         =         2.090730	     119.790011
	 B(1,6,12)        =         2.108169	     120.789168
	 B(1,7,13)        =         2.094326	     119.996033
	 B(1,7,14)        =         2.089056	     119.694120
	 B(2,1,6)         =         2.095774	     120.079033
	 B(2,1,7)         =         2.090748	     119.791063
	 B(2,3,4)         =         2.096611	     120.126964
	 B(2,3,9)         =         2.088197	     119.644866
	 B(3,2,8)         =         2.088094	     119.638949
	 B(3,4,5)         =         2.100738	     120.363395
	 B(3,4,10)        =         2.091367	     119.826474
	 B(4,3,9)         =         2.098333	     120.225623
	 B(4,5,6)         =         2.094352	     119.997513
	 B(4,5,11)        =         2.098720	     120.247824
	 B(5,4,10)        =         2.091081	     119.810110
	 B(5,6,12)        =         2.083066	     119.350881
	 B(6,1,7)         =         2.096652	     120.129313
	 B(6,5,11)        =         2.090077	     119.752582
	 B(7,13,17)       =         2.077612	     119.038393
	 B(7,13,18)       =         2.109889	     120.887718
	 B(7,14,15)       =         2.147280	     123.030108
	 B(7,14,16)       =         2.093158	     119.929122
	 B(13,7,14)       =         2.094412	     120.000974
	 B(15,14,16)      =         2.042459	     117.024308
	 B(17,13,18)      =         2.002226	     114.719085
	 D(1,2,3,4)       =         0.013152	       0.753580
	 D(1,2,3,9)       =        -3.118331	    -178.667219
	 D(1,6,5,4)       =         0.008188	       0.469119
	 D(1,6,5,11)      =        -3.124270	    -179.007479
	*D(1,7,13,17)     =        -0.349067	     -20.000047
	 D(1,7,13,18)     =        -3.015999	    -172.804039
	 D(1,7,14,15)     =        -3.015841	    -172.794989
	 D(1,7,14,16)     =         0.152294	       8.725807
	 D(2,1,6,5)       =        -0.000723	      -0.041406
	 D(2,1,6,12)      =        -3.088893	    -176.980510
	 D(2,1,7,13)      =        -2.399287	    -137.468995
	 D(2,1,7,14)      =         0.630931	      36.149687
	 D(2,3,4,5)       =        -0.005745	      -0.329180
	 D(2,3,4,10)      =         3.136749	     179.722494
	 D(3,2,1,6)       =        -0.009957	      -0.570484
	 D(3,2,1,7)       =         3.126762	     179.150247
	 D(3,4,5,6)       =        -0.005032	      -0.288293
	 D(3,4,5,11)      =         3.127380	     179.185685
	 D(4,3,2,8)       =         3.094992	     177.329970
	 D(4,5,6,12)      =         3.097129	     177.452432
	 D(5,4,3,9)       =         3.125679	     179.088229
	 D(5,6,1,7)       =        -3.137425	    -179.761185
	 D(6,1,2,8)       =        -3.091191	    -177.112177
	 D(6,1,7,13)      =         0.737429	      42.251593
	 D(6,1,7,14)      =        -2.515538	    -144.129724
	 D(6,5,4,10)      =         3.135659	     179.660041
	 D(7,1,2,8)       =         0.045528	       2.608554
	 D(7,1,6,12)      =         0.057591	       3.299712
	 D(8,2,3,9)       =        -0.036492	      -2.090829
	 D(9,3,4,10)      =        -0.015012	      -0.860097
	 D(10,4,5,11)     =        -0.015114	      -0.865980
	 D(11,5,6,12)     =        -0.035328	      -2.024165
	 D(13,7,14,15)    =         0.014371	       0.823374
	 D(13,7,14,16)    =        -3.100679	    -177.655830
	 D(14,7,13,17)    =         2.904245	     166.400993
	 D(14,7,13,18)    =         0.237312	      13.597001

	Current energy   :      -381.4673727008

	Energy change for the previous step:
		Projected    :        -0.0000029952
		Actual       :        -0.0000006523
	Energy ratio indicates iffy step: Trust radius decreased to 7.812e-03.


	Performing BFGS update.
	Previous computed or guess Hessian on step 1.
	Steps to be used in Hessian update: 6 5
	Taking RFO optimization step.
	Going to follow RFO solution 1.
	Rejecting RFO root 1 because normalization gives large value.
	Using RFO vector 2.
	Norm of target step-size    0.00193
	Projected energy change by RFO approximation:        -0.0000000692

	Back-transformation to cartesian coordinates...
	Successfully converged to displaced geometry.

	Back-transformation to cartesian coordinates to adjust frozen coordinates...
	Successfully converged to displaced geometry.

	--- Internal Coordinate Step in ANG or DEG, aJ/ANG or AJ/DEG ---
	 ---------------------------------------------------------------------------
	   Coordinate                Previous        Force       Change         New 
	   ----------                --------       ------       ------       ------
	    1 R(1,2)          =      1.406886     0.000235     0.000043     1.406928
	    2 R(1,6)          =      1.406764    -0.000152    -0.000016     1.406748
	    3 R(1,7)          =      1.469468    -0.000079    -0.000008     1.469461
	    4 R(2,3)          =      1.391766    -0.000012    -0.000004     1.391763
	    5 R(2,8)          =      1.086287    -0.000014    -0.000007     1.086280
	    6 R(3,4)          =      1.397792    -0.000034    -0.000006     1.397786
	    7 R(3,9)          =      1.085157     0.000009     0.000001     1.085158
	    8 R(4,5)          =      1.398130     0.000059     0.000006     1.398136
	    9 R(4,10)         =      1.085591     0.000013     0.000003     1.085594
	   10 R(5,6)          =      1.391200    -0.000019    -0.000005     1.391195
	   11 R(5,11)         =      1.085108    -0.000003    -0.000001     1.085107
	   12 R(6,12)         =      1.087157     0.000022     0.000002     1.087159
	   13 R(7,13)         =      1.334143    -0.000045     0.000000     1.334143
	   14 R(7,14)         =      1.328517     0.000235     0.000030     1.328547
	   15 R(13,17)        =      1.012691    -0.000024    -0.000003     1.012688
	   16 R(13,18)        =      1.014919    -0.000103    -0.000015     1.014904
	   17 R(14,15)        =      1.013523     0.000064     0.000005     1.013528
	   18 R(14,16)        =      1.011537     0.000116     0.000013     1.011551
	   19 B(1,2,3)        =    119.638287    -0.000000    -0.000795   119.637492
	   20 B(1,2,8)        =    120.632946    -0.000000    -0.002241   120.630705
	   21 B(1,6,5)        =    119.790011    -0.000000    -0.001124   119.788888
	   22 B(1,6,12)       =    120.789168    -0.000001    -0.004289   120.784879
	   23 B(1,7,13)       =    119.996033    -0.000001    -0.001944   119.994088
	   24 B(1,7,14)       =    119.694120     0.000001     0.003138   119.697258
	   25 B(2,1,6)        =    120.079033     0.000000     0.001316   120.080349
	   26 B(2,1,7)        =    119.791063    -0.000000    -0.000957   119.790107
	   27 B(2,3,4)        =    120.126964    -0.000000    -0.001316   120.125648
	   28 B(2,3,9)        =    119.644866     0.000001     0.003712   119.648579
	   29 B(3,2,8)        =    119.638949     0.000000     0.003235   119.642184
	   30 B(3,4,5)        =    120.363395     0.000000     0.001908   120.365303
	   31 B(3,4,10)       =    119.826474    -0.000000    -0.001886   119.824589
	   32 B(4,3,9)        =    120.225623    -0.000000    -0.002424   120.223199
	   33 B(4,5,6)        =    119.997513     0.000000     0.000120   119.997633
	   34 B(4,5,11)       =    120.247824    -0.000000    -0.001869   120.245955
	   35 B(5,4,10)       =    119.810110    -0.000000    -0.000030   119.810080
	   36 B(5,6,12)       =    119.350881     0.000001     0.005794   119.356675
	   37 B(6,1,7)        =    120.129313    -0.000000    -0.000485   120.128828
	   38 B(6,5,11)       =    119.752582     0.000000     0.001775   119.754357
	   39 B(7,13,17)      =    119.038393     0.000001     0.002164   119.040557
	   40 B(7,13,18)      =    120.887718    -0.000001    -0.006855   120.880862
	   41 B(7,14,15)      =    123.030108    -0.000000    -0.000456   123.029652
	   42 B(7,14,16)      =    119.929122     0.000000     0.000611   119.929733
	   43 B(13,7,14)      =    120.000974     0.000000    -0.001237   119.999737
	   44 B(15,14,16)     =    117.024308     0.000000     0.001825   117.026133
	   45 B(17,13,18)     =    114.719085     0.000001     0.003911   114.722995
	   46 D(1,2,3,4)      =      0.753580    -0.000000    -0.009221     0.744359
	   47 D(1,2,3,9)      =   -178.667219    -0.000000    -0.006101  -178.673320
	   48 D(1,6,5,4)      =      0.469119     0.000000     0.001347     0.470466
	   49 D(1,6,5,11)     =   -179.007479    -0.000000    -0.001851  -179.009330
	   50 *D(1,7,13,17)   =    -20.000047     0.000000    -0.000000   -20.000047
	   51 D(1,7,13,18)    =   -172.804039    -0.000000     0.000778  -172.803261
	   52 D(1,7,14,15)    =   -172.794989     0.000001     0.047503  -172.747486
	   53 D(1,7,14,16)    =      8.725807     0.000000    -0.046886     8.678920
	   54 D(2,1,6,5)      =     -0.041406    -0.000000    -0.012337    -0.053743
	   55 D(2,1,6,12)     =   -176.980510    -0.000000    -0.020867  -177.001377
	   56 D(2,1,7,13)     =   -137.468995     0.000000     0.015003  -137.453992
	   57 D(2,1,7,14)     =     36.149687    -0.000000     0.014481    36.164168
	   58 D(2,3,4,5)      =     -0.329180     0.000000    -0.001760    -0.330940
	   59 D(2,3,4,10)     =    179.722494     0.000000     0.007176   179.729670
	   60 D(3,2,1,6)      =     -0.570484     0.000000     0.016255    -0.554229
	   61 D(3,2,1,7)      =    179.150247    -0.000000    -0.012030   179.138217
	   62 D(3,4,5,6)      =     -0.288293     0.000000     0.005723    -0.282570
	   63 D(3,4,5,11)     =    179.185685     0.000000     0.008957   179.194642
	   64 D(4,3,2,8)      =    177.329970    -0.000000    -0.005511   177.324459
	   65 D(4,5,6,12)     =    177.452432     0.000000     0.009448   177.461880
	   66 D(5,4,3,9)      =    179.088229    -0.000000    -0.004863   179.083366
	   67 D(5,6,1,7)      =   -179.761185     0.000000     0.016046  -179.745139
	   68 D(6,1,2,8)      =   -177.112177     0.000000     0.012316  -177.099861
	   69 D(6,1,7,13)     =     42.251593     0.000000    -0.013291    42.238302
	   70 D(6,1,7,14)     =   -144.129724    -0.000000    -0.013813  -144.143538
	   71 D(6,5,4,10)     =    179.660041    -0.000000    -0.003213   179.656828
	   72 D(7,1,2,8)      =      2.608554    -0.000000    -0.015969     2.592585
	   73 D(7,1,6,12)     =      3.299712     0.000000     0.007516     3.307228
	   74 D(8,2,3,9)      =     -2.090829    -0.000000    -0.002391    -2.093220
	   75 D(9,3,4,10)     =     -0.860097     0.000000     0.004074    -0.856023
	   76 D(10,4,5,11)    =     -0.865980     0.000000     0.000021    -0.865959
	   77 D(11,5,6,12)    =     -2.024165     0.000000     0.006249    -2.017916
	   78 D(13,7,14,15)   =      0.823374    -0.000000     0.046935     0.870309
	   79 D(13,7,14,16)   =   -177.655830    -0.000001    -0.047454  -177.703284
	   80 D(14,7,13,17)   =    166.400993     0.000001     0.000243   166.401236
	   81 D(14,7,13,18)   =     13.597001     0.000000     0.001021    13.598022
	 ---------------------------------------------------------------------------
	Successfully symmetrized geometry.

  ==> Convergence Check <==

  Measures of convergence in internal coordinates in au.
  Criteria marked as inactive (o), active & met (*), and active & unmet ( ).
  ---------------------------------------------------------------------------------------------
   Step     Total Energy     Delta E     MAX Force     RMS Force      MAX Disp      RMS Disp   
  ---------------------------------------------------------------------------------------------
    Convergence Criteria    1.00e-06 *    3.00e-04 *             o    1.20e-03 *             o
  ---------------------------------------------------------------------------------------------
      7    -381.46737270   -6.52e-07 *    4.04e-05 *    1.17e-05 o    8.29e-04 *    2.14e-04 o  ~
  ---------------------------------------------------------------------------------------------


  **** Optimization is complete! (in 7 steps) ****

  ==> Optimization Summary <==

  Measures of convergence in internal coordinates in au.
  --------------------------------------------------------------------------------------------------------------- ~
   Step         Total Energy             Delta E       MAX Force       RMS Force        MAX Disp        RMS Disp  ~
  --------------------------------------------------------------------------------------------------------------- ~
      1    -381.461272569067   -381.461272569067      0.00921731      0.00194925      0.32836496      0.05486988  ~
      2    -381.465068023655     -0.003795454588      0.01121534      0.00207065      0.29645600      0.04558428  ~
      3    -381.466277932812     -0.001209909157      0.02575579      0.00297981      0.07388613      0.01398142  ~
      4    -381.467297269568     -0.001019336756      0.00517728      0.00061662      0.02685959      0.00784780  ~
      5    -381.467365793531     -0.000068523963      0.00150531      0.00021720      0.00601154      0.00206732  ~
      6    -381.467372048459     -0.000006254927      0.00026654      0.00005881      0.00314162      0.00083768  ~
      7    -381.467372700771     -0.000000652312      0.00004037      0.00001165      0.00082908      0.00021400  ~
  --------------------------------------------------------------------------------------------------------------- ~

	Writing optimization data to binary file.
	Final energy is   -381.4673727007706
	Final (previous) structure:
	Cartesian Geometry (in Angstrom)
	    C     0.0061072967  -0.0070718185  -0.1756872309
	    C     0.0454897722   1.2122800625   0.5249959301
	    C     0.0398328498   1.2068298938   1.9167400616
	    C     0.0111432668  -0.0046030477   2.6134671141
	    C    -0.0189909207  -1.2182149289   1.9199213866
	    C    -0.0265956096  -1.2243122920   0.5287558095
	    C    -0.0069594831  -0.0046499332  -1.6450956167
	    H     0.0238576551   2.1582322379  -0.0086005398
	    H     0.0482748804   2.1477794366   2.4572110120
	    H     0.0114128287  -0.0032651901   3.6990573704
	    H    -0.0279151824  -2.1578360773   2.4625926925
	    H    -0.0079714560  -2.1739974584  -0.0000737675
	    N    -0.8167710964  -0.8334915434  -2.3062790651
	    N     0.6930003975   0.9094842330  -2.3079470563
	    H     0.6378464638   1.0256128286  -3.3132832231
	    H     1.3333278461   1.5137673693  -1.8099207609
	    H    -1.1806196198  -1.6495165301  -1.8295602158
	    H    -0.7607548893  -0.9215442421  -3.3158179006
	Saving final (previous) structure.
	Removing binary optimization data file.
			--------------------------
			 OPTKING Finished Execution 
			--------------------------

    Final optimized geometry and variables:
    Molecular point group: c1
    Full point group: C1

    Geometry (in Angstrom), charge = 1, multiplicity = 1:

    C            0.006107296683    -0.007071818457    -0.175687230922
    C            0.045489772249     1.212280062455     0.524995930096
    C            0.039832849825     1.206829893758     1.916740061644
    C            0.011143266778    -0.004603047674     2.613467114089
    C           -0.018990920661    -1.218214928871     1.919921386618
    C           -0.026595609642    -1.224312291964     0.528755809477
    C           -0.006959483067    -0.004649933181    -1.645095616696
    H            0.023857655075     2.158232237890    -0.008600539825
    H            0.048274880379     2.147779436596     2.457211012036
    H            0.011412828745    -0.003265190129     3.699057370398
    H           -0.027915182380    -2.157836077286     2.462592692491
    H           -0.007971455962    -2.173997458391    -0.000073767517
    N           -0.816771096389    -0.833491543422    -2.306279065100
    N            0.693000397515     0.909484232991    -2.307947056316
    H            0.637846463804     1.025612828573    -3.313283223114
    H            1.333327846073     1.513767369288    -1.809920760923
    H           -1.180619619771    -1.649516530063    -1.829560215794
    H           -0.760754889257    -0.921544242113    -3.315817900640

	Removing binary optimization data file.
	Cleaning optimization helper files.


Properties will be evaluated at   0.000000,   0.000000,   0.000000 [a0]
OEProp: No title given, name of density matrix used for the following properties is 'SCF density'
  Nuclear Dipole Moment: [e a0]
     X:    -0.9236      Y:     0.4398      Z:     0.2657

  Electronic Dipole Moment: [e a0]
     X:     1.0797      Y:    -0.5055      Z:    -2.5173

  Dipole Moment: [e a0]
     X:     0.1561      Y:    -0.0657      Z:    -2.2516     Total:     2.2579

  Dipole Moment: [D]
     X:     0.3967      Y:    -0.1670      Z:    -5.7229     Total:     5.7391

  Quadrupole Moment: [D A]
    XX:   -50.9870     YY:   -36.6804     ZZ:   -13.2338
    XY:     6.1060     XZ:    -0.4933     YZ:     0.1440

  Traceless Quadrupole Moment: [D A]
    XX:   -17.3533     YY:    -3.0466     ZZ:    20.3999
    XY:     6.1060     XZ:    -0.4933     YZ:     0.1440

  Mulliken Charges: (a.u.)
   Center  Symbol    Alpha    Beta     Spin     Total
       1     C     2.94756  2.94756  0.00000  0.10487
       2     C     3.08178  3.08178  0.00000 -0.16356
       3     C     3.06225  3.06225  0.00000 -0.12451
       4     C     3.05165  3.05165  0.00000 -0.10330
       5     C     3.06232  3.06232  0.00000 -0.12464
       6     C     3.08496  3.08496  0.00000 -0.16991
       7     C     2.73463  2.73463  0.00000  0.53073
       8     H     0.41446  0.41446  0.00000  0.17108
       9     H     0.40526  0.40526  0.00000  0.18948
      10     H     0.40383  0.40383  0.00000  0.19234
      11     H     0.40538  0.40538  0.00000  0.18924
      12     H     0.41731  0.41731  0.00000  0.16538
      13     N     3.85329  3.85329  0.00000 -0.70657
      14     N     3.86196  3.86196  0.00000 -0.72391
      15     H     0.30495  0.30495  0.00000  0.39011
      16     H     0.29902  0.29902  0.00000  0.40195
      17     H     0.30096  0.30096  0.00000  0.39808
      18     H     0.30843  0.30843  0.00000  0.38314

   Total alpha = 32.00000, Total beta = 32.00000, Total charge =  1.00000


    Psi4 stopped on: Saturday, 29 September 2018 08:31PM
    Psi4 wall time for execution: 0:03:16.45

*** Psi4 exiting successfully. Buy a developer a beer!
