
    -----------------------------------------------------------------------
          Psi4: An Open-Source Ab Initio Electronic Structure Package
                               Psi4 1.2.1 release

                         Git: Rev {HEAD} 406f4de 


    R. M. Parrish, L. A. Burns, D. G. A. Smith, A. C. Simmonett,
    A. E. DePrince III, E. G. Hohenstein, U. Bozkaya, A. Yu. Sokolov,
    R. Di Remigio, R. M. Richard, J. F. Gonthier, A. M. James,
    H. R. McAlexander, A. Kumar, M. Saitow, X. Wang, B. P. Pritchard,
    P. Verma, H. F. Schaefer III, K. Patkowski, R. A. King, E. F. Valeev,
    F. A. Evangelista, J. M. Turney, T. D. Crawford, and C. D. Sherrill,
    J. Chem. Theory Comput. 13(7) pp 3185--3197 (2017).
    (doi: 10.1021/acs.jctc.7b00174)


                         Additional Contributions by
    P. Kraus, H. Kruse, M. H. Lechner, M. C. Schieber, and R. A. Shaw

    -----------------------------------------------------------------------


    Psi4 started on: Saturday, 29 September 2018 08:32PM

    Process ID: 2431
    Host:       rosa.prib.upf.edu
    PSIDATADIR: /shared/joao/test_parameterize/miniconda3/share/psi4
    Memory:     500.0 MiB
    Threads:    1
    
  ==> Input File <==

--------------------------------------------------------------------------
set_num_threads(4)
set_memory('3000 MB')

set { scf_mem_safety_factor 0.7 }

set { reference rks }
set { basis 6-31G* }

molecule MOL {
    1 1
    noreorient
    nocom
    symmetry c1
    C   -0.000000  -0.000000  -0.177864
    C    0.036678   1.219374   0.524165
    C    0.031765   1.213120   1.915444
    C    0.000000   0.000000   2.610107
    C   -0.031765  -1.213120   1.915444
    C   -0.036678  -1.219375   0.524165
    C   -0.000000   0.000000  -1.644734
    H    0.018170   2.164705  -0.010854
    H    0.042402   2.152895   2.457886
    H    0.000000   0.000000   3.695756
    H   -0.042402  -2.152895   2.457886
    H   -0.018170  -2.164705  -0.010853
    N   -0.712590  -0.905950  -2.308461
    N    0.712590   0.905950  -2.308460
    H    0.673432   1.006470  -3.315997
    H    1.377190   1.485970  -1.813316
    H   -1.708506  -0.775023  -2.428011
    H   -0.294214  -1.706532  -2.767586
}

set optking { frozen_dihedral = (" 1 7 13 17 ") }

set optking { dynamic_level = 1 
 geom_maxiter = 250
 print_trajectory_xyz_file = True }

energy, wfn = optimize('B3LYP-D3', return_wfn=True)

import os
os.chdir(os.environ['HTMD_PSI4_WORKDIR'])

oeprop(wfn, 'DIPOLE', 'QUADRUPOLE', 'MULLIKEN_CHARGES')

with open('psi4out.xyz', 'w') as f:
    f.write('18 ' )
    f.write('%.12f\n' % energy)
    f.write(MOL.save_string_xyz())
--------------------------------------------------------------------------
  Threads set to 4 by Python driver.

  Memory set to   2.794 GiB by Python driver.
gradient() will perform analytic gradient computation.

*** tstart() called on rosa.prib.upf.edu
*** at Sat Sep 29 20:32:26 2018

   => Loading Basis Set <=

    Name: 6-31G*
    Role: ORBITAL
    Keyword: BASIS
    atoms 1-7         entry C          line   111 file /shared/joao/test_parameterize/miniconda3/share/psi4/basis/6-31gs.gbs 
    atoms 8-12, 15-18 entry H          line    44 file /shared/joao/test_parameterize/miniconda3/share/psi4/basis/6-31gs.gbs 
    atoms 13-14       entry N          line   128 file /shared/joao/test_parameterize/miniconda3/share/psi4/basis/6-31gs.gbs 


         ---------------------------------------------------------
                                   SCF
            by Justin Turney, Rob Parrish, Andy Simmonett
                             and Daniel Smith
                              RKS Reference
                        4 Threads,   2861 MiB Core
         ---------------------------------------------------------

  ==> Geometry <==

    Molecular point group: c1
    Full point group: C1

    Geometry (in Angstrom), charge = 1, multiplicity = 1:

       Center              X                  Y                   Z               Mass       
    ------------   -----------------  -----------------  -----------------  -----------------
         C            0.000000000000     0.000000000000    -0.177864000000    12.000000000000
         C            0.036678000000     1.219374000000     0.524165000000    12.000000000000
         C            0.031765000000     1.213120000000     1.915444000000    12.000000000000
         C            0.000000000000     0.000000000000     2.610107000000    12.000000000000
         C           -0.031765000000    -1.213120000000     1.915444000000    12.000000000000
         C           -0.036678000000    -1.219375000000     0.524165000000    12.000000000000
         C            0.000000000000     0.000000000000    -1.644734000000    12.000000000000
         H            0.018170000000     2.164705000000    -0.010854000000     1.007825032070
         H            0.042402000000     2.152895000000     2.457886000000     1.007825032070
         H            0.000000000000     0.000000000000     3.695756000000     1.007825032070
         H           -0.042402000000    -2.152895000000     2.457886000000     1.007825032070
         H           -0.018170000000    -2.164705000000    -0.010853000000     1.007825032070
         N           -0.712590000000    -0.905950000000    -2.308461000000    14.003074004780
         N            0.712590000000     0.905950000000    -2.308460000000    14.003074004780
         H            0.673432000000     1.006470000000    -3.315997000000     1.007825032070
         H            1.377190000000     1.485970000000    -1.813316000000     1.007825032070
         H           -1.708506000000    -0.775023000000    -2.428011000000     1.007825032070
         H           -0.294214000000    -1.706532000000    -2.767586000000     1.007825032070

  Running in c1 symmetry.

  Rotational constants: A =      0.12107  B =      0.03954  C =      0.03134 [cm^-1]
  Rotational constants: A =   3629.46780  B =   1185.52662  C =    939.49589 [MHz]
  Nuclear repulsion =  416.565820499634071

  Charge       = 1
  Multiplicity = 1
  Electrons    = 64
  Nalpha       = 32
  Nbeta        = 32

  ==> Algorithm <==

  SCF Algorithm Type is DF.
  DIIS enabled.
  MOM disabled.
  Fractional occupation disabled.
  Guess Type is SAD.
  Energy threshold   = 1.00e-08
  Density threshold  = 1.00e-08
  Integral threshold = 0.00e+00

  ==> Primary Basis <==

  Basis Set: 6-31G*
    Blend: 6-31G*
    Number of shells: 72
    Number of basis function: 153
    Number of Cartesian functions: 153
    Spherical Harmonics?: false
    Max angular momentum: 2

  ==> DFT Potential <==

   => Composite Functional: B3LYP-D3ZERO <= 

    B3LYP-d3zero Hyb-GGA Exchange-Correlation Functional

    P. J. Stephens, F. J. Devlin, C. F. Chabalowski, and M. J. Frisch, J. Phys. Chem. 98, 11623 (1994)

    Deriv               =              1
    GGA                 =           TRUE
    Meta                =          FALSE

    Exchange Hybrid     =           TRUE
    MP2 Hybrid          =          FALSE

   => Exchange Functionals <=

    0.0800   Slater exchange
    0.7200         Becke 88

   => Exact (HF) Exchange <=

    0.2000               HF 

   => Correlation Functionals <=

    0.1900   Vosko, Wilk & Nusair (VWN5_RPA)
    0.8100   Lee, Yang & Parr

   => Molecular Quadrature <=

    Radial Scheme       =       TREUTLER
    Pruning Scheme      =           FLAT
    Nuclear Scheme      =       TREUTLER

    BS radius alpha     =              1
    Pruning alpha       =              1
    Radial Points       =             75
    Spherical Points    =            302
    Total Points        =         397100
    Total Blocks        =           3004
    Max Points          =            256
    Max Functions       =            149

   => -D3ZERO: Empirical Dispersion <=

    Grimme's -D3 (zero-damping) Dispersion Correction
    Grimme S.; Antony J.; Ehrlich S.; Krieg H. (2010), J. Chem. Phys., 132: 154104

        S6 =   1.000000E+00
        S8 =   1.703000E+00
       SR6 =   1.261000E+00
       SR8 =   1.000000E+00
    ALPHA6 =   1.400000E+01

   => Loading Basis Set <=

    Name: (6-31G* AUX)
    Role: JKFIT
    Keyword: DF_BASIS_SCF
    atoms 1-7         entry C          line   121 file /shared/joao/test_parameterize/miniconda3/share/psi4/basis/cc-pvdz-jkfit.gbs 
    atoms 8-12, 15-18 entry H          line    51 file /shared/joao/test_parameterize/miniconda3/share/psi4/basis/cc-pvdz-jkfit.gbs 
    atoms 13-14       entry N          line   171 file /shared/joao/test_parameterize/miniconda3/share/psi4/basis/cc-pvdz-jkfit.gbs 

  ==> Pre-Iterations <==

   -------------------------------------------------------
    Irrep   Nso     Nmo     Nalpha   Nbeta   Ndocc  Nsocc
   -------------------------------------------------------
     A        153     153       0       0       0       0
   -------------------------------------------------------
    Total     153     153      32      32      32       0
   -------------------------------------------------------

  ==> Integral Setup <==

  ==> DiskDFJK: Density-Fitted J/K Matrices <==

    J tasked:                  Yes
    K tasked:                  Yes
    wK tasked:                  No
    OpenMP threads:              4
    Integrals threads:           4
    Memory (MB):              2002
    Algorithm:                Core
    Integral Cache:           NONE
    Schwarz Cutoff:          1E-12
    Fitting Condition:       1E-12

   => Auxiliary Basis Set <=

  Basis Set: (6-31G* AUX)
    Blend: CC-PVDZ-JKFIT
    Number of shells: 297
    Number of basis function: 954
    Number of Cartesian functions: 954
    Spherical Harmonics?: false
    Max angular momentum: 3

  Minimum eigenvalue in the overlap matrix is 4.8696605897E-04.
  Using Symmetric Orthogonalization.

  SCF Guess: Superposition of Atomic Densities via on-the-fly atomic UHF.

  ==> Iterations <==

                           Total Energy        Delta E     RMS |[F,P]|

   @DF-RKS iter   0:  -379.61211034496466   -3.79612e+02   6.72991e-02 
   @DF-RKS iter   1:  -380.97738619803778   -1.36528e+00   1.21537e-02 
   @DF-RKS iter   2:  -380.74490413103405    2.32482e-01   1.49028e-02 DIIS
   @DF-RKS iter   3:  -381.40057578599982   -6.55672e-01   3.22618e-03 DIIS
   @DF-RKS iter   4:  -381.42900689291804   -2.84311e-02   9.71020e-04 DIIS
   @DF-RKS iter   5:  -381.43101713019223   -2.01024e-03   4.37169e-04 DIIS
   @DF-RKS iter   6:  -381.43153715162072   -5.20021e-04   1.18862e-04 DIIS
   @DF-RKS iter   7:  -381.43157608368182   -3.89321e-05   3.99024e-05 DIIS
   @DF-RKS iter   8:  -381.43158057451262   -4.49083e-06   8.42846e-06 DIIS
   @DF-RKS iter   9:  -381.43158075001520   -1.75503e-07   5.17892e-06 DIIS
   @DF-RKS iter  10:  -381.43158083089969   -8.08845e-08   7.80760e-07 DIIS
   @DF-RKS iter  11:  -381.43158083209255   -1.19286e-09   4.92633e-07 DIIS
   @DF-RKS iter  12:  -381.43158083287852   -7.85974e-10   8.86215e-08 DIIS
   @DF-RKS iter  13:  -381.43158083290723   -2.87059e-11   2.95084e-08 DIIS
   @DF-RKS iter  14:  -381.43158083290808   -8.52651e-13   1.15483e-08 DIIS
   @DF-RKS iter  15:  -381.43158083290984   -1.76215e-12   3.33948e-09 DIIS

  ==> Post-Iterations <==

    Orbital Energies [Eh]
    ---------------------

    Doubly Occupied:                                                      

       1A    -14.583956     2A    -14.518412     3A    -10.497681  
       4A    -10.370714     5A    -10.358985     6A    -10.357361  
       7A    -10.348837     8A    -10.342937     9A    -10.341892  
      10A     -1.176984    11A     -1.078596    12A     -1.015257  
      13A     -0.925305    14A     -0.903673    15A     -0.840869  
      16A     -0.776459    17A     -0.767840    18A     -0.741127  
      19A     -0.717960    20A     -0.707731    21A     -0.671386  
      22A     -0.628410    23A     -0.606374    24A     -0.584895  
      25A     -0.577843    26A     -0.552618    27A     -0.518573  
      28A     -0.508612    29A     -0.499364    30A     -0.440870  
      31A     -0.415436    32A     -0.406830  

    Virtual:                                                              

      33A     -0.252443    34A     -0.156640    35A     -0.141578  
      36A     -0.096462    37A     -0.071982    38A     -0.048067  
      39A     -0.036961    40A     -0.004940    41A      0.005738  
      42A      0.010240    43A      0.022749    44A      0.056074  
      45A      0.060868    46A      0.094877    47A      0.133061  
      48A      0.138869    49A      0.156193    50A      0.160950  
      51A      0.209842    52A      0.241551    53A      0.299216  
      54A      0.356768    55A      0.359596    56A      0.381461  
      57A      0.395824    58A      0.402143    59A      0.413732  
      60A      0.424188    61A      0.440266    62A      0.448702  
      63A      0.455292    64A      0.469592    65A      0.471382  
      66A      0.483000    67A      0.489986    68A      0.506803  
      69A      0.530873    70A      0.547460    71A      0.550606  
      72A      0.580463    73A      0.621244    74A      0.625915  
      75A      0.666834    76A      0.684293    77A      0.690213  
      78A      0.702072    79A      0.715640    80A      0.725061  
      81A      0.735830    82A      0.746399    83A      0.770703  
      84A      0.775271    85A      0.807976    86A      0.827863  
      87A      0.849148    88A      0.897877    89A      0.954474  
      90A      0.962093    91A      0.990367    92A      1.017812  
      93A      1.046512    94A      1.085096    95A      1.138261  
      96A      1.147353    97A      1.251276    98A      1.273519  
      99A      1.281874   100A      1.308625   101A      1.322945  
     102A      1.339997   103A      1.359813   104A      1.388814  
     105A      1.429655   106A      1.496575   107A      1.525190  
     108A      1.554545   109A      1.626330   110A      1.666994  
     111A      1.708738   112A      1.727334   113A      1.754236  
     114A      1.771913   115A      1.806619   116A      1.827289  
     117A      1.892815   118A      1.950894   119A      1.966159  
     120A      1.979174   121A      1.996477   122A      2.018768  
     123A      2.022481   124A      2.039812   125A      2.115543  
     126A      2.129053   127A      2.152051   128A      2.192939  
     129A      2.224347   130A      2.335697   131A      2.368248  
     132A      2.418703   133A      2.447660   134A      2.456709  
     135A      2.484838   136A      2.512715   137A      2.559882  
     138A      2.582651   139A      2.598488   140A      2.626047  
     141A      2.733034   142A      2.840454   143A      2.978489  
     144A      3.256167   145A      3.619507   146A      3.704317  
     147A      3.911665   148A      3.943942   149A      3.962180  
     150A      4.041578   151A      4.171790   152A      4.250093  
     153A      4.544306  

    Final Occupation by Irrep:
              A 
    DOCC [    32 ]

  Energy converged.

  @DF-RKS Final Energy:  -381.43158083290984

   => Energetics <=

    Nuclear Repulsion Energy =            416.5658204996340714
    One-Electron Energy =               -1328.4758343929579496
    Two-Electron Energy =                 574.9013663037316064
    DFT Exchange-Correlation Energy =     -44.4110723133176393
    Empirical Dispersion Energy =          -0.0118609300000000
    VV10 Nonlocal Energy =                  0.0000000000000000
    Total Energy =                       -381.4315808329098445



Properties will be evaluated at   0.000000,   0.000000,   0.000000 [a0]

Properties computed using the SCF density matrix

  Nuclear Dipole Moment: [e a0]
     X:     0.0905      Y:     0.0206      Z:    -0.1005

  Electronic Dipole Moment: [e a0]
     X:     0.1493      Y:     0.1993      Z:    -1.9184

  Dipole Moment: [e a0]
     X:     0.2399      Y:     0.2198      Z:    -2.0189     Total:     2.0449

  Dipole Moment: [D]
     X:     0.6097      Y:     0.5587      Z:    -5.1314     Total:     5.1976


*** tstop() called on rosa.prib.upf.edu at Sat Sep 29 20:32:57 2018
Module time:
	user time   =     110.41 seconds =       1.84 minutes
	system time =       1.18 seconds =       0.02 minutes
	total time  =         31 seconds =       0.52 minutes
Total time:
	user time   =     110.41 seconds =       1.84 minutes
	system time =       1.18 seconds =       0.02 minutes
	total time  =         31 seconds =       0.52 minutes

*** tstart() called on rosa.prib.upf.edu
*** at Sat Sep 29 20:32:57 2018


         ------------------------------------------------------------
                                   SCF GRAD                          
                          Rob Parrish, Justin Turney,                
                       Andy Simmonett, and Alex Sokolov              
         ------------------------------------------------------------

  ==> Geometry <==

    Molecular point group: c1
    Full point group: C1

    Geometry (in Angstrom), charge = 1, multiplicity = 1:

       Center              X                  Y                   Z               Mass       
    ------------   -----------------  -----------------  -----------------  -----------------
         C            0.000000000000     0.000000000000    -0.177864000000    12.000000000000
         C            0.036678000000     1.219374000000     0.524165000000    12.000000000000
         C            0.031765000000     1.213120000000     1.915444000000    12.000000000000
         C            0.000000000000     0.000000000000     2.610107000000    12.000000000000
         C           -0.031765000000    -1.213120000000     1.915444000000    12.000000000000
         C           -0.036678000000    -1.219375000000     0.524165000000    12.000000000000
         C            0.000000000000     0.000000000000    -1.644734000000    12.000000000000
         H            0.018170000000     2.164705000000    -0.010854000000     1.007825032070
         H            0.042402000000     2.152895000000     2.457886000000     1.007825032070
         H            0.000000000000     0.000000000000     3.695756000000     1.007825032070
         H           -0.042402000000    -2.152895000000     2.457886000000     1.007825032070
         H           -0.018170000000    -2.164705000000    -0.010853000000     1.007825032070
         N           -0.712590000000    -0.905950000000    -2.308461000000    14.003074004780
         N            0.712590000000     0.905950000000    -2.308460000000    14.003074004780
         H            0.673432000000     1.006470000000    -3.315997000000     1.007825032070
         H            1.377190000000     1.485970000000    -1.813316000000     1.007825032070
         H           -1.708506000000    -0.775023000000    -2.428011000000     1.007825032070
         H           -0.294214000000    -1.706532000000    -2.767586000000     1.007825032070

  Nuclear repulsion =  416.565820499634071

  ==> Basis Set <==

  Basis Set: 6-31G*
    Blend: 6-31G*
    Number of shells: 72
    Number of basis function: 153
    Number of Cartesian functions: 153
    Spherical Harmonics?: false
    Max angular momentum: 2

  ==> DFJKGrad: Density-Fitted SCF Gradients <==

    Gradient:                    1
    J tasked:                  Yes
    K tasked:                  Yes
    wK tasked:                  No
    OpenMP threads:              4
    Integrals threads:           4
    Memory (MB):              2002
    Schwarz Cutoff:          0E+00
    Fitting Condition:       1E-12

   => Auxiliary Basis Set <=

  Basis Set: (6-31G* AUX)
    Blend: CC-PVDZ-JKFIT
    Number of shells: 297
    Number of basis function: 954
    Number of Cartesian functions: 954
    Spherical Harmonics?: false
    Max angular momentum: 3

  ==> DFT Potential <==

   => Composite Functional: B3LYP-D3ZERO <= 

    B3LYP-d3zero Hyb-GGA Exchange-Correlation Functional

    P. J. Stephens, F. J. Devlin, C. F. Chabalowski, and M. J. Frisch, J. Phys. Chem. 98, 11623 (1994)

    Deriv               =              1
    GGA                 =           TRUE
    Meta                =          FALSE

    Exchange Hybrid     =           TRUE
    MP2 Hybrid          =          FALSE

   => Exchange Functionals <=

    0.0800   Slater exchange
    0.7200         Becke 88

   => Exact (HF) Exchange <=

    0.2000               HF 

   => Correlation Functionals <=

    0.1900   Vosko, Wilk & Nusair (VWN5_RPA)
    0.8100   Lee, Yang & Parr

   => Molecular Quadrature <=

    Radial Scheme       =       TREUTLER
    Pruning Scheme      =           FLAT
    Nuclear Scheme      =       TREUTLER

    BS radius alpha     =              1
    Pruning alpha       =              1
    Radial Points       =             75
    Spherical Points    =            302
    Total Points        =         397100
    Total Blocks        =           3004
    Max Points          =            256
    Max Functions       =            149


  -Total Gradient:
     Atom            X                  Y                   Z
    ------   -----------------  -----------------  -----------------
       1        0.001653314556    -0.010640799515     0.011169648275
       2       -0.002350415068    -0.002364745225    -0.007279806223
       3       -0.000203631391    -0.003415894147     0.002158673979
       4        0.000005025553     0.000400674183    -0.000329001229
       5       -0.001358017849     0.000994901364     0.002190837798
       6        0.002010832584     0.004708191801    -0.001926891445
       7       -0.023779860472    -0.029405671414    -0.028673943970
       8        0.000456101209    -0.000189280415     0.000033879273
       9        0.000317694699     0.000037142267    -0.000291845239
      10        0.000292028518    -0.000095855451    -0.000110384209
      11       -0.000130055503    -0.000014535245     0.000036497279
      12        0.002504726743    -0.001659015135     0.000856481512
      13        0.020763031218     0.031395296333     0.030270267403
      14       -0.001200807082     0.009690734845    -0.008881014784
      15        0.002686485698     0.003580787922     0.002373843353
      16       -0.002837413146    -0.003196146647    -0.000936536206
      17        0.002281518612     0.007628403202    -0.009470019583
      18       -0.001105398616    -0.007451055869     0.008809420637


*** tstop() called on rosa.prib.upf.edu at Sat Sep 29 20:33:04 2018
Module time:
	user time   =      25.81 seconds =       0.43 minutes
	system time =       0.66 seconds =       0.01 minutes
	total time  =          7 seconds =       0.12 minutes
Total time:
	user time   =     136.29 seconds =       2.27 minutes
	system time =       1.85 seconds =       0.03 minutes
	total time  =         38 seconds =       0.63 minutes

			-----------------------------------------
			 OPTKING 2.0: for geometry optimizations 
			  - R.A. King,  Bethel University        
			-----------------------------------------
	At level 1: Red. Int., RFO, no backsteps, dynamic trust

	Internal coordinates to be generated automatically.
	Detected frag 1 with atoms:  1 2 3 4 5 6 7 8 9 10 11 12 13 14 15 16 17 18
	---Fragment 1 Bond Connectivity---
	 1 : 2 6 7
	 2 : 1 3 8
	 3 : 2 4 9
	 4 : 3 5 10
	 5 : 4 6 11
	 6 : 1 5 12
	 7 : 1 13 14
	 8 : 2
	 9 : 3
	 10 : 4
	 11 : 5
	 12 : 6
	 13 : 7 17 18
	 14 : 7 15 16
	 15 : 14
	 16 : 14
	 17 : 13
	 18 : 13

	Assuming in current code that numbering for constraints corresponds to unified fragment.
	Frozen dihedral atom list: 
	     1     7    13    17
	---Fragment 1 Geometry and Gradient---
	 C           0.0000000000        0.0000000000       -0.3361142489
	 C           0.0693113751        2.3042829136        0.9905282984
	 C           0.0600271506        2.2924645663        3.6196645829
	 C           0.0000000000        0.0000000000        4.9323874075
	 C          -0.0600271506       -2.2924645663        3.6196645829
	 C          -0.0693113751       -2.3042848033        0.9905282984
	 C           0.0000000000        0.0000000000       -3.1080968214
	 H           0.0343363238        4.0906996085       -0.0205110874
	 H           0.0801281675        4.0683819429        4.6447314059
	 H           0.0000000000        0.0000000000        6.9839666940
	 H          -0.0801281675       -4.0683819429        4.6447314059
	 H          -0.0343363238       -4.0906996085       -0.0205091977
	 N          -1.3465999450       -1.7119973901       -4.3623590784
	 N           1.3465999450        1.7119973901       -4.3623571887
	 H           1.2726020491        1.9019526610       -6.2663261875
	 H           2.6025119329        2.8080763417       -3.4266706324
	 H          -3.2286084364       -1.4645812167       -4.5882758376
	 H          -0.5559838845       -3.2248781170       -5.2299795892
	             0.0016533146       -0.0106407995        0.0111696483
	            -0.0023504151       -0.0023647452       -0.0072798062
	            -0.0002036314       -0.0034158941        0.0021586740
	             0.0000050256        0.0004006742       -0.0003290012
	            -0.0013580178        0.0009949014        0.0021908378
	             0.0020108326        0.0047081918       -0.0019268914
	            -0.0237798605       -0.0294056714       -0.0286739440
	             0.0004561012       -0.0001892804        0.0000338793
	             0.0003176947        0.0000371423       -0.0002918452
	             0.0002920285       -0.0000958555       -0.0001103842
	            -0.0001300555       -0.0000145352        0.0000364973
	             0.0025047267       -0.0016590151        0.0008564815
	             0.0207630312        0.0313952963        0.0302702674
	            -0.0012008071        0.0096907348       -0.0088810148
	             0.0026864857        0.0035807879        0.0023738434
	            -0.0028374131       -0.0031961466       -0.0009365362
	             0.0022815186        0.0076284032       -0.0094700196
	            -0.0011053986       -0.0074510559        0.0088094206

	Previous optimization step data not found.  Starting new optimization.

	---Fragment 1 Intrafragment Coordinates---
	 - Coordinate -           - BOHR/RAD -       - ANG/DEG -
	 R(1,2)           =         2.659794	       1.407502
	 R(1,6)           =         2.659796	       1.407503
	 R(1,7)           =         2.771983	       1.466870
	 R(2,3)           =         2.629179	       1.391302
	 R(2,8)           =         2.052976	       1.086388
	 R(3,4)           =         2.642393	       1.398294
	 R(3,9)           =         2.050622	       1.085142
	 R(4,5)           =         2.642393	       1.398294
	 R(4,10)          =         2.051579	       1.085649
	 R(5,6)           =         2.629179	       1.391302
	 R(5,11)          =         2.050622	       1.085142
	 R(6,12)          =         2.052973	       1.086386
	 R(7,13)          =         2.513452	       1.330061
	 R(7,14)          =         2.513451	       1.330061
	 R(13,17)         =         1.911599	       1.011574
	 R(13,18)         =         1.914849	       1.013295
	 R(14,15)         =         1.914852	       1.013296
	 R(14,16)         =         1.911600	       1.011575
	 B(1,2,3)         =         2.088380	     119.655376
	 B(1,2,8)         =         2.103396	     120.515689
	 B(1,6,5)         =         2.088379	     119.655315
	 B(1,6,12)        =         2.103396	     120.515729
	 B(1,7,13)        =         2.093264	     119.935172
	 B(1,7,14)        =         2.093263	     119.935135
	 B(2,1,6)         =         2.097220	     120.161857
	 B(2,1,7)         =         2.092983	     119.919082
	 B(2,3,4)         =         2.095279	     120.050636
	 B(2,3,9)         =         2.089719	     119.732108
	 B(3,2,8)         =         2.090149	     119.756722
	 B(3,4,5)         =         2.101793	     120.423859
	 B(3,4,10)        =         2.090696	     119.788070
	 B(4,3,9)         =         2.098135	     120.214297
	 B(4,5,6)         =         2.095280	     120.050677
	 B(4,5,11)        =         2.098135	     120.214297
	 B(5,4,10)        =         2.090696	     119.788070
	 B(5,6,12)        =         2.090149	     119.756743
	 B(6,1,7)         =         2.092982	     119.919061
	 B(6,5,11)        =         2.089719	     119.732067
	 B(7,13,17)       =         2.092411	     119.886328
	 B(7,13,18)       =         2.144860	     122.891407
	 B(7,14,15)       =         2.144860	     122.891405
	 B(7,14,16)       =         2.092412	     119.886393
	 B(13,7,14)       =         2.096659	     120.129694
	 B(15,14,16)      =         2.043399	     117.078146
	 B(17,13,18)      =         2.043400	     117.078204
	 D(1,2,3,4)       =         0.007799	       0.446825
	 D(1,2,3,9)       =        -3.122896	    -178.928735
	 D(1,6,5,4)       =         0.007799	       0.446822
	 D(1,6,5,11)      =        -3.122896	    -178.928737
	*D(1,7,13,17)     =         1.396264	      80.000018
	 D(1,7,13,18)     =        -1.823746	    -104.492960
	 D(1,7,14,15)     =        -3.032165	    -173.730230
	 D(1,7,14,16)     =         0.187844	      10.762681
	 D(2,1,6,5)       =        -0.003906	      -0.223802
	 D(2,1,6,12)      =        -3.091437	    -177.126283
	 D(2,1,7,13)      =        -2.505167	    -143.535494
	 D(2,1,7,14)      =         0.636426	      36.464506
	 D(2,3,4,5)       =        -0.003942	      -0.225875
	 D(2,3,4,10)      =         3.137650	     179.774125
	 D(3,2,1,6)       =        -0.003906	      -0.223806
	 D(3,2,1,7)       =         3.137687	     179.776196
	 D(3,4,5,6)       =        -0.003942	      -0.225874
	 D(3,4,5,11)      =         3.126699	     179.146646
	 D(4,3,2,8)       =         3.095744	     177.373058
	 D(4,5,6,12)      =         3.095744	     177.373055
	 D(5,4,3,9)       =         3.126699	     179.146646
	 D(5,6,1,7)       =         3.137687	     179.776197
	 D(6,1,2,8)       =        -3.091437	    -177.126287
	 D(6,1,7,13)      =         0.636426	      36.464508
	 D(6,1,7,14)      =        -2.505167	    -143.535492
	 D(6,5,4,10)      =         3.137650	     179.774126
	 D(7,1,2,8)       =         0.050156	       2.873714
	 D(7,1,6,12)      =         0.050156	       2.873716
	 D(8,2,3,9)       =        -0.034950	      -2.002503
	 D(9,3,4,10)      =        -0.014894	      -0.853354
	 D(10,4,5,11)     =        -0.014894	      -0.853354
	 D(11,5,6,12)     =        -0.034950	      -2.002504
	 D(13,7,14,15)    =         0.109428	       6.269770
	 D(13,7,14,16)    =        -2.953748	    -169.237319
	 D(14,7,13,17)    =        -1.745329	     -99.999982
	 D(14,7,13,18)    =         1.317846	      75.507040

	Current energy   :      -381.4315808329

	Generating empirical Hessian (Schlegel '84) for each fragment.
	Taking RFO optimization step.
	Going to follow RFO solution 1.
	Using RFO vector 1.

	Determining step-restricting scale parameter for RS-RFO.
	Maximum step size allowed    0.50000

	 Iter      |step|        alpha        rfo_root  
	------------------------------------------------
	    0     0.53405       1.00000           1
	    1     0.50299       1.18274           1
	    2     0.50003       1.20197           1
	    3     0.50000       1.20214           1
	------------------------------------------------
	Norm of target step-size    0.50000
	Projected energy change by RFO approximation:        -0.0092681239

	Back-transformation to cartesian coordinates...
	Could not converge backtransformation.
	Using first guess instead.

	Back-transformation to cartesian coordinates to adjust frozen coordinates...
	Successfully converged to displaced geometry.

	--- Internal Coordinate Step in ANG or DEG, aJ/ANG or AJ/DEG ---
	 ---------------------------------------------------------------------------
	   Coordinate                Previous        Force       Change         New 
	   ----------                --------       ------       ------       ------
	    1 R(1,2)          =      1.407502     0.047855     0.008542     1.416044
	    2 R(1,6)          =      1.407503     0.013219     0.003222     1.410725
	    3 R(1,7)          =      1.466870    -0.053618    -0.008920     1.457950
	    4 R(2,3)          =      1.391302    -0.016945    -0.001931     1.389371
	    5 R(2,8)          =      1.086388     0.001561     0.000786     1.087174
	    6 R(3,4)          =      1.398294     0.015504     0.002720     1.401013
	    7 R(3,9)          =      1.085142     0.000913     0.001299     1.086441
	    8 R(4,5)          =      1.398294     0.016582     0.004136     1.402430
	    9 R(4,10)         =      1.085649     0.000909     0.000337     1.085986
	   10 R(5,6)          =      1.391302    -0.013147    -0.001221     1.390080
	   11 R(5,11)         =      1.085142    -0.000267     0.000852     1.085994
	   12 R(6,12)         =      1.086386    -0.008772     0.002445     1.088831
	   13 R(7,13)         =      1.330061     0.395742     0.049843     1.379905
	   14 R(7,14)         =      1.330061    -0.081171    -0.008170     1.321891
	   15 R(13,17)        =      1.011574     0.001145     0.009583     1.021158
	   16 R(13,18)        =      1.013295    -0.011851     0.030119     1.043414
	   17 R(14,15)        =      1.013296     0.017376     0.004812     1.018108
	   18 R(14,16)        =      1.011575     0.034235     0.007694     1.019269
	   19 B(1,2,3)        =    119.655376     0.000037     0.159916   119.815292
	   20 B(1,2,8)        =    120.515689    -0.000015    -0.023974   120.491715
	   21 B(1,6,5)        =    119.655315    -0.000031    -0.215959   119.439356
	   22 B(1,6,12)       =    120.515729    -0.000102    -0.348225   120.167505
	   23 B(1,7,13)       =    119.935172     0.000781     1.955274   121.890446
	   24 B(1,7,14)       =    119.935135    -0.000242    -0.690780   119.244354
	   25 B(2,1,6)        =    120.161857    -0.000033     0.006183   120.168040
	   26 B(2,1,7)        =    119.919082     0.000454     1.264538   121.183620
	   27 B(2,3,4)        =    120.050636    -0.000092    -0.343018   119.707618
	   28 B(2,3,9)        =    119.732108     0.000068     0.250842   119.982950
	   29 B(3,2,8)        =    119.756722    -0.000022    -0.144578   119.612143
	   30 B(3,4,5)        =    120.423859     0.000090     0.286594   120.710453
	   31 B(3,4,10)       =    119.788070    -0.000052    -0.198116   119.589955
	   32 B(4,3,9)        =    120.214297     0.000024     0.091448   120.305745
	   33 B(4,5,6)        =    120.050677     0.000028     0.085783   120.136460
	   34 B(4,5,11)       =    120.214297    -0.000012     0.055506   120.269802
	   35 B(5,4,10)       =    119.788070    -0.000038    -0.091464   119.696606
	   36 B(5,6,12)       =    119.756743     0.000135     0.601372   120.358115
	   37 B(6,1,7)        =    119.919061    -0.000421    -1.271314   118.647747
	   38 B(6,5,11)       =    119.732067    -0.000016    -0.139106   119.592961
	   39 B(7,13,17)      =    119.886328     0.000198     0.786864   120.673192
	   40 B(7,13,18)      =    122.891407    -0.000160    -1.941053   120.950354
	   41 B(7,14,15)      =    122.891405    -0.000510    -2.311019   120.580386
	   42 B(7,14,16)      =    119.886393     0.000351     1.486583   121.372976
	   43 B(13,7,14)      =    120.129694    -0.000539    -1.516439   118.613255
	   44 B(15,14,16)     =    117.078146     0.000157     0.796866   117.875012
	   45 B(17,13,18)     =    117.078204    -0.000075    -0.329681   116.748523
	   46 D(1,2,3,4)      =      0.446825     0.000002     0.210227     0.657052
	   47 D(1,2,3,9)      =   -178.928735     0.000003     0.282042  -178.646693
	   48 D(1,6,5,4)      =      0.446822     0.000012     1.109545     1.556367
	   49 D(1,6,5,11)     =   -178.928737     0.000002     0.165368  -178.763370
	   50 *D(1,7,13,17)   =     80.000018     0.000000     0.000000    80.000018
	   51 D(1,7,13,18)    =   -104.492960    -0.000130   -10.522998  -115.015958
	   52 D(1,7,14,15)    =   -173.730230    -0.000040    -3.636996  -177.367226
	   53 D(1,7,14,16)    =     10.762681    -0.000034    -3.267100     7.495581
	   54 D(2,1,6,5)      =     -0.223802    -0.000014    -1.392208    -1.616009
	   55 D(2,1,6,12)     =   -177.126283    -0.000025    -2.345135  -179.471418
	   56 D(2,1,7,13)     =   -143.535494    -0.000087   -10.160870  -153.696364
	   57 D(2,1,7,14)     =     36.464506    -0.000025    -4.312845    32.151661
	   58 D(2,3,4,5)      =     -0.225875    -0.000005    -0.496747    -0.722623
	   59 D(2,3,4,10)     =    179.774125     0.000001     0.133775   179.907900
	   60 D(3,2,1,6)      =     -0.223806     0.000007     0.730899     0.507094
	   61 D(3,2,1,7)      =    179.776196     0.000004     0.446918   180.223113
	   62 D(3,4,5,6)      =     -0.225874    -0.000002    -0.173213    -0.399088
	   63 D(3,4,5,11)     =    179.146646     0.000007     0.776184   179.922831
	   64 D(4,3,2,8)      =    177.373058     0.000000     0.030973   177.404031
	   65 D(4,5,6,12)     =    177.373055     0.000021     2.034551   179.407606
	   66 D(5,4,3,9)      =    179.146646    -0.000006    -0.567806   178.578841
	   67 D(5,6,1,7)      =    179.776197    -0.000011    -1.115368   178.660829
	   68 D(6,1,2,8)      =   -177.126287     0.000009     0.915455  -176.210832
	   69 D(6,1,7,13)     =     36.464508    -0.000090   -10.440636    26.023871
	   70 D(6,1,7,14)     =   -143.535492    -0.000029    -4.592611  -148.128104
	   71 D(6,5,4,10)     =    179.774126    -0.000009    -0.804404   178.969721
	   72 D(7,1,2,8)      =      2.873714     0.000006     0.631473     3.505188
	   73 D(7,1,6,12)     =      2.873716    -0.000021    -2.068295     0.805420
	   74 D(8,2,3,9)      =     -2.002503     0.000001     0.102788    -1.899714
	   75 D(9,3,4,10)     =     -0.853354     0.000000     0.062717    -0.790637
	   76 D(10,4,5,11)    =     -0.853354     0.000001     0.144993    -0.708360
	   77 D(11,5,6,12)    =     -2.002504     0.000011     1.090374    -0.912130
	   78 D(13,7,14,15)   =      6.269770     0.000022     2.018455     8.288226
	   79 D(13,7,14,16)   =   -169.237319     0.000027     2.388351  -166.848968
	   80 D(14,7,13,17)   =    -99.999982    -0.000061    -5.812409  -105.812390
	   81 D(14,7,13,18)   =     75.507040    -0.000191   -16.335407    59.171633
	 ---------------------------------------------------------------------------
	Successfully symmetrized geometry.

  ==> Convergence Check <==

  Measures of convergence in internal coordinates in au.
  Criteria marked as inactive (o), active & met (*), and active & unmet ( ).
  --------------------------------------------------------------------------------------------- ~
   Step     Total Energy     Delta E     MAX Force     RMS Force      MAX Disp      RMS Disp    ~
  --------------------------------------------------------------------------------------------- ~
    Convergence Criteria    1.00e-06 *    3.00e-04 *             o    1.20e-03 *             o  ~
  --------------------------------------------------------------------------------------------- ~
      1    -381.43158083   -3.81e+02      4.80e-02      6.20e-03 o    2.85e-01      5.45e-02 o  ~
  ---------------------------------------------------------------------------------------------

	Writing optimization data to binary file.
	Structure for next step:
	Cartesian Geometry (in Angstrom)
	    C    -0.0228452670   0.0294323784  -0.1637709876
	    C     0.0825440179   1.2455967207   0.5538772006
	    C     0.1010691586   1.2286079634   1.9430203409
	    C     0.0291587186   0.0060342175   2.6234473455
	    C    -0.0765912417  -1.2012716484   1.9177284019
	    C    -0.1196424482  -1.1960386912   0.5283248302
	    C    -0.0401581955   0.0121645218  -1.6215156944
	    H     0.0956514282   2.1970586848   0.0280496817
	    H     0.1596648569   2.1615514017   2.4966777358
	    H     0.0453018491  -0.0051213335   3.7092562051
	    H    -0.1305934724  -2.1449778302   2.4524103089
	    H    -0.1920220112  -2.1318686967  -0.0235238249
	    N    -0.6501234591  -1.0018363012  -2.3313616479
	    N     0.6419065720   0.9287738336  -2.2863554450
	    H     0.6120289835   0.9601934926  -3.3035400654
	    H     1.2676862403   1.5755105603  -1.8077731755
	    H    -1.6624788130  -1.0082228957  -2.4649983478
	    H    -0.0926549168  -1.6447023779  -2.9352358621
			--------------------------
			 OPTKING Finished Execution 
			--------------------------

    Structure for next step:
    Molecular point group: c1
    Full point group: C1

    Geometry (in Angstrom), charge = 1, multiplicity = 1:

    C           -0.022845266989     0.029432378409    -0.163770987621
    C            0.082544017889     1.245596720741     0.553877200625
    C            0.101069158616     1.228607963368     1.943020340911
    C            0.029158718587     0.006034217485     2.623447345497
    C           -0.076591241736    -1.201271648355     1.917728401890
    C           -0.119642448237    -1.196038691194     0.528324830209
    C           -0.040158195469     0.012164521808    -1.621515694363
    H            0.095651428161     2.197058684786     0.028049681719
    H            0.159664856910     2.161551401652     2.496677735813
    H            0.045301849053    -0.005121333489     3.709256205103
    H           -0.130593472443    -2.144977830167     2.452410308858
    H           -0.192022011190    -2.131868696699    -0.023523824937
    N           -0.650123459147    -1.001836301237    -2.331361647937
    N            0.641906571967     0.928773833562    -2.286355445028
    H            0.612028983499     0.960193492649    -3.303540065408
    H            1.267686240285     1.575510560284    -1.807773175489
    H           -1.662478812966    -1.008222895728    -2.464998347787
    H           -0.092654916789    -1.644702377877    -2.935235862056

gradient() will perform analytic gradient computation.

*** tstart() called on rosa.prib.upf.edu
*** at Sat Sep 29 20:33:05 2018

   => Loading Basis Set <=

    Name: 6-31G*
    Role: ORBITAL
    Keyword: BASIS
    atoms 1-7         entry C          line   111 file /shared/joao/test_parameterize/miniconda3/share/psi4/basis/6-31gs.gbs 
    atoms 8-12, 15-18 entry H          line    44 file /shared/joao/test_parameterize/miniconda3/share/psi4/basis/6-31gs.gbs 
    atoms 13-14       entry N          line   128 file /shared/joao/test_parameterize/miniconda3/share/psi4/basis/6-31gs.gbs 


         ---------------------------------------------------------
                                   SCF
            by Justin Turney, Rob Parrish, Andy Simmonett
                             and Daniel Smith
                              RKS Reference
                        4 Threads,   2861 MiB Core
         ---------------------------------------------------------

  ==> Geometry <==

    Molecular point group: c1
    Full point group: C1

    Geometry (in Angstrom), charge = 1, multiplicity = 1:

       Center              X                  Y                   Z               Mass       
    ------------   -----------------  -----------------  -----------------  -----------------
         C           -0.022845266989     0.029432378409    -0.163770987621    12.000000000000
         C            0.082544017889     1.245596720741     0.553877200625    12.000000000000
         C            0.101069158616     1.228607963368     1.943020340911    12.000000000000
         C            0.029158718587     0.006034217485     2.623447345497    12.000000000000
         C           -0.076591241736    -1.201271648355     1.917728401890    12.000000000000
         C           -0.119642448237    -1.196038691194     0.528324830209    12.000000000000
         C           -0.040158195469     0.012164521808    -1.621515694363    12.000000000000
         H            0.095651428161     2.197058684786     0.028049681719     1.007825032070
         H            0.159664856910     2.161551401652     2.496677735813     1.007825032070
         H            0.045301849053    -0.005121333489     3.709256205103     1.007825032070
         H           -0.130593472443    -2.144977830167     2.452410308858     1.007825032070
         H           -0.192022011190    -2.131868696699    -0.023523824937     1.007825032070
         N           -0.650123459147    -1.001836301237    -2.331361647937    14.003074004780
         N            0.641906571967     0.928773833562    -2.286355445028    14.003074004780
         H            0.612028983499     0.960193492649    -3.303540065408     1.007825032070
         H            1.267686240285     1.575510560284    -1.807773175489     1.007825032070
         H           -1.662478812966    -1.008222895728    -2.464998347787     1.007825032070
         H           -0.092654916789    -1.644702377877    -2.935235862056     1.007825032070

  Running in c1 symmetry.

  Rotational constants: A =      0.12022  B =      0.03962  C =      0.03087 [cm^-1]
  Rotational constants: A =   3604.05641  B =   1187.72047  C =    925.35295 [MHz]
  Nuclear repulsion =  415.063842897716427

  Charge       = 1
  Multiplicity = 1
  Electrons    = 64
  Nalpha       = 32
  Nbeta        = 32

  ==> Algorithm <==

  SCF Algorithm Type is DF.
  DIIS enabled.
  MOM disabled.
  Fractional occupation disabled.
  Guess Type is READ.
  Energy threshold   = 1.00e-08
  Density threshold  = 1.00e-08
  Integral threshold = 0.00e+00

  ==> Primary Basis <==

  Basis Set: 6-31G*
    Blend: 6-31G*
    Number of shells: 72
    Number of basis function: 153
    Number of Cartesian functions: 153
    Spherical Harmonics?: false
    Max angular momentum: 2

  ==> DFT Potential <==

   => Composite Functional: B3LYP-D3ZERO <= 

    B3LYP-d3zero Hyb-GGA Exchange-Correlation Functional

    P. J. Stephens, F. J. Devlin, C. F. Chabalowski, and M. J. Frisch, J. Phys. Chem. 98, 11623 (1994)

    Deriv               =              1
    GGA                 =           TRUE
    Meta                =          FALSE

    Exchange Hybrid     =           TRUE
    MP2 Hybrid          =          FALSE

   => Exchange Functionals <=

    0.0800   Slater exchange
    0.7200         Becke 88

   => Exact (HF) Exchange <=

    0.2000               HF 

   => Correlation Functionals <=

    0.1900   Vosko, Wilk & Nusair (VWN5_RPA)
    0.8100   Lee, Yang & Parr

   => Molecular Quadrature <=

    Radial Scheme       =       TREUTLER
    Pruning Scheme      =           FLAT
    Nuclear Scheme      =       TREUTLER

    BS radius alpha     =              1
    Pruning alpha       =              1
    Radial Points       =             75
    Spherical Points    =            302
    Total Points        =         397043
    Total Blocks        =           3003
    Max Points          =            256
    Max Functions       =            149

   => -D3ZERO: Empirical Dispersion <=

    Grimme's -D3 (zero-damping) Dispersion Correction
    Grimme S.; Antony J.; Ehrlich S.; Krieg H. (2010), J. Chem. Phys., 132: 154104

        S6 =   1.000000E+00
        S8 =   1.703000E+00
       SR6 =   1.261000E+00
       SR8 =   1.000000E+00
    ALPHA6 =   1.400000E+01

   => Loading Basis Set <=

    Name: (6-31G* AUX)
    Role: JKFIT
    Keyword: DF_BASIS_SCF
    atoms 1-7         entry C          line   121 file /shared/joao/test_parameterize/miniconda3/share/psi4/basis/cc-pvdz-jkfit.gbs 
    atoms 8-12, 15-18 entry H          line    51 file /shared/joao/test_parameterize/miniconda3/share/psi4/basis/cc-pvdz-jkfit.gbs 
    atoms 13-14       entry N          line   171 file /shared/joao/test_parameterize/miniconda3/share/psi4/basis/cc-pvdz-jkfit.gbs 

  Reading orbitals from file 180, no projection.

  ==> Pre-Iterations <==

   -------------------------------------------------------
    Irrep   Nso     Nmo     Nalpha   Nbeta   Ndocc  Nsocc
   -------------------------------------------------------
     A        153     153       0       0       0       0
   -------------------------------------------------------
    Total     153     153      32      32      32       0
   -------------------------------------------------------

  ==> Integral Setup <==

  ==> DiskDFJK: Density-Fitted J/K Matrices <==

    J tasked:                  Yes
    K tasked:                  Yes
    wK tasked:                  No
    OpenMP threads:              4
    Integrals threads:           4
    Memory (MB):              2002
    Algorithm:                Core
    Integral Cache:           NONE
    Schwarz Cutoff:          1E-12
    Fitting Condition:       1E-12

   => Auxiliary Basis Set <=

  Basis Set: (6-31G* AUX)
    Blend: CC-PVDZ-JKFIT
    Number of shells: 297
    Number of basis function: 954
    Number of Cartesian functions: 954
    Spherical Harmonics?: false
    Max angular momentum: 3

  Minimum eigenvalue in the overlap matrix is 4.9521116023E-04.
  Using Symmetric Orthogonalization.

  SCF Guess: Orbitals guess was supplied from a previous computation.

  ==> Iterations <==

                           Total Energy        Delta E     RMS |[F,P]|

   @DF-RKS iter   0:  -381.36616944823936   -3.81366e+02   3.18433e-03 
   @DF-RKS iter   1:  -381.43941683961373   -7.32474e-02   4.84438e-04 
   @DF-RKS iter   2:  -381.43905748857554    3.59351e-04   6.53545e-04 DIIS
   @DF-RKS iter   3:  -381.44033216671534   -1.27468e-03   1.09197e-04 DIIS
   @DF-RKS iter   4:  -381.44035377420005   -2.16075e-05   7.13043e-05 DIIS
   @DF-RKS iter   5:  -381.44036910182928   -1.53276e-05   2.02998e-05 DIIS
   @DF-RKS iter   6:  -381.44037037222932   -1.27040e-06   5.33018e-06 DIIS
   @DF-RKS iter   7:  -381.44037046098049   -8.87512e-08   1.59777e-06 DIIS
   @DF-RKS iter   8:  -381.44037046732160   -6.34111e-09   8.40703e-07 DIIS
   @DF-RKS iter   9:  -381.44037046977081   -2.44921e-09   2.33601e-07 DIIS
   @DF-RKS iter  10:  -381.44037046993287   -1.62061e-10   8.81453e-08 DIIS
   @DF-RKS iter  11:  -381.44037046995697   -2.41016e-11   1.44320e-08 DIIS
   @DF-RKS iter  12:  -381.44037046995692    5.68434e-14   8.52576e-09 DIIS

  ==> Post-Iterations <==

    Orbital Energies [Eh]
    ---------------------

    Doubly Occupied:                                                      

       1A    -14.581729     2A    -14.528712     3A    -10.496938  
       4A    -10.372719     5A    -10.361437     6A    -10.357286  
       7A    -10.350801     8A    -10.344758     9A    -10.342199  
      10A     -1.172104    11A     -1.065946    12A     -1.014785  
      13A     -0.925822    14A     -0.904384    15A     -0.838616  
      16A     -0.775466    17A     -0.767637    18A     -0.735375  
      19A     -0.713014    20A     -0.696996    21A     -0.667410  
      22A     -0.627852    23A     -0.605176    24A     -0.583029  
      25A     -0.578885    26A     -0.557669    27A     -0.516684  
      28A     -0.508626    29A     -0.499623    30A     -0.444597  
      31A     -0.416025    32A     -0.408132  

    Virtual:                                                              

      33A     -0.249028    34A     -0.156761    35A     -0.137402  
      36A     -0.100569    37A     -0.077337    38A     -0.054031  
      39A     -0.036134    40A     -0.008428    41A      0.006347  
      42A      0.009014    43A      0.022392    44A      0.053527  
      45A      0.059675    46A      0.088873    47A      0.124715  
      48A      0.131532    49A      0.155445    50A      0.163243  
      51A      0.208589    52A      0.235910    53A      0.299690  
      54A      0.351268    55A      0.364118    56A      0.379622  
      57A      0.394160    58A      0.400836    59A      0.413007  
      60A      0.421560    61A      0.438268    62A      0.447150  
      63A      0.455074    64A      0.469095    65A      0.471506  
      66A      0.482536    67A      0.489098    68A      0.509510  
      69A      0.528220    70A      0.546728    71A      0.549316  
      72A      0.586569    73A      0.613615    74A      0.648630  
      75A      0.675842    76A      0.688345    77A      0.695417  
      78A      0.701606    79A      0.717208    80A      0.725842  
      81A      0.729616    82A      0.736756    83A      0.771870  
      84A      0.781765    85A      0.808247    86A      0.828985  
      87A      0.852777    88A      0.878003    89A      0.946266  
      90A      0.971571    91A      0.991383    92A      1.021449  
      93A      1.076834    94A      1.082975    95A      1.127948  
      96A      1.141955    97A      1.240745    98A      1.271433  
      99A      1.279069   100A      1.298674   101A      1.328907  
     102A      1.338116   103A      1.356015   104A      1.387238  
     105A      1.408379   106A      1.466132   107A      1.545166  
     108A      1.564276   109A      1.620376   110A      1.648485  
     111A      1.707161   112A      1.730243   113A      1.753757  
     114A      1.773314   115A      1.793308   116A      1.812990  
     117A      1.890334   118A      1.925702   119A      1.963435  
     120A      1.969680   121A      1.996339   122A      2.008021  
     123A      2.023187   124A      2.025043   125A      2.108695  
     126A      2.131863   127A      2.152161   128A      2.173208  
     129A      2.222700   130A      2.318591   131A      2.354368  
     132A      2.385664   133A      2.443285   134A      2.454450  
     135A      2.475821   136A      2.499696   137A      2.539464  
     138A      2.582387   139A      2.593371   140A      2.624597  
     141A      2.731963   142A      2.812733   143A      2.985529  
     144A      3.248200   145A      3.616151   146A      3.685895  
     147A      3.906138   148A      3.940779   149A      3.961457  
     150A      4.038790   151A      4.168354   152A      4.250774  
     153A      4.542643  

    Final Occupation by Irrep:
              A 
    DOCC [    32 ]

  Energy converged.

  @DF-RKS Final Energy:  -381.44037046995692

   => Energetics <=

    Nuclear Repulsion Energy =            415.0638428977164267
    One-Electron Energy =               -1325.5645565691547745
    Two-Electron Energy =                 573.4420815351660394
    DFT Exchange-Correlation Energy =     -44.3699920036846933
    Empirical Dispersion Energy =          -0.0117463300000000
    VV10 Nonlocal Energy =                  0.0000000000000000
    Total Energy =                       -381.4403704699569744



Properties will be evaluated at   0.000000,   0.000000,   0.000000 [a0]

Properties computed using the SCF density matrix

  Nuclear Dipole Moment: [e a0]
     X:    -0.4417      Y:     0.3688      Z:     0.9713

  Electronic Dipole Moment: [e a0]
     X:     0.6620      Y:    -0.1332      Z:    -3.0079

  Dipole Moment: [e a0]
     X:     0.2204      Y:     0.2356      Z:    -2.0366     Total:     2.0620

  Dipole Moment: [D]
     X:     0.5601      Y:     0.5988      Z:    -5.1765     Total:     5.2410


*** tstop() called on rosa.prib.upf.edu at Sat Sep 29 20:33:30 2018
Module time:
	user time   =      92.12 seconds =       1.54 minutes
	system time =       1.08 seconds =       0.02 minutes
	total time  =         25 seconds =       0.42 minutes
Total time:
	user time   =     229.35 seconds =       3.82 minutes
	system time =       2.97 seconds =       0.05 minutes
	total time  =         64 seconds =       1.07 minutes

*** tstart() called on rosa.prib.upf.edu
*** at Sat Sep 29 20:33:30 2018


         ------------------------------------------------------------
                                   SCF GRAD                          
                          Rob Parrish, Justin Turney,                
                       Andy Simmonett, and Alex Sokolov              
         ------------------------------------------------------------

  ==> Geometry <==

    Molecular point group: c1
    Full point group: C1

    Geometry (in Angstrom), charge = 1, multiplicity = 1:

       Center              X                  Y                   Z               Mass       
    ------------   -----------------  -----------------  -----------------  -----------------
         C           -0.022845266989     0.029432378409    -0.163770987621    12.000000000000
         C            0.082544017889     1.245596720741     0.553877200625    12.000000000000
         C            0.101069158616     1.228607963368     1.943020340911    12.000000000000
         C            0.029158718587     0.006034217485     2.623447345497    12.000000000000
         C           -0.076591241736    -1.201271648355     1.917728401890    12.000000000000
         C           -0.119642448237    -1.196038691194     0.528324830209    12.000000000000
         C           -0.040158195469     0.012164521808    -1.621515694363    12.000000000000
         H            0.095651428161     2.197058684786     0.028049681719     1.007825032070
         H            0.159664856910     2.161551401652     2.496677735813     1.007825032070
         H            0.045301849053    -0.005121333489     3.709256205103     1.007825032070
         H           -0.130593472443    -2.144977830167     2.452410308858     1.007825032070
         H           -0.192022011190    -2.131868696699    -0.023523824937     1.007825032070
         N           -0.650123459147    -1.001836301237    -2.331361647937    14.003074004780
         N            0.641906571967     0.928773833562    -2.286355445028    14.003074004780
         H            0.612028983499     0.960193492649    -3.303540065408     1.007825032070
         H            1.267686240285     1.575510560284    -1.807773175489     1.007825032070
         H           -1.662478812966    -1.008222895728    -2.464998347787     1.007825032070
         H           -0.092654916789    -1.644702377877    -2.935235862056     1.007825032070

  Nuclear repulsion =  415.063842897716427

  ==> Basis Set <==

  Basis Set: 6-31G*
    Blend: 6-31G*
    Number of shells: 72
    Number of basis function: 153
    Number of Cartesian functions: 153
    Spherical Harmonics?: false
    Max angular momentum: 2

  ==> DFJKGrad: Density-Fitted SCF Gradients <==

    Gradient:                    1
    J tasked:                  Yes
    K tasked:                  Yes
    wK tasked:                  No
    OpenMP threads:              4
    Integrals threads:           4
    Memory (MB):              2002
    Schwarz Cutoff:          0E+00
    Fitting Condition:       1E-12

   => Auxiliary Basis Set <=

  Basis Set: (6-31G* AUX)
    Blend: CC-PVDZ-JKFIT
    Number of shells: 297
    Number of basis function: 954
    Number of Cartesian functions: 954
    Spherical Harmonics?: false
    Max angular momentum: 3

  ==> DFT Potential <==

   => Composite Functional: B3LYP-D3ZERO <= 

    B3LYP-d3zero Hyb-GGA Exchange-Correlation Functional

    P. J. Stephens, F. J. Devlin, C. F. Chabalowski, and M. J. Frisch, J. Phys. Chem. 98, 11623 (1994)

    Deriv               =              1
    GGA                 =           TRUE
    Meta                =          FALSE

    Exchange Hybrid     =           TRUE
    MP2 Hybrid          =          FALSE

   => Exchange Functionals <=

    0.0800   Slater exchange
    0.7200         Becke 88

   => Exact (HF) Exchange <=

    0.2000               HF 

   => Correlation Functionals <=

    0.1900   Vosko, Wilk & Nusair (VWN5_RPA)
    0.8100   Lee, Yang & Parr

   => Molecular Quadrature <=

    Radial Scheme       =       TREUTLER
    Pruning Scheme      =           FLAT
    Nuclear Scheme      =       TREUTLER

    BS radius alpha     =              1
    Pruning alpha       =              1
    Radial Points       =             75
    Spherical Points    =            302
    Total Points        =         397043
    Total Blocks        =           3003
    Max Points          =            256
    Max Functions       =            149


  -Total Gradient:
     Atom            X                  Y                   Z
    ------   -----------------  -----------------  -----------------
       1        0.011423362726    -0.004227147436     0.005558436486
       2       -0.000550823841     0.001131191718    -0.001353917725
       3       -0.001014074634    -0.000679198018     0.002187608434
       4        0.000460655860     0.002743162871     0.000820571291
       5       -0.000219367179    -0.001208181484    -0.001258429577
       6        0.001156334995     0.002332816213    -0.000898401611
       7       -0.006338480150     0.004484190369    -0.004727098911
       8        0.000672803308     0.000138761202    -0.000254292629
       9        0.000051701345     0.000902574130     0.000392564671
      10       -0.000016375139     0.000140352464     0.000080007100
      11       -0.000205269984    -0.000809607156    -0.000180439241
      12        0.000620998690    -0.003425926197    -0.000672103949
      13       -0.008125104650     0.012735519935     0.012623234522
      14       -0.005648630505     0.001526854350     0.004098206804
      15        0.000575672484    -0.000521757354    -0.002577163937
      16        0.001221074618     0.002526639399     0.002442524473
      17       -0.007369230867     0.005836212328    -0.010163657806
      18        0.013301304268    -0.023639316839    -0.006136015897


*** tstop() called on rosa.prib.upf.edu at Sat Sep 29 20:33:37 2018
Module time:
	user time   =      26.76 seconds =       0.45 minutes
	system time =       0.48 seconds =       0.01 minutes
	total time  =          7 seconds =       0.12 minutes
Total time:
	user time   =     256.19 seconds =       4.27 minutes
	system time =       3.45 seconds =       0.06 minutes
	total time  =         71 seconds =       1.18 minutes

			-----------------------------------------
			 OPTKING 2.0: for geometry optimizations 
			  - R.A. King,  Bethel University        
			-----------------------------------------
	At level 1: Red. Int., RFO, no backsteps, dynamic trust

	Previous internal coordinate definitions found.
	---Fragment 1 Geometry and Gradient---
	 C          -0.0431712980        0.0556191346       -0.3094823151
	 C           0.1559855877        2.3538366742        1.0466762204
	 C           0.1909930303        2.3217325754        3.6717763149
	 C           0.0551019925        0.0114030185        4.9575970070
	 C          -0.1447364711       -2.2700744266        3.6239814768
	 C          -0.2260914610       -2.2601855707        0.9983892383
	 C          -0.0758879914        0.0229876148       -3.0642205825
	 H           0.1807550034        4.1518392121        0.0530062166
	 H           0.3017228526        4.0847401713        4.7180371628
	 H           0.0856080880       -0.0096779177        7.0094783844
	 H          -0.2467858977       -4.0534206601        4.6343838492
	 H          -0.3628690126       -4.0286479880       -0.0444535867
	 N          -1.2285552904       -1.8931962393       -4.4056350313
	 N           1.2130276239        1.7551281848       -4.3205856335
	 H           1.1565671642        1.8145027357       -6.2427859926
	 H           2.3955798166        2.9772834784       -3.4161962121
	 H          -3.1416296582       -1.9052651538       -4.6581717953
	 H          -0.1750924176       -3.1080370643       -5.5467919147
	             0.0114233627       -0.0042271474        0.0055584365
	            -0.0005508238        0.0011311917       -0.0013539177
	            -0.0010140746       -0.0006791980        0.0021876084
	             0.0004606559        0.0027431629        0.0008205713
	            -0.0002193672       -0.0012081815       -0.0012584296
	             0.0011563350        0.0023328162       -0.0008984016
	            -0.0063384802        0.0044841904       -0.0047270989
	             0.0006728033        0.0001387612       -0.0002542926
	             0.0000517013        0.0009025741        0.0003925647
	            -0.0000163751        0.0001403525        0.0000800071
	            -0.0002052700       -0.0008096072       -0.0001804392
	             0.0006209987       -0.0034259262       -0.0006721039
	            -0.0081251046        0.0127355199        0.0126232345
	            -0.0056486305        0.0015268544        0.0040982068
	             0.0005756725       -0.0005217574       -0.0025771639
	             0.0012210746        0.0025266394        0.0024425245
	            -0.0073692309        0.0058362123       -0.0101636578
	             0.0133013043       -0.0236393168       -0.0061360159

	---Fragment 1 Intrafragment Coordinates---
	 - Coordinate -           - BOHR/RAD -       - ANG/DEG -
	 R(1,2)           =         2.675936	       1.416044
	 R(1,6)           =         2.665884	       1.410725
	 R(1,7)           =         2.755126	       1.457950
	 R(2,3)           =         2.625530	       1.389371
	 R(2,8)           =         2.054460	       1.087174
	 R(3,4)           =         2.647532	       1.401013
	 R(3,9)           =         2.053075	       1.086441
	 R(4,5)           =         2.650209	       1.402430
	 R(4,10)          =         2.052216	       1.085986
	 R(5,6)           =         2.626871	       1.390080
	 R(5,11)          =         2.052231	       1.085994
	 R(6,12)          =         2.057593	       1.088831
	 R(7,13)          =         2.607642	       1.379905
	 R(7,14)          =         2.498013	       1.321891
	 R(13,17)         =         1.929708	       1.021158
	 R(13,18)         =         1.971766	       1.043414
	 R(14,15)         =         1.923946	       1.018108
	 R(14,16)         =         1.926140	       1.019269
	 B(1,2,3)         =         2.091171	     119.815292
	 B(1,2,8)         =         2.102977	     120.491715
	 B(1,6,5)         =         2.084610	     119.439356
	 B(1,6,12)        =         2.097319	     120.167505
	 B(1,7,13)        =         2.127390	     121.890446
	 B(1,7,14)        =         2.081207	     119.244354
	 B(2,1,6)         =         2.097328	     120.168040
	 B(2,1,7)         =         2.115053	     121.183620
	 B(2,3,4)         =         2.089292	     119.707618
	 B(2,3,9)         =         2.094098	     119.982950
	 B(3,2,8)         =         2.087626	     119.612143
	 B(3,4,5)         =         2.106795	     120.710453
	 B(3,4,10)        =         2.087238	     119.589955
	 B(4,3,9)         =         2.099731	     120.305745
	 B(4,5,6)         =         2.096777	     120.136460
	 B(4,5,11)        =         2.099104	     120.269802
	 B(5,4,10)        =         2.089100	     119.696606
	 B(5,6,12)        =         2.100645	     120.358115
	 B(6,1,7)         =         2.070794	     118.647747
	 B(6,5,11)        =         2.087291	     119.592961
	 B(7,13,17)       =         2.106145	     120.673192
	 B(7,13,18)       =         2.110982	     120.950354
	 B(7,14,15)       =         2.104525	     120.580386
	 B(7,14,16)       =         2.118358	     121.372976
	 B(13,7,14)       =         2.070192	     118.613255
	 B(15,14,16)      =         2.057307	     117.875012
	 B(17,13,18)      =         2.037646	     116.748523
	 D(1,2,3,4)       =         0.011468	       0.657052
	 D(1,2,3,9)       =        -3.117973	    -178.646693
	 D(1,6,5,4)       =         0.027164	       1.556367
	 D(1,6,5,11)      =        -3.120009	    -178.763370
	*D(1,7,13,17)     =         1.396264	      80.000018
	 D(1,7,13,18)     =        -2.007407	    -115.015958
	 D(1,7,14,15)     =        -3.095642	    -177.367226
	 D(1,7,14,16)     =         0.130823	       7.495581
	 D(2,1,6,5)       =        -0.028205	      -1.616009
	 D(2,1,6,12)      =        -3.132367	    -179.471418
	 D(2,1,7,13)      =        -2.682508	    -153.696364
	 D(2,1,7,14)      =         0.561152	      32.151661
	 D(2,3,4,5)       =        -0.012612	      -0.722623
	 D(2,3,4,10)      =         3.139985	     179.907900
	 D(3,2,1,6)       =         0.008850	       0.507094
	 D(3,2,1,7)       =        -3.137699	    -179.776887
	 D(3,4,5,6)       =        -0.006965	      -0.399088
	 D(3,4,5,11)      =         3.140246	     179.922831
	 D(4,3,2,8)       =         3.096284	     177.404031
	 D(4,5,6,12)      =         3.131253	     179.407606
	 D(5,4,3,9)       =         3.116789	     178.578841
	 D(5,6,1,7)       =         3.118220	     178.660829
	 D(6,1,2,8)       =        -3.075459	    -176.210832
	 D(6,1,7,13)      =         0.454202	      26.023871
	 D(6,1,7,14)      =        -2.585323	    -148.128104
	 D(6,5,4,10)      =         3.123611	     178.969721
	 D(7,1,2,8)       =         0.061177	       3.505188
	 D(7,1,6,12)      =         0.014057	       0.805420
	 D(8,2,3,9)       =        -0.033156	      -1.899714
	 D(9,3,4,10)      =        -0.013799	      -0.790637
	 D(10,4,5,11)     =        -0.012363	      -0.708360
	 D(11,5,6,12)     =        -0.015920	      -0.912130
	 D(13,7,14,15)    =         0.144657	       8.288226
	 D(13,7,14,16)    =        -2.912064	    -166.848968
	 D(14,7,13,17)    =        -1.846775	    -105.812390
	 D(14,7,13,18)    =         1.032740	      59.171633

	Current energy   :      -381.4403704700

	Energy change for the previous step:
		Projected    :        -0.0092681239
		Actual       :        -0.0087896370
	Energy ratio indicates good step: Trust radius increased to 1.000e+00.


	Performing BFGS update.
	Previous computed or guess Hessian on step 1.
	Steps to be used in Hessian update: 1
	Taking RFO optimization step.
	Going to follow RFO solution 1.
	Using RFO vector 1.
	Norm of target step-size    0.61203
	Projected energy change by RFO approximation:        -0.0042603318

	Back-transformation to cartesian coordinates...
	Could not converge backtransformation.
	Using first guess instead.

	Back-transformation to cartesian coordinates to adjust frozen coordinates...
	Successfully converged to displaced geometry.

	--- Internal Coordinate Step in ANG or DEG, aJ/ANG or AJ/DEG ---
	 ---------------------------------------------------------------------------
	   Coordinate                Previous        Force       Change         New 
	   ----------                --------       ------       ------       ------
	    1 R(1,2)          =      1.416044    -0.012401     0.001916     1.417961
	    2 R(1,6)          =      1.410725     0.003220     0.002485     1.413210
	    3 R(1,7)          =      1.457950    -0.037440    -0.010128     1.447822
	    4 R(2,3)          =      1.389371    -0.014698    -0.002549     1.386822
	    5 R(2,8)          =      1.087174    -0.002081     0.000067     1.087241
	    6 R(3,4)          =      1.401013     0.004637     0.002053     1.403067
	    7 R(3,9)          =      1.086441    -0.008066    -0.000270     1.086170
	    8 R(4,5)          =      1.402430    -0.026195    -0.000993     1.401437
	    9 R(4,10)         =      1.085986    -0.000654     0.000159     1.086146
	   10 R(5,6)          =      1.390080    -0.001976    -0.000432     1.389648
	   11 R(5,11)         =      1.085994    -0.005148    -0.000217     1.085776
	   12 R(6,12)         =      1.088831    -0.026716    -0.002313     1.086518
	   13 R(7,13)         =      1.379905    -0.054224     0.017276     1.397181
	   14 R(7,14)         =      1.321891     0.012625    -0.000512     1.321380
	   15 R(13,17)        =      1.021158    -0.070850    -0.002290     1.018868
	   16 R(13,18)        =      1.043414    -0.207788     0.043860     1.087273
	   17 R(14,15)        =      1.018108    -0.020935     0.000102     1.018210
	   18 R(14,16)        =      1.019269    -0.028838     0.000344     1.019613
	   19 B(1,2,3)        =    119.815292    -0.000006     0.046374   119.861666
	   20 B(1,2,8)        =    120.491715     0.000012     0.072565   120.564279
	   21 B(1,6,5)        =    119.439356     0.000072     0.126056   119.565412
	   22 B(1,6,12)       =    120.167505    -0.000125    -0.625835   119.541670
	   23 B(1,7,13)       =    121.890446    -0.000212    -0.164972   121.725474
	   24 B(1,7,14)       =    119.244354     0.000561     1.471844   120.716198
	   25 B(2,1,6)        =    120.168040    -0.000072    -0.186652   119.981388
	   26 B(2,1,7)        =    121.183620     0.000085     0.677917   121.861536
	   27 B(2,3,4)        =    119.707618     0.000057     0.016144   119.723762
	   28 B(2,3,9)        =    119.982950    -0.000019     0.059642   120.042592
	   29 B(3,2,8)        =    119.612143    -0.000005    -0.102283   119.509860
	   30 B(3,4,5)        =    120.710453    -0.000008     0.081722   120.792175
	   31 B(3,4,10)       =    119.589955     0.000015    -0.034331   119.555623
	   32 B(4,3,9)        =    120.305745    -0.000038    -0.081437   120.224308
	   33 B(4,5,6)        =    120.136460    -0.000043    -0.111689   120.024771
	   34 B(4,5,11)       =    120.269802    -0.000022    -0.077280   120.192522
	   35 B(5,4,10)       =    119.696606    -0.000007    -0.050555   119.646051
	   36 B(5,6,12)       =    120.358115     0.000053     0.511531   120.869647
	   37 B(6,1,7)        =    118.647747    -0.000012    -0.490781   118.156967
	   38 B(6,5,11)       =    119.592961     0.000066     0.188698   119.781659
	   39 B(7,13,17)      =    120.673192     0.000066    -0.360129   120.313063
	   40 B(7,13,18)      =    120.950354    -0.000260    -5.528068   115.422286
	   41 B(7,14,15)      =    120.580386    -0.000031    -0.963103   119.617283
	   42 B(7,14,16)      =    121.372976     0.000073     0.858052   122.231028
	   43 B(13,7,14)      =    118.613255    -0.000358    -1.721067   116.892188
	   44 B(15,14,16)     =    117.875012    -0.000042     0.096965   117.971976
	   45 B(17,13,18)     =    116.748523     0.000035    -1.178894   115.569630
	   46 D(1,2,3,4)      =      0.657052    -0.000007    -0.814239    -0.157187
	   47 D(1,2,3,9)      =   -178.646693    -0.000004    -0.401491  -179.048184
	   48 D(1,6,5,4)      =      1.556367     0.000001     0.326161     1.882528
	   49 D(1,6,5,11)     =   -178.763370     0.000002     0.274284  -178.489086
	   50 *D(1,7,13,17)   =     80.000018     0.000000     0.000000    80.000018
	   51 D(1,7,13,18)    =   -115.015958    -0.000164   -18.735022  -133.750980
	   52 D(1,7,14,15)    =   -177.367226     0.000001    -0.399900  -177.767126
	   53 D(1,7,14,16)    =      7.495581     0.000001    -0.290058     7.205523
	   54 D(2,1,6,5)      =     -1.616009    -0.000007    -1.156696    -2.772705
	   55 D(2,1,6,12)     =   -179.471418    -0.000009    -1.562154  -181.033572
	   56 D(2,1,7,13)     =   -153.696364    -0.000042    -7.636888  -161.333252
	   57 D(2,1,7,14)     =     32.151661    -0.000014    -3.839031    28.312630
	   58 D(2,3,4,5)      =     -0.722623     0.000001    -0.020343    -0.742966
	   59 D(2,3,4,10)     =    179.907900     0.000002     0.254524   180.162424
	   60 D(3,2,1,6)      =      0.507094     0.000010     1.403736     1.910830
	   61 D(3,2,1,7)      =   -179.776887     0.000013     1.809851  -177.967036
	   62 D(3,4,5,6)      =     -0.399088     0.000002     0.268165    -0.130922
	   63 D(3,4,5,11)     =    179.922831     0.000001     0.319401   180.242232
	   64 D(4,3,2,8)      =    177.404031    -0.000004    -0.458048   176.945983
	   65 D(4,5,6,12)     =    179.407606     0.000002     0.712155   180.119761
	   66 D(5,4,3,9)      =    178.578841    -0.000003    -0.432853   178.145988
	   67 D(5,6,1,7)      =    178.660829    -0.000010    -1.551189   177.109640
	   68 D(6,1,2,8)      =   -176.210832     0.000007     1.049509  -175.161323
	   69 D(6,1,7,13)     =     26.023871    -0.000039    -7.237133    18.786739
	   70 D(6,1,7,14)     =   -148.128104    -0.000012    -3.439275  -151.567379
	   71 D(6,5,4,10)     =    178.969721     0.000001    -0.006845   178.962876
	   72 D(7,1,2,8)      =      3.505188     0.000010     1.455624     4.960811
	   73 D(7,1,6,12)     =      0.805420    -0.000012    -1.956647    -1.151227
	   74 D(8,2,3,9)      =     -1.899714    -0.000001    -0.045300    -1.945014
	   75 D(9,3,4,10)     =     -0.790637    -0.000001    -0.157986    -0.948623
	   76 D(10,4,5,11)    =     -0.708360     0.000000     0.044390    -0.663970
	   77 D(11,5,6,12)    =     -0.912130     0.000003     0.660278    -0.251852
	   78 D(13,7,14,15)   =      8.288226     0.000026     3.140078    11.428303
	   79 D(13,7,14,16)   =   -166.848968     0.000026     3.249920  -163.599047
	   80 D(14,7,13,17)   =   -105.812390    -0.000015    -3.482599  -109.294990
	   81 D(14,7,13,18)   =     59.171633    -0.000179   -22.217621    36.954011
	 ---------------------------------------------------------------------------
	Successfully symmetrized geometry.

  ==> Convergence Check <==

  Measures of convergence in internal coordinates in au.
  Criteria marked as inactive (o), active & met (*), and active & unmet ( ).
  ---------------------------------------------------------------------------------------------
   Step     Total Energy     Delta E     MAX Force     RMS Force      MAX Disp      RMS Disp   
  ---------------------------------------------------------------------------------------------
    Convergence Criteria    1.00e-06 *    3.00e-04 *             o    1.20e-03 *             o
  ---------------------------------------------------------------------------------------------
      2    -381.44037047   -8.79e-03      2.52e-02      3.76e-03 o    3.88e-01      6.44e-02 o  ~
  ---------------------------------------------------------------------------------------------

	Writing optimization data to binary file.
	Structure for next step:
	Cartesian Geometry (in Angstrom)
	    C    -0.0468197408   0.0398016127  -0.1491224875
	    C     0.1014231695   1.2517317247   0.5718922157
	    C     0.1478077972   1.2294600288   1.9577589627
	    C     0.0442623104   0.0065410688   2.6377179265
	    C    -0.1212841046  -1.1939360099   1.9338176236
	    C    -0.1874853801  -1.1826829881   0.5457928063
	    C    -0.0569795581   0.0079842019  -1.5965590547
	    H     0.1317391614   2.2051990016   0.0502855371
	    H     0.2457460921   2.1575040526   2.5135541209
	    H     0.0782592567  -0.0074564005   3.7232410987
	    H    -0.2042857752  -2.1343826892   2.4700836901
	    H    -0.3175407400  -2.1050029264  -0.0136116551
	    N    -0.5734817095  -1.0805919586  -2.3039076543
	    N     0.5919890463   0.9218829975  -2.2963253945
	    H     0.5456054947   0.9036850875  -3.3133154380
	    H     1.2042075679   1.6092242308  -1.8577342950
	    H    -1.5791298027  -1.1781278214  -2.4352460281
	    H     0.0438689150  -1.4399492128  -3.1236049743
			--------------------------
			 OPTKING Finished Execution 
			--------------------------

    Structure for next step:
    Molecular point group: c1
    Full point group: C1

    Geometry (in Angstrom), charge = 1, multiplicity = 1:

    C           -0.046819740764     0.039801612664    -0.149122487477
    C            0.101423169476     1.251731724697     0.571892215721
    C            0.147807797153     1.229460028816     1.957758962665
    C            0.044262310404     0.006541068798     2.637717926459
    C           -0.121284104637    -1.193936009896     1.933817623619
    C           -0.187485380117    -1.182682988111     0.545792806307
    C           -0.056979558070     0.007984201942    -1.596559054705
    H            0.131739161387     2.205199001633     0.050285537094
    H            0.245746092062     2.157504052583     2.513554120909
    H            0.078259256653    -0.007456400513     3.723241098666
    H           -0.204285775241    -2.134382689246     2.470083690068
    H           -0.317540739996    -2.105002926434    -0.013611655086
    N           -0.573481709492    -1.080591958615    -2.303907654271
    N            0.591989046274     0.921882997482    -2.296325394517
    H            0.545605494675     0.903685087539    -3.313315437993
    H            1.204207567932     1.609224230823    -1.857734295017
    H           -1.579129802688    -1.178127821369    -2.435246028105
    H            0.043868914988    -1.439949212793    -3.123604974338

gradient() will perform analytic gradient computation.

*** tstart() called on rosa.prib.upf.edu
*** at Sat Sep 29 20:33:37 2018

   => Loading Basis Set <=

    Name: 6-31G*
    Role: ORBITAL
    Keyword: BASIS
    atoms 1-7         entry C          line   111 file /shared/joao/test_parameterize/miniconda3/share/psi4/basis/6-31gs.gbs 
    atoms 8-12, 15-18 entry H          line    44 file /shared/joao/test_parameterize/miniconda3/share/psi4/basis/6-31gs.gbs 
[...]
	             0.0000018695       -0.0000023592       -0.0000070672
	            -0.0000067675        0.0000090381        0.0000064387
	             0.0043211064       -0.0128171250        0.0180745627
	            -0.0001258330        0.0000342018        0.0000044174
	             0.0000017006        0.0000150471       -0.0000000038
	            -0.0000091443       -0.0000007559        0.0000010355
	             0.0007569867        0.0078466398       -0.0136540120
	            -0.0000157196       -0.0000031547        0.0000458492

	---Fragment 1 Intrafragment Coordinates---
	 - Coordinate -           - BOHR/RAD -       - ANG/DEG -
	 R(1,2)           =         2.671872	       1.413894
	 R(1,6)           =         2.667884	       1.411783
	 R(1,7)           =         2.741678	       1.450833
	 R(2,3)           =         2.621676	       1.387331
	 R(2,8)           =         2.053948	       1.086902
	 R(3,4)           =         2.648281	       1.401410
	 R(3,9)           =         2.050443	       1.085048
	 R(4,5)           =         2.643058	       1.398646
	 R(4,10)          =         2.051967	       1.085854
	 R(5,6)           =         2.626478	       1.389872
	 R(5,11)          =         2.050525	       1.085091
	 R(6,12)          =         2.048755	       1.084155
	 R(7,13)          =         2.597318	       1.374441
	 R(7,14)          =         2.507231	       1.326769
	 R(13,17)         =         1.925847	       1.019114
	 R(13,18)         =         1.926917	       1.019681
	 R(14,15)         =         1.916425	       1.014128
	 R(14,16)         =         1.916185	       1.014001
	 B(1,2,3)         =         2.091814	     119.852109
	 B(1,2,8)         =         2.104755	     120.593592
	 B(1,6,5)         =         2.087897	     119.627701
	 B(1,6,12)        =         2.088377	     119.655202
	 B(1,7,13)        =         2.085657	     119.499338
	 B(1,7,14)        =         2.099479	     120.291259
	 B(2,1,6)         =         2.093250	     119.934397
	 B(2,1,7)         =         2.109644	     120.873709
	 B(2,3,4)         =         2.092004	     119.862998
	 B(2,3,9)         =         2.093770	     119.964202
	 B(3,2,8)         =         2.085385	     119.483779
	 B(3,4,5)         =         2.105268	     120.622987
	 B(3,4,10)        =         2.087876	     119.626485
	 B(4,3,9)         =         2.097269	     120.164648
	 B(4,5,6)         =         2.095834	     120.082470
	 B(4,5,11)        =         2.097112	     120.155694
	 B(5,4,10)        =         2.090027	     119.749738
	 B(5,6,12)        =         2.106040	     120.667175
	 B(6,1,7)         =         2.080287	     119.191669
	 B(6,5,11)        =         2.090200	     119.759626
	 B(7,13,17)       =         2.023140	     115.917406
	 B(7,13,18)       =         1.977222	     113.286481
	 B(7,14,15)       =         2.132200	     122.166033
	 B(7,14,16)       =         2.111336	     120.970637
	 B(13,7,14)       =         2.078795	     119.106204
	 B(15,14,16)      =         2.039155	     116.834975
	 B(17,13,18)      =         1.876974	     107.542698
	 D(1,2,3,4)       =        -0.008437	      -0.483429
	 D(1,2,3,9)       =        -3.131934	    -179.446577
	 D(1,6,5,4)       =         0.011327	       0.649016
	 D(1,6,5,11)      =        -3.120842	    -178.811078
	*D(1,7,13,17)     =         1.396264	      80.000018
	 D(1,7,13,18)     =        -2.704757	    -154.971169
	 D(1,7,14,15)     =        -3.057534	    -175.183773
	 D(1,7,14,16)     =         0.118942	       6.814865
	 D(2,1,6,5)       =        -0.026355	      -1.510006
	 D(2,1,6,12)      =        -3.123404	    -178.957883
	 D(2,1,7,13)      =        -2.804273	    -160.672997
	 D(2,1,7,14)      =         0.548728	      31.439781
	 D(2,3,4,5)       =        -0.006698	      -0.383758
	 D(2,3,4,10)      =         3.140551	     179.940311
	 D(3,2,1,6)       =         0.024950	       1.429526
	 D(3,2,1,7)       =        -3.113607	    -178.396532
	 D(3,4,5,6)       =         0.005237	       0.300039
	 D(3,4,5,11)      =         3.137369	     179.757978
	 D(4,3,2,8)       =         3.080181	     176.481386
	 D(4,5,6,12)      =         3.107917	     178.070545
	 D(5,4,3,9)       =         3.116762	     178.577288
	 D(5,6,1,7)       =         3.112253	     178.318979
	 D(6,1,2,8)       =        -3.063071	    -175.501068
	 D(6,1,7,13)      =         0.340333	      19.499670
	 D(6,1,7,14)      =        -2.589851	    -148.387552
	 D(6,5,4,10)      =         3.141166	     179.975572
	 D(7,1,2,8)       =         0.081557	       4.672874
	 D(7,1,6,12)      =         0.015204	       0.871102
	 D(8,2,3,9)       =        -0.043315	      -2.481762
	 D(9,3,4,10)      =        -0.019175	      -1.098643
	 D(10,4,5,11)     =        -0.009887	      -0.566489
	 D(11,5,6,12)     =        -0.024252	      -1.389549
	 D(13,7,14,15)    =         0.294642	      16.881748
	 D(13,7,14,16)    =        -2.812068	    -161.119614
	 D(14,7,13,17)    =        -1.954220	    -111.968585
	 D(14,7,13,18)    =         0.227944	      13.060228

	Current energy   :      -381.4530062963

	Energy change for the previous step:
		Projected    :         0.0000006890
		Actual       :        -0.0000004294

	Performing BFGS update.
	Previous computed or guess Hessian on step 1.
	Steps to be used in Hessian update: 8 7
	Taking RFO optimization step.
	Going to follow RFO solution 1.
	Rejecting RFO root 1 because normalization gives large value.
	Rejecting RFO root 2 because normalization gives large value.
	Using RFO vector 3.
	Norm of target step-size    0.00167
	Projected energy change by RFO approximation:        -0.0000003239

	Back-transformation to cartesian coordinates...
	Successfully converged to displaced geometry.

	Back-transformation to cartesian coordinates to adjust frozen coordinates...
	Successfully converged to displaced geometry.

	--- Internal Coordinate Step in ANG or DEG, aJ/ANG or AJ/DEG ---
	 ---------------------------------------------------------------------------
	   Coordinate                Previous        Force       Change         New 
	   ----------                --------       ------       ------       ------
	    1 R(1,2)          =      1.413894     0.000007    -0.000018     1.413876
	    2 R(1,6)          =      1.411783     0.000151     0.000020     1.411804
	    3 R(1,7)          =      1.450833     0.000024    -0.000038     1.450795
	    4 R(2,3)          =      1.387331    -0.000105    -0.000015     1.387316
	    5 R(2,8)          =      1.086902    -0.000002     0.000002     1.086904
	    6 R(3,4)          =      1.401410     0.000110     0.000017     1.401427
	    7 R(3,9)          =      1.085048     0.000037     0.000004     1.085052
	    8 R(4,5)          =      1.398646    -0.000010    -0.000004     1.398643
	    9 R(4,10)         =      1.085854     0.000031     0.000005     1.085859
	   10 R(5,6)          =      1.389872     0.000127     0.000016     1.389889
	   11 R(5,11)         =      1.085091     0.000012     0.000001     1.085092
	   12 R(6,12)         =      1.084155     0.000094     0.000015     1.084170
	   13 R(7,13)         =      1.374441     0.000241     0.000031     1.374472
	   14 R(7,14)         =      1.326769     0.000333     0.000031     1.326800
	   15 R(13,17)        =      1.019114     0.000418     0.000035     1.019149
	   16 R(13,18)        =      1.019681     0.000403     0.000022     1.019702
	   17 R(14,15)        =      1.014128     0.000001    -0.000004     1.014125
	   18 R(14,16)        =      1.014001     0.000043     0.000004     1.014006
	   19 B(1,2,3)        =    119.852109    -0.000000    -0.002505   119.849603
	   20 B(1,2,8)        =    120.593592     0.000000     0.000826   120.594418
	   21 B(1,6,5)        =    119.627701     0.000000    -0.000524   119.627177
	   22 B(1,6,12)       =    119.655202    -0.000000    -0.000768   119.654434
	   23 B(1,7,13)       =    119.499338     0.000001     0.004733   119.504072
	   24 B(1,7,14)       =    120.291259     0.000001     0.003546   120.294805
	   25 B(2,1,6)        =    119.934397     0.000000     0.002260   119.936658
	   26 B(2,1,7)        =    120.873709     0.000002     0.002997   120.876706
	   27 B(2,3,4)        =    119.862998     0.000000     0.001337   119.864335
	   28 B(2,3,9)        =    119.964202     0.000000    -0.000204   119.963998
	   29 B(3,2,8)        =    119.483779    -0.000000     0.001914   119.485693
	   30 B(3,4,5)        =    120.622987     0.000000     0.001330   120.624317
	   31 B(3,4,10)       =    119.626485    -0.000000    -0.000872   119.625613
	   32 B(4,3,9)        =    120.164648    -0.000000    -0.001027   120.163621
	   33 B(4,5,6)        =    120.082470    -0.000001    -0.002636   120.079834
	   34 B(4,5,11)       =    120.155694    -0.000000    -0.000818   120.154876
	   35 B(5,4,10)       =    119.749738    -0.000000    -0.000544   119.749194
	   36 B(5,6,12)       =    120.667175     0.000000     0.000038   120.667213
	   37 B(6,1,7)        =    119.191669    -0.000002    -0.005216   119.186452
	   38 B(6,5,11)       =    119.759626     0.000001     0.003542   119.763168
	   39 B(7,13,17)      =    115.917406     0.000001     0.006096   115.923502
	   40 B(7,13,18)      =    113.286481    -0.000000    -0.000868   113.285613
	   41 B(7,14,15)      =    122.166033    -0.000001    -0.003421   122.162612
	   42 B(7,14,16)      =    120.970637     0.000001     0.001686   120.972323
	   43 B(13,7,14)      =    119.106204    -0.000003    -0.007954   119.098250
	   44 B(15,14,16)     =    116.834975     0.000000     0.000604   116.835579
	   45 B(17,13,18)     =    107.542698     0.000001    -0.019593   107.523105
	   46 D(1,2,3,4)      =     -0.483429    -0.000000    -0.000321    -0.483750
	   47 D(1,2,3,9)      =   -179.446577    -0.000000    -0.007114  -179.453691
	   48 D(1,6,5,4)      =      0.649016     0.000000     0.021249     0.670265
	   49 D(1,6,5,11)     =   -178.811078     0.000000     0.010366  -178.800713
	   50 *D(1,7,13,17)   =     80.000018    -0.000000     0.000000    80.000018
	   51 D(1,7,13,18)    =   -154.971169     0.000001    -0.023111  -154.994279
	   52 D(1,7,14,15)    =   -175.183773    -0.000001    -0.021138  -175.204911
	   53 D(1,7,14,16)    =      6.814865    -0.000001     0.018294     6.833159
	   54 D(2,1,6,5)      =     -1.510006    -0.000000    -0.035127    -1.545133
	   55 D(2,1,6,12)     =   -178.957883    -0.000000    -0.003283  -178.961167
	   56 D(2,1,7,13)     =   -160.672997    -0.000001     0.022806  -160.650191
	   57 D(2,1,7,14)     =     31.439781     0.000001     0.022008    31.461790
	   58 D(2,3,4,5)      =     -0.383758    -0.000000    -0.013671    -0.397429
	   59 D(2,3,4,10)     =    179.940311     0.000000     0.003436   179.943747
	   60 D(3,2,1,6)      =      1.429526     0.000000     0.024636     1.454162
	   61 D(3,2,1,7)      =   -178.396532     0.000000     0.008001  -178.388531
	   62 D(3,4,5,6)      =      0.300039     0.000000     0.003063     0.303102
	   63 D(3,4,5,11)     =    179.757978     0.000000     0.014013   179.771991
	   64 D(4,3,2,8)      =    176.481386    -0.000000     0.004760   176.486146
	   65 D(4,5,6,12)     =    178.070545    -0.000000    -0.010944   178.059601
	   66 D(5,4,3,9)      =    178.577288    -0.000000    -0.006856   178.570432
	   67 D(5,6,1,7)      =    178.318979    -0.000000    -0.018760   178.300220
	   68 D(6,1,2,8)      =   -175.501068     0.000000     0.019466  -175.481602
	   69 D(6,1,7,13)     =     19.499670    -0.000001     0.006282    19.505952
	   70 D(6,1,7,14)     =   -148.387552     0.000001     0.005484  -148.382067
	   71 D(6,5,4,10)     =    179.975572    -0.000000    -0.014066   179.961505
	   72 D(7,1,2,8)      =      4.672874     0.000000     0.002831     4.675705
	   73 D(7,1,6,12)     =      0.871102     0.000000     0.013084     0.884187
	   74 D(8,2,3,9)      =     -2.481762    -0.000000    -0.002033    -2.483795
	   75 D(9,3,4,10)     =     -1.098643     0.000000     0.010252    -1.088391
	   76 D(10,4,5,11)    =     -0.566489    -0.000000    -0.003116    -0.569605
	   77 D(11,5,6,12)    =     -1.389549    -0.000000    -0.021828    -1.411377
	   78 D(13,7,14,15)   =     16.881748     0.000001    -0.023452    16.858296
	   79 D(13,7,14,16)   =   -161.119614     0.000001     0.015980  -161.103633
	   80 D(14,7,13,17)   =   -111.968585    -0.000001     0.002166  -111.966419
	   81 D(14,7,13,18)   =     13.060228    -0.000001    -0.020945    13.039283
	 ---------------------------------------------------------------------------
	Successfully symmetrized geometry.

  ==> Convergence Check <==

  Measures of convergence in internal coordinates in au.
  Criteria marked as inactive (o), active & met (*), and active & unmet ( ).
  ---------------------------------------------------------------------------------------------
   Step     Total Energy     Delta E     MAX Force     RMS Force      MAX Disp      RMS Disp   
  ---------------------------------------------------------------------------------------------
    Convergence Criteria    1.00e-06 *    3.00e-04 *             o    1.20e-03 *             o
  ---------------------------------------------------------------------------------------------
      9    -381.45300630   -4.29e-07 *    8.35e-05 *    2.23e-05 o    6.13e-04 *    1.86e-04 o  ~
  ---------------------------------------------------------------------------------------------


  **** Optimization is complete! (in 9 steps) ****

  ==> Optimization Summary <==

  Measures of convergence in internal coordinates in au.
  --------------------------------------------------------------------------------------------------------------- ~
   Step         Total Energy             Delta E       MAX Force       RMS Force        MAX Disp        RMS Disp  ~
  --------------------------------------------------------------------------------------------------------------- ~
      1    -381.431580832910   -381.431580832910      0.04803445      0.00619868      0.28510664      0.05446857  ~
      2    -381.440370469957     -0.008789637047      0.02522093      0.00375590      0.38777065      0.06442939  ~
      3    -381.444416431883     -0.004045961926      0.05030596      0.00639578      0.28017882      0.04549608  ~
      4    -381.449140145029     -0.004723713146      0.04070957      0.00520191      0.13502154      0.02865660  ~
      5    -381.452564069158     -0.003423924129      0.01290446      0.00167307      0.08222891      0.01970131  ~
      6    -381.452866024550     -0.000301955392      0.00407431      0.00082859      0.04797825      0.00823308  ~
      7    -381.452997567530     -0.000131542980      0.00105943      0.00021401      0.00935184      0.00258260  ~
      8    -381.453005866808     -0.000008299278      0.00011212      0.00003724      0.00271725      0.00073378  ~
      9    -381.453006296250     -0.000000429443      0.00008347      0.00002230      0.00061308      0.00018555  ~
  --------------------------------------------------------------------------------------------------------------- ~

	Writing optimization data to binary file.
	Final energy is   -381.4530062962502
	Final (previous) structure:
	Cartesian Geometry (in Angstrom)
	    C    -0.0385199891   0.0092749557  -0.1571476596
	    C     0.0821903683   1.2299109450   0.5461104986
	    C     0.1169695084   1.2273217048   1.9330029998
	    C     0.0221058184   0.0158958689   2.6311416840
	    C    -0.1157153168  -1.1939980641   1.9431205535
	    C    -0.1536450683  -1.2049816309   0.5538092159
	    C    -0.0423586917  -0.0169641759  -1.6077385855
	    H     0.0982851464   2.1765917633   0.0123566872
	    H     0.2005137562   2.1637209820   2.4747640593
	    H     0.0507201230   0.0182412685   3.7166161297
	    H    -0.1845624424  -2.1279639248   2.4911998491
	    H    -0.2289023069  -2.1398947767   0.0100584221
	    N    -0.5486596444  -1.1136719023  -2.2634673922
	    N     0.6462399516   0.8849996963  -2.2952048844
	    H     0.6069597734   0.9378372721  -3.3071937977
	    H     1.2637645511   1.5384765374  -1.8263443560
	    H    -1.5639119777  -1.1569613259  -2.3408124597
	    H    -0.1635715593  -1.2369511934  -3.1995539640
	Saving final (previous) structure.
	Removing binary optimization data file.
			--------------------------
			 OPTKING Finished Execution 
			--------------------------

    Final optimized geometry and variables:
    Molecular point group: c1
    Full point group: C1

    Geometry (in Angstrom), charge = 1, multiplicity = 1:

    C           -0.038519989078     0.009274955744    -0.157147659592
    C            0.082190368277     1.229910944957     0.546110498560
    C            0.116969508391     1.227321704811     1.933002999811
    C            0.022105818414     0.015895868870     2.631141683981
    C           -0.115715316830    -1.193998064109     1.943120553476
    C           -0.153645068317    -1.204981630946     0.553809215871
    C           -0.042358691666    -0.016964175877    -1.607738585492
    H            0.098285146360     2.176591763293     0.012356687201
    H            0.200513756160     2.163720981965     2.474764059297
    H            0.050720122958     0.018241268513     3.716616129725
    H           -0.184562442352    -2.127963924798     2.491199849100
    H           -0.228902306940    -2.139894776662     0.010058422131
    N           -0.548659644435    -1.113671902309    -2.263467392233
    N            0.646239951554     0.884999696278    -2.295204884424
    H            0.606959773426     0.937837272080    -3.307193797691
    H            1.263764551146     1.538476537419    -1.826344356026
    H           -1.563911977747    -1.156961325855    -2.340812459700
    H           -0.163571559322    -1.236951193373    -3.199553963996

	Removing binary optimization data file.
	Cleaning optimization helper files.


Properties will be evaluated at   0.000000,   0.000000,   0.000000 [a0]
OEProp: No title given, name of density matrix used for the following properties is 'SCF density'
  Nuclear Dipole Moment: [e a0]
     X:    -0.0217      Y:    -1.9442      Z:     2.2189

  Electronic Dipole Moment: [e a0]
     X:     0.0540      Y:     2.3372      Z:    -4.4079

  Dipole Moment: [e a0]
     X:     0.0323      Y:     0.3930      Z:    -2.1890     Total:     2.2242

  Dipole Moment: [D]
     X:     0.0821      Y:     0.9988      Z:    -5.5638     Total:     5.6534

  Quadrupole Moment: [D A]
    XX:   -48.6301     YY:   -39.9618     ZZ:   -11.9417
    XY:     5.5599     XZ:     0.1403     YZ:    -1.1087

  Traceless Quadrupole Moment: [D A]
    XX:   -15.1189     YY:    -6.4506     ZZ:    21.5695
    XY:     5.5599     XZ:     0.1403     YZ:    -1.1087

  Mulliken Charges: (a.u.)
   Center  Symbol    Alpha    Beta     Spin     Total
       1     C     2.94812  2.94812  0.00000  0.10375
       2     C     3.08464  3.08464  0.00000 -0.16928
       3     C     3.06271  3.06271  0.00000 -0.12542
       4     C     3.04925  3.04925  0.00000 -0.09851
       5     C     3.06255  3.06255  0.00000 -0.12510
       6     C     3.06992  3.06992  0.00000 -0.13984
       7     C     2.76414  2.76414  0.00000  0.47172
       8     H     0.41575  0.41575  0.00000  0.16850
       9     H     0.40468  0.40468  0.00000  0.19064
      10     H     0.40215  0.40215  0.00000  0.19570
      11     H     0.40408  0.40408  0.00000  0.19185
      12     H     0.40207  0.40207  0.00000  0.19586
      13     N     3.85900  3.85900  0.00000 -0.71800
      14     N     3.84589  3.84589  0.00000 -0.69178
      15     H     0.30444  0.30444  0.00000  0.39112
      16     H     0.29941  0.29941  0.00000  0.40117
      17     H     0.30330  0.30330  0.00000  0.39340
      18     H     0.31790  0.31790  0.00000  0.36420

   Total alpha = 32.00000, Total beta = 32.00000, Total charge =  1.00000


    Psi4 stopped on: Saturday, 29 September 2018 08:37PM
    Psi4 wall time for execution: 0:04:36.33

*** Psi4 exiting successfully. Buy a developer a beer!
