
    -----------------------------------------------------------------------
          Psi4: An Open-Source Ab Initio Electronic Structure Package
                               Psi4 1.2.1 release

                         Git: Rev {HEAD} 406f4de 


    R. M. Parrish, L. A. Burns, D. G. A. Smith, A. C. Simmonett,
    A. E. DePrince III, E. G. Hohenstein, U. Bozkaya, A. Yu. Sokolov,
    R. Di Remigio, R. M. Richard, J. F. Gonthier, A. M. James,
    H. R. McAlexander, A. Kumar, M. Saitow, X. Wang, B. P. Pritchard,
    P. Verma, H. F. Schaefer III, K. Patkowski, R. A. King, E. F. Valeev,
    F. A. Evangelista, J. M. Turney, T. D. Crawford, and C. D. Sherrill,
    J. Chem. Theory Comput. 13(7) pp 3185--3197 (2017).
    (doi: 10.1021/acs.jctc.7b00174)


                         Additional Contributions by
    P. Kraus, H. Kruse, M. H. Lechner, M. C. Schieber, and R. A. Shaw

    -----------------------------------------------------------------------


    Psi4 started on: Saturday, 29 September 2018 04:49PM

    Process ID: 4778
    Host:       loro.prib.upf.edu
    PSIDATADIR: /shared/joao/test_parameterize/miniconda3/share/psi4
    Memory:     500.0 MiB
    Threads:    1
    
  ==> Input File <==

--------------------------------------------------------------------------
set_num_threads(1)
set_memory('5348 MB')

set { scf_mem_safety_factor 0.7 }

set { reference rks }
set { basis cc-pVDZ }

molecule MOL {
    0 1
    noreorient
    nocom
    symmetry c1
    O    1.141000   0.017000   0.083000
    C    2.558000   0.086000  -0.005000
    C    3.192000  -0.789000   1.067000
    O    4.536071  -1.094898   0.715903
    H    0.789000   0.590000  -0.620000
    H    2.874000   1.128000   0.115000
    H    2.871000  -0.243000  -1.001000
    H    2.629964  -1.721193   1.181322
    H    3.183526  -0.274479   2.034509
    H    4.890266  -1.652326   1.430540
}

set optking { frozen_dihedral = (" 1 2 3 4 ") }

energy, wfn = energy('B3LYP-D3', return_wfn=True)

import os
os.chdir(os.environ['HTMD_PSI4_WORKDIR'])

oeprop(wfn, 'DIPOLE', 'QUADRUPOLE', 'MULLIKEN_CHARGES')

with open('psi4out.xyz', 'w') as f:
    f.write('10 ' )
    f.write('%.12f\n' % energy)
    f.write(MOL.save_string_xyz())
--------------------------------------------------------------------------
  Threads set to 1 by Python driver.

  Memory set to   4.981 GiB by Python driver.

*** tstart() called on loro.prib.upf.edu
*** at Sat Sep 29 16:49:51 2018

   => Loading Basis Set <=

    Name: CC-PVDZ
    Role: ORBITAL
    Keyword: BASIS
    atoms 1, 4 entry O          line   198 file /shared/joao/test_parameterize/miniconda3/share/psi4/basis/cc-pvdz.gbs 
    atoms 2-3  entry C          line   138 file /shared/joao/test_parameterize/miniconda3/share/psi4/basis/cc-pvdz.gbs 
    atoms 5-10 entry H          line    22 file /shared/joao/test_parameterize/miniconda3/share/psi4/basis/cc-pvdz.gbs 


         ---------------------------------------------------------
                                   SCF
            by Justin Turney, Rob Parrish, Andy Simmonett
                             and Daniel Smith
                              RKS Reference
                        1 Threads,   5100 MiB Core
         ---------------------------------------------------------

  ==> Geometry <==

    Molecular point group: c1
    Full point group: C1

    Geometry (in Angstrom), charge = 0, multiplicity = 1:

       Center              X                  Y                   Z               Mass       
    ------------   -----------------  -----------------  -----------------  -----------------
         O            1.141000000000     0.017000000000     0.083000000000    15.994914619560
         C            2.558000000000     0.086000000000    -0.005000000000    12.000000000000
         C            3.192000000000    -0.789000000000     1.067000000000    12.000000000000
         O            4.536071000000    -1.094898000000     0.715903000000    15.994914619560
         H            0.789000000000     0.590000000000    -0.620000000000     1.007825032070
         H            2.874000000000     1.128000000000     0.115000000000     1.007825032070
         H            2.871000000000    -0.243000000000    -1.001000000000     1.007825032070
         H            2.629964000000    -1.721193000000     1.181322000000     1.007825032070
         H            3.183526000000    -0.274479000000     2.034509000000     1.007825032070
         H            4.890266000000    -1.652326000000     1.430540000000     1.007825032070

  Running in c1 symmetry.

  Rotational constants: A =      0.75297  B =      0.02565  C =      0.02518 [cm^-1]
  Rotational constants: A =  22573.44956  B =    769.11507  C =    754.76585 [MHz]
  Nuclear repulsion =  129.521000865158214

  Charge       = 0
  Multiplicity = 1
  Electrons    = 34
  Nalpha       = 17
  Nbeta        = 17

  ==> Algorithm <==

  SCF Algorithm Type is DF.
  DIIS enabled.
  MOM disabled.
  Fractional occupation disabled.
  Guess Type is SAD.
  Energy threshold   = 1.00e-06
  Density threshold  = 1.00e-06
  Integral threshold = 0.00e+00

  ==> Primary Basis <==

  Basis Set: CC-PVDZ
    Blend: CC-PVDZ
    Number of shells: 42
    Number of basis function: 86
    Number of Cartesian functions: 90
    Spherical Harmonics?: true
    Max angular momentum: 2

  ==> DFT Potential <==

   => Composite Functional: B3LYP-D3ZERO <= 

    B3LYP-d3zero Hyb-GGA Exchange-Correlation Functional

    P. J. Stephens, F. J. Devlin, C. F. Chabalowski, and M. J. Frisch, J. Phys. Chem. 98, 11623 (1994)

    Deriv               =              1
    GGA                 =           TRUE
    Meta                =          FALSE

    Exchange Hybrid     =           TRUE
    MP2 Hybrid          =          FALSE

   => Exchange Functionals <=

    0.0800   Slater exchange
    0.7200         Becke 88

   => Exact (HF) Exchange <=

    0.2000               HF 

   => Correlation Functionals <=

    0.1900   Vosko, Wilk & Nusair (VWN5_RPA)
    0.8100   Lee, Yang & Parr

   => Molecular Quadrature <=

    Radial Scheme       =       TREUTLER
    Pruning Scheme      =           FLAT
    Nuclear Scheme      =       TREUTLER

    BS radius alpha     =              1
    Pruning alpha       =              1
    Radial Points       =             75
    Spherical Points    =            302
    Total Points        =         222560
    Total Blocks        =           1737
    Max Points          =            256
    Max Functions       =             86

   => -D3ZERO: Empirical Dispersion <=

    Grimme's -D3 (zero-damping) Dispersion Correction
    Grimme S.; Antony J.; Ehrlich S.; Krieg H. (2010), J. Chem. Phys., 132: 154104

        S6 =   1.000000E+00
        S8 =   1.703000E+00
       SR6 =   1.261000E+00
       SR8 =   1.000000E+00
    ALPHA6 =   1.400000E+01

   => Loading Basis Set <=

    Name: (CC-PVDZ AUX)
    Role: JKFIT
    Keyword: DF_BASIS_SCF
    atoms 1, 4 entry O          line   221 file /shared/joao/test_parameterize/miniconda3/share/psi4/basis/cc-pvdz-jkfit.gbs 
    atoms 2-3  entry C          line   121 file /shared/joao/test_parameterize/miniconda3/share/psi4/basis/cc-pvdz-jkfit.gbs 
    atoms 5-10 entry H          line    51 file /shared/joao/test_parameterize/miniconda3/share/psi4/basis/cc-pvdz-jkfit.gbs 

  ==> Pre-Iterations <==

   -------------------------------------------------------
    Irrep   Nso     Nmo     Nalpha   Nbeta   Ndocc  Nsocc
   -------------------------------------------------------
     A         86      86       0       0       0       0
   -------------------------------------------------------
    Total      86      86      17      17      17       0
   -------------------------------------------------------

  ==> Integral Setup <==

  DFHelper Memory: AOs need 0.030 [GiB]; user supplied 3.486 [GiB]. Using in-core AOs.

  ==> MemDFJK: Density-Fitted J/K Matrices <==

    J tasked:                   Yes
    K tasked:                   Yes
    wK tasked:                   No
    OpenMP threads:               1
    Memory (MB):               3570
    Algorithm:                 Core
    Schwarz Cutoff:           1E-12
    Mask sparsity (%):       0.4867
    Fitting Condition:        1E-12

   => Auxiliary Basis Set <=

  Basis Set: (CC-PVDZ AUX)
    Blend: CC-PVDZ-JKFIT
    Number of shells: 150
    Number of basis function: 418
    Number of Cartesian functions: 474
    Spherical Harmonics?: true
    Max angular momentum: 3

  Minimum eigenvalue in the overlap matrix is 4.9485924557E-03.
  Using Symmetric Orthogonalization.

  SCF Guess: Superposition of Atomic Densities via on-the-fly atomic UHF.

  ==> Iterations <==

                           Total Energy        Delta E     RMS |[F,P]|

   @DF-RKS iter   0:  -231.03607321925190   -2.31036e+02   4.12279e-02 
   @DF-RKS iter   1:  -230.19205133674558    8.44022e-01   4.64177e-03 
   @DF-RKS iter   2:  -230.16247956968479    2.95718e-02   5.90993e-03 DIIS
   @DF-RKS iter   3:  -230.25501946089449   -9.25399e-02   6.40391e-04 DIIS
   @DF-RKS iter   4:  -230.25609157594326   -1.07212e-03   2.12607e-04 DIIS
   @DF-RKS iter   5:  -230.25624861923123   -1.57043e-04   4.82147e-05 DIIS
   @DF-RKS iter   6:  -230.25625681018232   -8.19095e-06   4.23161e-06 DIIS
   @DF-RKS iter   7:  -230.25625687189753   -6.17152e-08   9.79943e-07 DIIS

  ==> Post-Iterations <==

    Orbital Energies [Eh]
    ---------------------

    Doubly Occupied:                                                      

       1A    -19.131250     2A    -19.131236     3A    -10.226058  
       4A    -10.225862     5A     -1.018635     6A     -1.008145  
       7A     -0.732377     8A     -0.603548     9A     -0.525468  
      10A     -0.488204    11A     -0.464276    12A     -0.412076  
      13A     -0.396405    14A     -0.349709    15A     -0.319541  
      16A     -0.264310    17A     -0.262214  

    Virtual:                                                              

      18A      0.043661    19A      0.058029    20A      0.105432  
      21A      0.122443    22A      0.125051    23A      0.160964  
      24A      0.193369    25A      0.241813    26A      0.244619  
      27A      0.447526    28A      0.450089    29A      0.493497  
      30A      0.535439    31A      0.540731    32A      0.595927  
      33A      0.617508    34A      0.627004    35A      0.639075  
      36A      0.647318    37A      0.656949    38A      0.688319  
      39A      0.870875    40A      0.872173    41A      0.923955  
      42A      0.965128    43A      1.008457    44A      1.050054  
      45A      1.057690    46A      1.188787    47A      1.209938  
      48A      1.219829    49A      1.271107    50A      1.308297  
      51A      1.335404    52A      1.354394    53A      1.487559  
      54A      1.558473    55A      1.594012    56A      1.597506  
      57A      1.613562    58A      1.634091    59A      1.660420  
      60A      1.720586    61A      1.760410    62A      1.777826  
      63A      1.793296    64A      1.907120    65A      1.933578  
      66A      1.970406    67A      2.040304    68A      2.052838  
      69A      2.113522    70A      2.162263    71A      2.249776  
      72A      2.267600    73A      2.406724    74A      2.420380  
      75A      2.495398    76A      2.509458    77A      2.906929  
      78A      2.968517    79A      2.996881    80A      3.036039  
      81A      3.049089    82A      3.140523    83A      3.179091  
      84A      3.207022    85A      3.675399    86A      3.702048  

    Final Occupation by Irrep:
              A 
    DOCC [    17 ]

  Energy converged.

  @DF-RKS Final Energy:  -230.25625687189753

   => Energetics <=

    Nuclear Repulsion Energy =            129.5210008651582143
    One-Electron Energy =                -570.8026306815795579
    Two-Electron Energy =                 235.5693055701999015
    DFT Exchange-Correlation Energy =     -24.5395617356760773
    Empirical Dispersion Energy =          -0.0043708900000000
    VV10 Nonlocal Energy =                  0.0000000000000000
    Total Energy =                       -230.2562568718975058



Properties will be evaluated at   0.000000,   0.000000,   0.000000 [a0]

Properties computed using the SCF density matrix

  Nuclear Dipole Moment: [e a0]
     X:   183.5951      Y:   -28.3727      Z:    30.0534

  Electronic Dipole Moment: [e a0]
     X:  -183.5715      Y:    28.5005      Z:   -29.9638

  Dipole Moment: [e a0]
     X:     0.0236      Y:     0.1278      Z:     0.0896     Total:     0.1579

  Dipole Moment: [D]
     X:     0.0600      Y:     0.3250      Z:     0.2278     Total:     0.4013


*** tstop() called on loro.prib.upf.edu at Sat Sep 29 16:50:06 2018
Module time:
	user time   =      11.73 seconds =       0.20 minutes
	system time =       0.20 seconds =       0.00 minutes
	total time  =         15 seconds =       0.25 minutes
Total time:
	user time   =      11.73 seconds =       0.20 minutes
	system time =       0.20 seconds =       0.00 minutes
	total time  =         15 seconds =       0.25 minutes


Properties will be evaluated at   0.000000,   0.000000,   0.000000 [a0]
OEProp: No title given, name of density matrix used for the following properties is 'SCF density'
  Nuclear Dipole Moment: [e a0]
     X:   183.5951      Y:   -28.3727      Z:    30.0534

  Electronic Dipole Moment: [e a0]
     X:  -183.5715      Y:    28.5005      Z:   -29.9638

  Dipole Moment: [e a0]
     X:     0.0236      Y:     0.1278      Z:     0.0896     Total:     0.1579

  Dipole Moment: [D]
     X:     0.0600      Y:     0.3250      Z:     0.2278     Total:     0.4013

  Quadrupole Moment: [D A]
    XX:   -25.9681     YY:   -22.2489     ZZ:   -21.1684
    XY:    -2.3341     XZ:     5.6473     YZ:    -3.5371

  Traceless Quadrupole Moment: [D A]
    XX:    -2.8397     YY:     0.8796     ZZ:     1.9601
    XY:    -2.3341     XZ:     5.6473     YZ:    -3.5371

  Mulliken Charges: (a.u.)
   Center  Symbol    Alpha    Beta     Spin     Total
       1     O     4.14051  4.14051  0.00000 -0.28102
       2     C     2.93582  2.93582  0.00000  0.12836
       3     C     2.93596  2.93596  0.00000  0.12808
       4     O     4.14071  4.14071  0.00000 -0.28141
       5     H     0.42784  0.42784  0.00000  0.14431
       6     H     0.49884  0.49884  0.00000  0.00231
       7     H     0.49694  0.49694  0.00000  0.00612
       8     H     0.49683  0.49683  0.00000  0.00634
       9     H     0.49875  0.49875  0.00000  0.00250
      10     H     0.42780  0.42780  0.00000  0.14440

   Total alpha = 17.00000, Total beta = 17.00000, Total charge =  0.00000


    Psi4 stopped on: Saturday, 29 September 2018 04:50PM
    Psi4 wall time for execution: 0:00:14.78

*** Psi4 exiting successfully. Buy a developer a beer!
