
    -----------------------------------------------------------------------
          Psi4: An Open-Source Ab Initio Electronic Structure Package
                               Psi4 1.2.1 release

                         Git: Rev {HEAD} 406f4de 


    R. M. Parrish, L. A. Burns, D. G. A. Smith, A. C. Simmonett,
    A. E. DePrince III, E. G. Hohenstein, U. Bozkaya, A. Yu. Sokolov,
    R. Di Remigio, R. M. Richard, J. F. Gonthier, A. M. James,
    H. R. McAlexander, A. Kumar, M. Saitow, X. Wang, B. P. Pritchard,
    P. Verma, H. F. Schaefer III, K. Patkowski, R. A. King, E. F. Valeev,
    F. A. Evangelista, J. M. Turney, T. D. Crawford, and C. D. Sherrill,
    J. Chem. Theory Comput. 13(7) pp 3185--3197 (2017).
    (doi: 10.1021/acs.jctc.7b00174)


                         Additional Contributions by
    P. Kraus, H. Kruse, M. H. Lechner, M. C. Schieber, and R. A. Shaw

    -----------------------------------------------------------------------


    Psi4 started on: Saturday, 29 September 2018 04:50PM

    Process ID: 5023
    Host:       loro.prib.upf.edu
    PSIDATADIR: /shared/joao/test_parameterize/miniconda3/share/psi4
    Memory:     500.0 MiB
    Threads:    1
    
  ==> Input File <==

--------------------------------------------------------------------------
set_num_threads(1)
set_memory('5348 MB')

set { scf_mem_safety_factor 0.7 }

set { reference rks }
set { basis cc-pVDZ }

molecule MOL {
    0 1
    noreorient
    nocom
    symmetry c1
    O    1.141000   0.017000   0.083000
    C    2.558000   0.086000  -0.005000
    C    3.192000  -0.789000   1.067000
    O    4.610000  -0.719000   0.979000
    H    0.789000   0.590000  -0.620000
    H    2.874000   1.128000   0.115000
    H    2.871000  -0.243000  -1.001000
    H    2.876000  -1.830000   0.947000
    H    2.879000  -0.459000   2.064000
    H    4.899207  -1.519002   0.506515
}

set optking { frozen_dihedral = (" 2 3 4 10 ") }

energy, wfn = energy('B3LYP-D3', return_wfn=True)

import os
os.chdir(os.environ['HTMD_PSI4_WORKDIR'])

oeprop(wfn, 'DIPOLE', 'QUADRUPOLE', 'MULLIKEN_CHARGES')

with open('psi4out.xyz', 'w') as f:
    f.write('10 ' )
    f.write('%.12f\n' % energy)
    f.write(MOL.save_string_xyz())
--------------------------------------------------------------------------
  Threads set to 1 by Python driver.

  Memory set to   4.981 GiB by Python driver.

*** tstart() called on loro.prib.upf.edu
*** at Sat Sep 29 16:50:08 2018

   => Loading Basis Set <=

    Name: CC-PVDZ
    Role: ORBITAL
    Keyword: BASIS
    atoms 1, 4 entry O          line   198 file /shared/joao/test_parameterize/miniconda3/share/psi4/basis/cc-pvdz.gbs 
    atoms 2-3  entry C          line   138 file /shared/joao/test_parameterize/miniconda3/share/psi4/basis/cc-pvdz.gbs 
    atoms 5-10 entry H          line    22 file /shared/joao/test_parameterize/miniconda3/share/psi4/basis/cc-pvdz.gbs 


         ---------------------------------------------------------
                                   SCF
            by Justin Turney, Rob Parrish, Andy Simmonett
                             and Daniel Smith
                              RKS Reference
                        1 Threads,   5100 MiB Core
         ---------------------------------------------------------

  ==> Geometry <==

    Molecular point group: c1
    Full point group: C1

    Geometry (in Angstrom), charge = 0, multiplicity = 1:

       Center              X                  Y                   Z               Mass       
    ------------   -----------------  -----------------  -----------------  -----------------
         O            1.141000000000     0.017000000000     0.083000000000    15.994914619560
         C            2.558000000000     0.086000000000    -0.005000000000    12.000000000000
         C            3.192000000000    -0.789000000000     1.067000000000    12.000000000000
         O            4.610000000000    -0.719000000000     0.979000000000    15.994914619560
         H            0.789000000000     0.590000000000    -0.620000000000     1.007825032070
         H            2.874000000000     1.128000000000     0.115000000000     1.007825032070
         H            2.871000000000    -0.243000000000    -1.001000000000     1.007825032070
         H            2.876000000000    -1.830000000000     0.947000000000     1.007825032070
         H            2.879000000000    -0.459000000000     2.064000000000     1.007825032070
         H            4.899207000000    -1.519002000000     0.506515000000     1.007825032070

  Running in c1 symmetry.

  Rotational constants: A =      0.81673  B =      0.02545  C =      0.02497 [cm^-1]
  Rotational constants: A =  24484.99108  B =    762.85158  C =    748.67025 [MHz]
  Nuclear repulsion =  129.659889989948454

  Charge       = 0
  Multiplicity = 1
  Electrons    = 34
  Nalpha       = 17
  Nbeta        = 17

  ==> Algorithm <==

  SCF Algorithm Type is DF.
  DIIS enabled.
  MOM disabled.
  Fractional occupation disabled.
  Guess Type is SAD.
  Energy threshold   = 1.00e-06
  Density threshold  = 1.00e-06
  Integral threshold = 0.00e+00

  ==> Primary Basis <==

  Basis Set: CC-PVDZ
    Blend: CC-PVDZ
    Number of shells: 42
    Number of basis function: 86
    Number of Cartesian functions: 90
    Spherical Harmonics?: true
    Max angular momentum: 2

  ==> DFT Potential <==

   => Composite Functional: B3LYP-D3ZERO <= 

    B3LYP-d3zero Hyb-GGA Exchange-Correlation Functional

    P. J. Stephens, F. J. Devlin, C. F. Chabalowski, and M. J. Frisch, J. Phys. Chem. 98, 11623 (1994)

    Deriv               =              1
    GGA                 =           TRUE
    Meta                =          FALSE

    Exchange Hybrid     =           TRUE
    MP2 Hybrid          =          FALSE

   => Exchange Functionals <=

    0.0800   Slater exchange
    0.7200         Becke 88

   => Exact (HF) Exchange <=

    0.2000               HF 

   => Correlation Functionals <=

    0.1900   Vosko, Wilk & Nusair (VWN5_RPA)
    0.8100   Lee, Yang & Parr

   => Molecular Quadrature <=

    Radial Scheme       =       TREUTLER
    Pruning Scheme      =           FLAT
    Nuclear Scheme      =       TREUTLER

    BS radius alpha     =              1
    Pruning alpha       =              1
    Radial Points       =             75
    Spherical Points    =            302
    Total Points        =         222553
    Total Blocks        =           1741
    Max Points          =            256
    Max Functions       =             86

   => -D3ZERO: Empirical Dispersion <=

    Grimme's -D3 (zero-damping) Dispersion Correction
    Grimme S.; Antony J.; Ehrlich S.; Krieg H. (2010), J. Chem. Phys., 132: 154104

        S6 =   1.000000E+00
        S8 =   1.703000E+00
       SR6 =   1.261000E+00
       SR8 =   1.000000E+00
    ALPHA6 =   1.400000E+01

   => Loading Basis Set <=

    Name: (CC-PVDZ AUX)
    Role: JKFIT
    Keyword: DF_BASIS_SCF
    atoms 1, 4 entry O          line   221 file /shared/joao/test_parameterize/miniconda3/share/psi4/basis/cc-pvdz-jkfit.gbs 
    atoms 2-3  entry C          line   121 file /shared/joao/test_parameterize/miniconda3/share/psi4/basis/cc-pvdz-jkfit.gbs 
    atoms 5-10 entry H          line    51 file /shared/joao/test_parameterize/miniconda3/share/psi4/basis/cc-pvdz-jkfit.gbs 

  ==> Pre-Iterations <==

   -------------------------------------------------------
    Irrep   Nso     Nmo     Nalpha   Nbeta   Ndocc  Nsocc
   -------------------------------------------------------
     A         86      86       0       0       0       0
   -------------------------------------------------------
    Total      86      86      17      17      17       0
   -------------------------------------------------------

  ==> Integral Setup <==

  DFHelper Memory: AOs need 0.030 [GiB]; user supplied 3.486 [GiB]. Using in-core AOs.

  ==> MemDFJK: Density-Fitted J/K Matrices <==

    J tasked:                   Yes
    K tasked:                   Yes
    wK tasked:                   No
    OpenMP threads:               1
    Memory (MB):               3570
    Algorithm:                 Core
    Schwarz Cutoff:           1E-12
    Mask sparsity (%):       0.3245
    Fitting Condition:        1E-12

   => Auxiliary Basis Set <=

  Basis Set: (CC-PVDZ AUX)
    Blend: CC-PVDZ-JKFIT
    Number of shells: 150
    Number of basis function: 418
    Number of Cartesian functions: 474
    Spherical Harmonics?: true
    Max angular momentum: 3

  Minimum eigenvalue in the overlap matrix is 5.1168867002E-03.
  Using Symmetric Orthogonalization.

  SCF Guess: Superposition of Atomic Densities via on-the-fly atomic UHF.

  ==> Iterations <==

                           Total Energy        Delta E     RMS |[F,P]|

   @DF-RKS iter   0:  -231.04906182285643   -2.31049e+02   4.14243e-02 
   @DF-RKS iter   1:  -230.19276249088489    8.56299e-01   4.65601e-03 
   @DF-RKS iter   2:  -230.16551227641179    2.72502e-02   5.86830e-03 DIIS
   @DF-RKS iter   3:  -230.25625290945655   -9.07406e-02   6.97485e-04 DIIS
   @DF-RKS iter   4:  -230.25754643931700   -1.29353e-03   2.15713e-04 DIIS
   @DF-RKS iter   5:  -230.25770973904446   -1.63300e-04   4.63563e-05 DIIS
   @DF-RKS iter   6:  -230.25771719890679   -7.45986e-06   6.69817e-06 DIIS
   @DF-RKS iter   7:  -230.25771728488854   -8.59818e-08   3.99727e-06 DIIS
   @DF-RKS iter   8:  -230.25771732737860   -4.24901e-08   4.65545e-07 DIIS

  ==> Post-Iterations <==

    Orbital Energies [Eh]
    ---------------------

    Doubly Occupied:                                                      

       1A    -19.134565     2A    -19.130839     3A    -10.227072  
       4A    -10.223967     5A     -1.020274     6A     -1.009192  
       7A     -0.730781     8A     -0.609552     9A     -0.523971  
      10A     -0.493672    11A     -0.452638    12A     -0.425829  
      13A     -0.396718    14A     -0.337842    15A     -0.325774  
      16A     -0.269655    17A     -0.263939  

    Virtual:                                                              

      18A      0.042864    19A      0.051779    20A      0.106843  
      21A      0.119361    22A      0.126229    23A      0.163768  
      24A      0.187070    25A      0.246743    26A      0.251554  
      27A      0.434617    28A      0.441836    29A      0.503932  
      30A      0.523796    31A      0.554151    32A      0.588294  
      33A      0.604289    34A      0.623165    35A      0.635665  
      36A      0.648479    37A      0.662346    38A      0.681606  
      39A      0.883478    40A      0.906022    41A      0.910129  
      42A      0.971669    43A      1.015384    44A      1.058781  
      45A      1.062715    46A      1.086688    47A      1.202989  
      48A      1.216791    49A      1.280915    50A      1.341773  
      51A      1.347333    52A      1.399243    53A      1.448368  
      54A      1.522700    55A      1.596019    56A      1.602531  
      57A      1.642190    58A      1.650788    59A      1.667878  
      60A      1.704276    61A      1.734244    62A      1.761658  
      63A      1.828096    64A      1.846641    65A      1.914811  
      66A      1.985162    67A      2.034358    68A      2.083829  
      69A      2.096957    70A      2.163906    71A      2.245052  
      72A      2.289617    73A      2.404350    74A      2.430095  
      75A      2.471264    76A      2.521585    77A      2.912145  
      78A      2.941471    79A      2.969805    80A      3.031209  
      81A      3.066061    82A      3.144592    83A      3.191532  
      84A      3.232358    85A      3.664590    86A      3.691498  

    Final Occupation by Irrep:
              A 
    DOCC [    17 ]

  Energy converged.

  @DF-RKS Final Energy:  -230.25771732737860

   => Energetics <=

    Nuclear Repulsion Energy =            129.6598899899484536
    One-Electron Energy =                -571.0497360984193165
    Two-Electron Energy =                 235.6754785195943782
    DFT Exchange-Correlation Energy =     -24.5388266785021187
    Empirical Dispersion Energy =          -0.0045230600000000
    VV10 Nonlocal Energy =                  0.0000000000000000
    Total Energy =                       -230.2577173273786002



Properties will be evaluated at   0.000000,   0.000000,   0.000000 [a0]

Properties computed using the SCF density matrix

  Nuclear Dipole Moment: [e a0]
     X:   184.6191      Y:   -22.9923      Z:    31.8977

  Electronic Dipole Moment: [e a0]
     X:  -184.6479      Y:    22.8361      Z:   -32.5505

  Dipole Moment: [e a0]
     X:    -0.0288      Y:    -0.1562      Z:    -0.6528     Total:     0.6718

  Dipole Moment: [D]
     X:    -0.0733      Y:    -0.3970      Z:    -1.6593     Total:     1.7077


*** tstop() called on loro.prib.upf.edu at Sat Sep 29 16:50:23 2018
Module time:
	user time   =      12.92 seconds =       0.22 minutes
	system time =       0.23 seconds =       0.00 minutes
	total time  =         15 seconds =       0.25 minutes
Total time:
	user time   =      12.92 seconds =       0.22 minutes
	system time =       0.23 seconds =       0.00 minutes
	total time  =         15 seconds =       0.25 minutes


Properties will be evaluated at   0.000000,   0.000000,   0.000000 [a0]
OEProp: No title given, name of density matrix used for the following properties is 'SCF density'
  Nuclear Dipole Moment: [e a0]
     X:   184.6191      Y:   -22.9923      Z:    31.8977

  Electronic Dipole Moment: [e a0]
     X:  -184.6479      Y:    22.8361      Z:   -32.5505

  Dipole Moment: [e a0]
     X:    -0.0288      Y:    -0.1562      Z:    -0.6528     Total:     0.6718

  Dipole Moment: [D]
     X:    -0.0733      Y:    -0.3970      Z:    -1.6593     Total:     1.7077

  Quadrupole Moment: [D A]
    XX:   -27.4217     YY:   -21.0173     ZZ:   -24.9357
    XY:    -5.5941     XZ:    -4.4780     YZ:    -0.7492

  Traceless Quadrupole Moment: [D A]
    XX:    -2.9635     YY:     3.4409     ZZ:    -0.4775
    XY:    -5.5941     XZ:    -4.4780     YZ:    -0.7492

  Mulliken Charges: (a.u.)
   Center  Symbol    Alpha    Beta     Spin     Total
       1     O     4.14094  4.14094  0.00000 -0.28188
       2     C     2.93670  2.93670  0.00000  0.12660
       3     C     2.93575  2.93575  0.00000  0.12849
       4     O     4.13970  4.13970  0.00000 -0.27939
       5     H     0.42816  0.42816  0.00000  0.14369
       6     H     0.49799  0.49799  0.00000  0.00401
       7     H     0.50658  0.50658  0.00000 -0.01316
       8     H     0.49713  0.49713  0.00000  0.00575
       9     H     0.48854  0.48854  0.00000  0.02292
      10     H     0.42852  0.42852  0.00000  0.14296

   Total alpha = 17.00000, Total beta = 17.00000, Total charge =  0.00000


    Psi4 stopped on: Saturday, 29 September 2018 04:50PM
    Psi4 wall time for execution: 0:00:15.81

*** Psi4 exiting successfully. Buy a developer a beer!
