
    -----------------------------------------------------------------------
          Psi4: An Open-Source Ab Initio Electronic Structure Package
                               Psi4 1.2.1 release

                         Git: Rev {HEAD} 406f4de 


    R. M. Parrish, L. A. Burns, D. G. A. Smith, A. C. Simmonett,
    A. E. DePrince III, E. G. Hohenstein, U. Bozkaya, A. Yu. Sokolov,
    R. Di Remigio, R. M. Richard, J. F. Gonthier, A. M. James,
    H. R. McAlexander, A. Kumar, M. Saitow, X. Wang, B. P. Pritchard,
    P. Verma, H. F. Schaefer III, K. Patkowski, R. A. King, E. F. Valeev,
    F. A. Evangelista, J. M. Turney, T. D. Crawford, and C. D. Sherrill,
    J. Chem. Theory Comput. 13(7) pp 3185--3197 (2017).
    (doi: 10.1021/acs.jctc.7b00174)


                         Additional Contributions by
    P. Kraus, H. Kruse, M. H. Lechner, M. C. Schieber, and R. A. Shaw

    -----------------------------------------------------------------------


    Psi4 started on: Saturday, 29 September 2018 04:49PM

    Process ID: 4701
    Host:       loro.prib.upf.edu
    PSIDATADIR: /shared/joao/test_parameterize/miniconda3/share/psi4
    Memory:     500.0 MiB
    Threads:    1
    
  ==> Input File <==

--------------------------------------------------------------------------
set_num_threads(1)
set_memory('5348 MB')

set { scf_mem_safety_factor 0.7 }

set { reference rks }
set { basis cc-pVDZ }

molecule MOL {
    0 1
    noreorient
    nocom
    symmetry c1
    O    1.141000   0.017000   0.083000
    C    2.558000   0.086000  -0.005000
    C    3.192000  -0.789000   1.067000
    O    3.808973  -1.923107   0.469912
    H    0.789000   0.590000  -0.620000
    H    2.874000   1.128000   0.115000
    H    2.871000  -0.243000  -1.001000
    H    2.435020  -1.126999   1.781615
    H    3.947066  -0.223450   1.624591
    H    4.195128  -2.443938   1.195519
}

set optking { frozen_dihedral = (" 1 2 3 4 ") }

energy, wfn = energy('B3LYP-D3', return_wfn=True)

import os
os.chdir(os.environ['HTMD_PSI4_WORKDIR'])

oeprop(wfn, 'DIPOLE', 'QUADRUPOLE', 'MULLIKEN_CHARGES')

with open('psi4out.xyz', 'w') as f:
    f.write('10 ' )
    f.write('%.12f\n' % energy)
    f.write(MOL.save_string_xyz())
--------------------------------------------------------------------------
  Threads set to 1 by Python driver.

  Memory set to   4.981 GiB by Python driver.

*** tstart() called on loro.prib.upf.edu
*** at Sat Sep 29 16:49:51 2018

   => Loading Basis Set <=

    Name: CC-PVDZ
    Role: ORBITAL
    Keyword: BASIS
    atoms 1, 4 entry O          line   198 file /shared/joao/test_parameterize/miniconda3/share/psi4/basis/cc-pvdz.gbs 
    atoms 2-3  entry C          line   138 file /shared/joao/test_parameterize/miniconda3/share/psi4/basis/cc-pvdz.gbs 
    atoms 5-10 entry H          line    22 file /shared/joao/test_parameterize/miniconda3/share/psi4/basis/cc-pvdz.gbs 


         ---------------------------------------------------------
                                   SCF
            by Justin Turney, Rob Parrish, Andy Simmonett
                             and Daniel Smith
                              RKS Reference
                        1 Threads,   5100 MiB Core
         ---------------------------------------------------------

  ==> Geometry <==

    Molecular point group: c1
    Full point group: C1

    Geometry (in Angstrom), charge = 0, multiplicity = 1:

       Center              X                  Y                   Z               Mass       
    ------------   -----------------  -----------------  -----------------  -----------------
         O            1.141000000000     0.017000000000     0.083000000000    15.994914619560
         C            2.558000000000     0.086000000000    -0.005000000000    12.000000000000
         C            3.192000000000    -0.789000000000     1.067000000000    12.000000000000
         O            3.808973000000    -1.923107000000     0.469912000000    15.994914619560
         H            0.789000000000     0.590000000000    -0.620000000000     1.007825032070
         H            2.874000000000     1.128000000000     0.115000000000     1.007825032070
         H            2.871000000000    -0.243000000000    -1.001000000000     1.007825032070
         H            2.435020000000    -1.126999000000     1.781615000000     1.007825032070
         H            3.947066000000    -0.223450000000     1.624591000000     1.007825032070
         H            4.195128000000    -2.443938000000     1.195519000000     1.007825032070

  Running in c1 symmetry.

  Rotational constants: A =      0.44894  B =      0.02878  C =      0.02805 [cm^-1]
  Rotational constants: A =  13458.86213  B =    862.92600  C =    840.86000 [MHz]
  Nuclear repulsion =  130.322359879281152

  Charge       = 0
  Multiplicity = 1
  Electrons    = 34
  Nalpha       = 17
  Nbeta        = 17

  ==> Algorithm <==

  SCF Algorithm Type is DF.
  DIIS enabled.
  MOM disabled.
  Fractional occupation disabled.
  Guess Type is SAD.
  Energy threshold   = 1.00e-06
  Density threshold  = 1.00e-06
  Integral threshold = 0.00e+00

  ==> Primary Basis <==

  Basis Set: CC-PVDZ
    Blend: CC-PVDZ
    Number of shells: 42
    Number of basis function: 86
    Number of Cartesian functions: 90
    Spherical Harmonics?: true
    Max angular momentum: 2

  ==> DFT Potential <==

   => Composite Functional: B3LYP-D3ZERO <= 

    B3LYP-d3zero Hyb-GGA Exchange-Correlation Functional

    P. J. Stephens, F. J. Devlin, C. F. Chabalowski, and M. J. Frisch, J. Phys. Chem. 98, 11623 (1994)

    Deriv               =              1
    GGA                 =           TRUE
    Meta                =          FALSE

    Exchange Hybrid     =           TRUE
    MP2 Hybrid          =          FALSE

   => Exchange Functionals <=

    0.0800   Slater exchange
    0.7200         Becke 88

   => Exact (HF) Exchange <=

    0.2000               HF 

   => Correlation Functionals <=

    0.1900   Vosko, Wilk & Nusair (VWN5_RPA)
    0.8100   Lee, Yang & Parr

   => Molecular Quadrature <=

    Radial Scheme       =       TREUTLER
    Pruning Scheme      =           FLAT
    Nuclear Scheme      =       TREUTLER

    BS radius alpha     =              1
    Pruning alpha       =              1
    Radial Points       =             75
    Spherical Points    =            302
    Total Points        =         222559
    Total Blocks        =           1735
    Max Points          =            256
    Max Functions       =             86

   => -D3ZERO: Empirical Dispersion <=

    Grimme's -D3 (zero-damping) Dispersion Correction
    Grimme S.; Antony J.; Ehrlich S.; Krieg H. (2010), J. Chem. Phys., 132: 154104

        S6 =   1.000000E+00
        S8 =   1.703000E+00
       SR6 =   1.261000E+00
       SR8 =   1.000000E+00
    ALPHA6 =   1.400000E+01

   => Loading Basis Set <=

    Name: (CC-PVDZ AUX)
    Role: JKFIT
    Keyword: DF_BASIS_SCF
    atoms 1, 4 entry O          line   221 file /shared/joao/test_parameterize/miniconda3/share/psi4/basis/cc-pvdz-jkfit.gbs 
    atoms 2-3  entry C          line   121 file /shared/joao/test_parameterize/miniconda3/share/psi4/basis/cc-pvdz-jkfit.gbs 
    atoms 5-10 entry H          line    51 file /shared/joao/test_parameterize/miniconda3/share/psi4/basis/cc-pvdz-jkfit.gbs 

  ==> Pre-Iterations <==

   -------------------------------------------------------
    Irrep   Nso     Nmo     Nalpha   Nbeta   Ndocc  Nsocc
   -------------------------------------------------------
     A         86      86       0       0       0       0
   -------------------------------------------------------
    Total      86      86      17      17      17       0
   -------------------------------------------------------

  ==> Integral Setup <==

  DFHelper Memory: AOs need 0.030 [GiB]; user supplied 3.486 [GiB]. Using in-core AOs.

  ==> MemDFJK: Density-Fitted J/K Matrices <==

    J tasked:                   Yes
    K tasked:                   Yes
    wK tasked:                   No
    OpenMP threads:               1
    Memory (MB):               3570
    Algorithm:                 Core
    Schwarz Cutoff:           1E-12
    Mask sparsity (%):       0.1893
    Fitting Condition:        1E-12

   => Auxiliary Basis Set <=

  Basis Set: (CC-PVDZ AUX)
    Blend: CC-PVDZ-JKFIT
    Number of shells: 150
    Number of basis function: 418
    Number of Cartesian functions: 474
    Spherical Harmonics?: true
    Max angular momentum: 3

  Minimum eigenvalue in the overlap matrix is 4.9616818871E-03.
  Using Symmetric Orthogonalization.

  SCF Guess: Superposition of Atomic Densities via on-the-fly atomic UHF.

  ==> Iterations <==

                           Total Energy        Delta E     RMS |[F,P]|

   @DF-RKS iter   0:  -230.86234269377849   -2.30862e+02   3.96788e-02 
   @DF-RKS iter   1:  -230.15712957105575    7.05213e-01   5.65372e-03 
   @DF-RKS iter   2:  -230.08470979531683    7.24198e-02   7.78948e-03 DIIS
   @DF-RKS iter   3:  -230.25225276164002   -1.67543e-01   6.51744e-04 DIIS
   @DF-RKS iter   4:  -230.25334114239905   -1.08838e-03   2.93778e-04 DIIS
   @DF-RKS iter   5:  -230.25363738852496   -2.96246e-04   5.00604e-05 DIIS
   @DF-RKS iter   6:  -230.25364593126841   -8.54274e-06   8.03747e-06 DIIS
   @DF-RKS iter   7:  -230.25364609464651   -1.63378e-07   3.89271e-06 DIIS
   @DF-RKS iter   8:  -230.25364613345150   -3.88050e-08   9.35715e-07 DIIS

  ==> Post-Iterations <==

    Orbital Energies [Eh]
    ---------------------

    Doubly Occupied:                                                      

       1A    -19.127665     2A    -19.127622     3A    -10.225549  
       4A    -10.225359     5A     -1.017005     6A     -1.004107  
       7A     -0.732898     8A     -0.603177     9A     -0.518678  
      10A     -0.507764    11A     -0.432994    12A     -0.412065  
      13A     -0.410248    14A     -0.345695    15A     -0.319732  
      16A     -0.266805    17A     -0.254896  

    Virtual:                                                              

      18A      0.051869    19A      0.055458    20A      0.105417  
      21A      0.123790    22A      0.128329    23A      0.148096  
      24A      0.195350    25A      0.230900    26A      0.240850  
      27A      0.467809    28A      0.490529    29A      0.492594  
      30A      0.507933    31A      0.536667    32A      0.594764  
      33A      0.601415    34A      0.621758    35A      0.644789  
      36A      0.648427    37A      0.688745    38A      0.691728  
      39A      0.835087    40A      0.843844    41A      0.922963  
      42A      0.982977    43A      0.997633    44A      1.044115  
      45A      1.059725    46A      1.204391    47A      1.207301  
      48A      1.236972    49A      1.307174    50A      1.320628  
      51A      1.343087    52A      1.363147    53A      1.498090  
      54A      1.513360    55A      1.567668    56A      1.567976  
      57A      1.613433    58A      1.633964    59A      1.638603  
      60A      1.738092    61A      1.742834    62A      1.798664  
      63A      1.865531    64A      1.908364    65A      1.967281  
      66A      1.980517    67A      2.023528    68A      2.041924  
      69A      2.103378    70A      2.173394    71A      2.199501  
      72A      2.268614    73A      2.405033    74A      2.426770  
      75A      2.478347    76A      2.516937    77A      2.919255  
      78A      2.949269    79A      2.974105    80A      3.050401  
      81A      3.096832    82A      3.115570    83A      3.185365  
      84A      3.197993    85A      3.679733    86A      3.695621  

    Final Occupation by Irrep:
              A 
    DOCC [    17 ]

  Energy converged.

  @DF-RKS Final Energy:  -230.25364613345150

   => Energetics <=

    Nuclear Repulsion Energy =            130.3223598792811515
    One-Electron Energy =                -572.4534796917581616
    Two-Electron Energy =                 236.4229721550540830
    DFT Exchange-Correlation Energy =     -24.5412461660285928
    Empirical Dispersion Energy =          -0.0042523100000000
    VV10 Nonlocal Energy =                  0.0000000000000000
    Total Energy =                       -230.2536461334514968



Properties will be evaluated at   0.000000,   0.000000,   0.000000 [a0]

Properties computed using the SCF density matrix

  Nuclear Dipole Moment: [e a0]
     X:   172.3638      Y:   -41.1700      Z:    26.2502

  Electronic Dipole Moment: [e a0]
     X:  -172.0937      Y:    41.5782      Z:   -26.0776

  Dipole Moment: [e a0]
     X:     0.2701      Y:     0.4082      Z:     0.1726     Total:     0.5190

  Dipole Moment: [D]
     X:     0.6865      Y:     1.0376      Z:     0.4386     Total:     1.3192


*** tstop() called on loro.prib.upf.edu at Sat Sep 29 16:50:07 2018
Module time:
	user time   =      12.76 seconds =       0.21 minutes
	system time =       0.21 seconds =       0.00 minutes
	total time  =         16 seconds =       0.27 minutes
Total time:
	user time   =      12.76 seconds =       0.21 minutes
	system time =       0.21 seconds =       0.00 minutes
	total time  =         16 seconds =       0.27 minutes


Properties will be evaluated at   0.000000,   0.000000,   0.000000 [a0]
OEProp: No title given, name of density matrix used for the following properties is 'SCF density'
  Nuclear Dipole Moment: [e a0]
     X:   172.3638      Y:   -41.1700      Z:    26.2502

  Electronic Dipole Moment: [e a0]
     X:  -172.0937      Y:    41.5782      Z:   -26.0776

  Dipole Moment: [e a0]
     X:     0.2701      Y:     0.4082      Z:     0.1726     Total:     0.5190

  Dipole Moment: [D]
     X:     0.6865      Y:     1.0376      Z:     0.4386     Total:     1.3192

  Quadrupole Moment: [D A]
    XX:   -21.2655     YY:   -23.5443     ZZ:   -21.4308
    XY:     0.0926     XZ:     5.7660     YZ:    -4.3353

  Traceless Quadrupole Moment: [D A]
    XX:     0.8147     YY:    -1.4641     ZZ:     0.6494
    XY:     0.0926     XZ:     5.7660     YZ:    -4.3353

  Mulliken Charges: (a.u.)
   Center  Symbol    Alpha    Beta     Spin     Total
       1     O     4.13961  4.13961  0.00000 -0.27921
       2     C     2.93224  2.93224  0.00000  0.13552
       3     C     2.93234  2.93234  0.00000  0.13531
       4     O     4.13982  4.13982  0.00000 -0.27965
       5     H     0.43079  0.43079  0.00000  0.13842
       6     H     0.50327  0.50327  0.00000 -0.00654
       7     H     0.49405  0.49405  0.00000  0.01191
       8     H     0.49397  0.49397  0.00000  0.01206
       9     H     0.50317  0.50317  0.00000 -0.00634
      10     H     0.43074  0.43074  0.00000  0.13852

   Total alpha = 17.00000, Total beta = 17.00000, Total charge = -0.00000


    Psi4 stopped on: Saturday, 29 September 2018 04:50PM
    Psi4 wall time for execution: 0:00:16.39

*** Psi4 exiting successfully. Buy a developer a beer!
