
    -----------------------------------------------------------------------
          Psi4: An Open-Source Ab Initio Electronic Structure Package
                               Psi4 1.2.1 release

                         Git: Rev {HEAD} 406f4de 


    R. M. Parrish, L. A. Burns, D. G. A. Smith, A. C. Simmonett,
    A. E. DePrince III, E. G. Hohenstein, U. Bozkaya, A. Yu. Sokolov,
    R. Di Remigio, R. M. Richard, J. F. Gonthier, A. M. James,
    H. R. McAlexander, A. Kumar, M. Saitow, X. Wang, B. P. Pritchard,
    P. Verma, H. F. Schaefer III, K. Patkowski, R. A. King, E. F. Valeev,
    F. A. Evangelista, J. M. Turney, T. D. Crawford, and C. D. Sherrill,
    J. Chem. Theory Comput. 13(7) pp 3185--3197 (2017).
    (doi: 10.1021/acs.jctc.7b00174)


                         Additional Contributions by
    P. Kraus, H. Kruse, M. H. Lechner, M. C. Schieber, and R. A. Shaw

    -----------------------------------------------------------------------


    Psi4 started on: Saturday, 29 September 2018 05:10PM

    Process ID: 14048
    Host:       loro.prib.upf.edu
    PSIDATADIR: /shared/joao/test_parameterize/miniconda3/share/psi4
    Memory:     500.0 MiB
    Threads:    1
    
  ==> Input File <==

--------------------------------------------------------------------------
set_num_threads(1)
set_memory('5348 MB')

set { scf_mem_safety_factor 0.7 }

set { reference rks }
set { basis cc-pVDZ }

molecule MOL {
    0 1
    noreorient
    nocom
    symmetry c1
    O    1.050400   0.042900  -0.048100
    C    2.474100   0.047400  -0.029000
    C    3.002600  -1.068900  -0.932000
    N    4.462700  -1.072400  -1.006800
    H    0.783559   0.028133  -0.983295
    H    2.809900  -0.097900   1.003200
    H    2.817400   1.026800  -0.378600
    H    2.581000  -0.963300  -1.938400
    H    2.653800  -2.036400  -0.553400
    H    4.779000  -0.221000  -1.470000
    H    4.758600  -1.842500  -1.606500
}

set optking { frozen_dihedral = (" 3 2 1 5 ") }

energy, wfn = energy('B3LYP-D3', return_wfn=True)

import os
os.chdir(os.environ['HTMD_PSI4_WORKDIR'])

oeprop(wfn, 'DIPOLE', 'QUADRUPOLE', 'MULLIKEN_CHARGES')

with open('psi4out.xyz', 'w') as f:
    f.write('11 ' )
    f.write('%.12f\n' % energy)
    f.write(MOL.save_string_xyz())
--------------------------------------------------------------------------
  Threads set to 1 by Python driver.

  Memory set to   4.981 GiB by Python driver.

*** tstart() called on loro.prib.upf.edu
*** at Sat Sep 29 17:10:41 2018

   => Loading Basis Set <=

    Name: CC-PVDZ
    Role: ORBITAL
    Keyword: BASIS
    atoms 1    entry O          line   198 file /shared/joao/test_parameterize/miniconda3/share/psi4/basis/cc-pvdz.gbs 
    atoms 2-3  entry C          line   138 file /shared/joao/test_parameterize/miniconda3/share/psi4/basis/cc-pvdz.gbs 
    atoms 4    entry N          line   168 file /shared/joao/test_parameterize/miniconda3/share/psi4/basis/cc-pvdz.gbs 
    atoms 5-11 entry H          line    22 file /shared/joao/test_parameterize/miniconda3/share/psi4/basis/cc-pvdz.gbs 


         ---------------------------------------------------------
                                   SCF
            by Justin Turney, Rob Parrish, Andy Simmonett
                             and Daniel Smith
                              RKS Reference
                        1 Threads,   5100 MiB Core
         ---------------------------------------------------------

  ==> Geometry <==

    Molecular point group: c1
    Full point group: C1

    Geometry (in Angstrom), charge = 0, multiplicity = 1:

       Center              X                  Y                   Z               Mass       
    ------------   -----------------  -----------------  -----------------  -----------------
         O            1.050400000000     0.042900000000    -0.048100000000    15.994914619560
         C            2.474100000000     0.047400000000    -0.029000000000    12.000000000000
         C            3.002600000000    -1.068900000000    -0.932000000000    12.000000000000
         N            4.462700000000    -1.072400000000    -1.006800000000    14.003074004780
         H            0.783559000000     0.028133000000    -0.983295000000     1.007825032070
         H            2.809900000000    -0.097900000000     1.003200000000     1.007825032070
         H            2.817400000000     1.026800000000    -0.378600000000     1.007825032070
         H            2.581000000000    -0.963300000000    -1.938400000000     1.007825032070
         H            2.653800000000    -2.036400000000    -0.553400000000     1.007825032070
         H            4.779000000000    -0.221000000000    -1.470000000000     1.007825032070
         H            4.758600000000    -1.842500000000    -1.606500000000     1.007825032070

  Running in c1 symmetry.

  Rotational constants: A =      0.73921  B =      0.02758  C =      0.02697 [cm^-1]
  Rotational constants: A =  22161.09117  B =    826.70770  C =    808.50815 [MHz]
  Nuclear repulsion =  130.942986684614283

  Charge       = 0
  Multiplicity = 1
  Electrons    = 34
  Nalpha       = 17
  Nbeta        = 17

  ==> Algorithm <==

  SCF Algorithm Type is DF.
  DIIS enabled.
  MOM disabled.
  Fractional occupation disabled.
  Guess Type is SAD.
  Energy threshold   = 1.00e-06
  Density threshold  = 1.00e-06
  Integral threshold = 0.00e+00

  ==> Primary Basis <==

  Basis Set: CC-PVDZ
    Blend: CC-PVDZ
    Number of shells: 45
    Number of basis function: 91
    Number of Cartesian functions: 95
    Spherical Harmonics?: true
    Max angular momentum: 2

  ==> DFT Potential <==

   => Composite Functional: B3LYP-D3ZERO <= 

    B3LYP-d3zero Hyb-GGA Exchange-Correlation Functional

    P. J. Stephens, F. J. Devlin, C. F. Chabalowski, and M. J. Frisch, J. Phys. Chem. 98, 11623 (1994)

    Deriv               =              1
    GGA                 =           TRUE
    Meta                =          FALSE

    Exchange Hybrid     =           TRUE
    MP2 Hybrid          =          FALSE

   => Exchange Functionals <=

    0.0800   Slater exchange
    0.7200         Becke 88

   => Exact (HF) Exchange <=

    0.2000               HF 

   => Correlation Functionals <=

    0.1900   Vosko, Wilk & Nusair (VWN5_RPA)
    0.8100   Lee, Yang & Parr

   => Molecular Quadrature <=

    Radial Scheme       =       TREUTLER
    Pruning Scheme      =           FLAT
    Nuclear Scheme      =       TREUTLER

    BS radius alpha     =              1
    Pruning alpha       =              1
    Radial Points       =             75
    Spherical Points    =            302
    Total Points        =         245066
    Total Blocks        =           1899
    Max Points          =            256
    Max Functions       =             91

   => -D3ZERO: Empirical Dispersion <=

    Grimme's -D3 (zero-damping) Dispersion Correction
    Grimme S.; Antony J.; Ehrlich S.; Krieg H. (2010), J. Chem. Phys., 132: 154104

        S6 =   1.000000E+00
        S8 =   1.703000E+00
       SR6 =   1.261000E+00
       SR8 =   1.000000E+00
    ALPHA6 =   1.400000E+01

   => Loading Basis Set <=

    Name: (CC-PVDZ AUX)
    Role: JKFIT
    Keyword: DF_BASIS_SCF
    atoms 1    entry O          line   221 file /shared/joao/test_parameterize/miniconda3/share/psi4/basis/cc-pvdz-jkfit.gbs 
    atoms 2-3  entry C          line   121 file /shared/joao/test_parameterize/miniconda3/share/psi4/basis/cc-pvdz-jkfit.gbs 
    atoms 4    entry N          line   171 file /shared/joao/test_parameterize/miniconda3/share/psi4/basis/cc-pvdz-jkfit.gbs 
    atoms 5-11 entry H          line    51 file /shared/joao/test_parameterize/miniconda3/share/psi4/basis/cc-pvdz-jkfit.gbs 

  ==> Pre-Iterations <==

   -------------------------------------------------------
    Irrep   Nso     Nmo     Nalpha   Nbeta   Ndocc  Nsocc
   -------------------------------------------------------
     A         91      91       0       0       0       0
   -------------------------------------------------------
    Total      91      91      17      17      17       0
   -------------------------------------------------------

  ==> Integral Setup <==

  DFHelper Memory: AOs need 0.036 [GiB]; user supplied 3.486 [GiB]. Using in-core AOs.

  ==> MemDFJK: Density-Fitted J/K Matrices <==

    J tasked:                   Yes
    K tasked:                   Yes
    wK tasked:                   No
    OpenMP threads:               1
    Memory (MB):               3570
    Algorithm:                 Core
    Schwarz Cutoff:           1E-12
    Mask sparsity (%):       0.2415
    Fitting Condition:        1E-12

   => Auxiliary Basis Set <=

  Basis Set: (CC-PVDZ AUX)
    Blend: CC-PVDZ-JKFIT
    Number of shells: 159
    Number of basis function: 441
    Number of Cartesian functions: 499
    Spherical Harmonics?: true
    Max angular momentum: 3

  Minimum eigenvalue in the overlap matrix is 4.4245389915E-03.
  Using Symmetric Orthogonalization.

  SCF Guess: Superposition of Atomic Densities via on-the-fly atomic UHF.

  ==> Iterations <==

                           Total Energy        Delta E     RMS |[F,P]|

   @DF-RKS iter   0:  -210.89778898136186   -2.10898e+02   3.66531e-02 
   @DF-RKS iter   1:  -210.21352043046579    6.84269e-01   7.10325e-03 
   @DF-RKS iter   2:  -210.06869190810175    1.44829e-01   9.70195e-03 DIIS
   @DF-RKS iter   3:  -210.39117173811866   -3.22480e-01   5.99678e-04 DIIS
   @DF-RKS iter   4:  -210.39193731762262   -7.65580e-04   3.81558e-04 DIIS
   @DF-RKS iter   5:  -210.39246969908413   -5.32381e-04   5.36820e-05 DIIS
   @DF-RKS iter   6:  -210.39247751303759   -7.81395e-06   2.61416e-05 DIIS
   @DF-RKS iter   7:  -210.39247993655832   -2.42352e-06   1.81454e-06 DIIS
   @DF-RKS iter   8:  -210.39247994909212   -1.25338e-08   5.02547e-07 DIIS

  ==> Post-Iterations <==

    Orbital Energies [Eh]
    ---------------------

    Doubly Occupied:                                                      

       1A    -19.128523     2A    -14.309249     3A    -10.224758  
       4A    -10.207329     5A     -1.011415     6A     -0.881246  
       7A     -0.711740     8A     -0.613009     9A     -0.510303  
      10A     -0.466326    11A     -0.458858    12A     -0.433984  
      13A     -0.395529    14A     -0.366294    15A     -0.322860  
      16A     -0.263985    17A     -0.236692  

    Virtual:                                                              

      18A      0.049756    19A      0.056944    20A      0.095235  
      21A      0.103666    22A      0.136955    23A      0.152138  
      24A      0.164521    25A      0.209719    26A      0.240299  
      27A      0.253876    28A      0.433482    29A      0.447870  
      30A      0.486238    31A      0.499474    32A      0.535003  
      33A      0.583515    34A      0.589880    35A      0.613663  
      36A      0.643898    37A      0.653196    38A      0.666382  
      39A      0.667454    40A      0.699720    41A      0.809454  
      42A      0.831564    43A      0.840116    44A      0.907748  
      45A      0.953924    46A      1.008336    47A      1.023244  
      48A      1.065600    49A      1.149684    50A      1.207120  
      51A      1.212751    52A      1.243850    53A      1.298103  
      54A      1.400444    55A      1.445455    56A      1.461154  
      57A      1.512344    58A      1.602355    59A      1.626336  
      60A      1.644294    61A      1.659794    62A      1.675316  
      63A      1.699311    64A      1.728197    65A      1.731035  
      66A      1.790143    67A      1.820966    68A      1.847653  
      69A      1.874211    70A      1.957192    71A      1.978846  
      72A      2.010023    73A      2.056825    74A      2.101689  
      75A      2.158165    76A      2.243361    77A      2.260542  
      78A      2.365794    79A      2.398052    80A      2.441093  
      81A      2.474092    82A      2.546670    83A      2.597338  
      84A      2.679768    85A      2.822022    86A      2.941476  
      87A      3.006311    88A      3.057365    89A      3.082669  
      90A      3.239578    91A      3.682519  

    Final Occupation by Irrep:
              A 
    DOCC [    17 ]

  Energy converged.

  @DF-RKS Final Energy:  -210.39247994909212

   => Energetics <=

    Nuclear Repulsion Energy =            130.9429866846142829
    One-Electron Energy =                -544.7048087499691746
    Two-Electron Energy =                 226.8603733406764036
    DFT Exchange-Correlation Energy =     -23.4858777644136580
    Empirical Dispersion Energy =          -0.0051534600000000
    VV10 Nonlocal Energy =                  0.0000000000000000
    Total Energy =                       -210.3924799490921203



Properties will be evaluated at   0.000000,   0.000000,   0.000000 [a0]

Properties computed using the SCF density matrix

  Nuclear Dipole Moment: [e a0]
     X:   177.0400      Y:   -32.8789      Z:   -36.1418

  Electronic Dipole Moment: [e a0]
     X:  -176.7893      Y:    32.8551      Z:    35.1588

  Dipole Moment: [e a0]
     X:     0.2508      Y:    -0.0238      Z:    -0.9829     Total:     1.0147

  Dipole Moment: [D]
     X:     0.6374      Y:    -0.0604      Z:    -2.4983     Total:     2.5791


*** tstop() called on loro.prib.upf.edu at Sat Sep 29 17:10:58 2018
Module time:
	user time   =      15.03 seconds =       0.25 minutes
	system time =       0.22 seconds =       0.00 minutes
	total time  =         17 seconds =       0.28 minutes
Total time:
	user time   =      15.03 seconds =       0.25 minutes
	system time =       0.22 seconds =       0.00 minutes
	total time  =         17 seconds =       0.28 minutes


Properties will be evaluated at   0.000000,   0.000000,   0.000000 [a0]
OEProp: No title given, name of density matrix used for the following properties is 'SCF density'
  Nuclear Dipole Moment: [e a0]
     X:   177.0400      Y:   -32.8789      Z:   -36.1418

  Electronic Dipole Moment: [e a0]
     X:  -176.7893      Y:    32.8551      Z:    35.1588

  Dipole Moment: [e a0]
     X:     0.2508      Y:    -0.0238      Z:    -0.9829     Total:     1.0147

  Dipole Moment: [D]
     X:     0.6374      Y:    -0.0604      Z:    -2.4983     Total:     2.5791

  Quadrupole Moment: [D A]
    XX:   -24.4582     YY:   -24.5386     ZZ:   -21.4848
    XY:     0.4065     XZ:    -6.7730     YZ:     1.2172

  Traceless Quadrupole Moment: [D A]
    XX:    -0.9644     YY:    -1.0447     ZZ:     2.0091
    XY:     0.4065     XZ:    -6.7730     YZ:     1.2172

  Mulliken Charges: (a.u.)
   Center  Symbol    Alpha    Beta     Spin     Total
       1     O     4.13934  4.13934  0.00000 -0.27868
       2     C     2.91753  2.91753  0.00000  0.16494
       3     C     2.99992  2.99992  0.00000  0.00016
       4     N     3.59125  3.59125  0.00000 -0.18249
       5     H     0.43279  0.43279  0.00000  0.13442
       6     H     0.48599  0.48599  0.00000  0.02801
       7     H     0.50377  0.50377  0.00000 -0.00755
       8     H     0.51085  0.51085  0.00000 -0.02170
       9     H     0.48918  0.48918  0.00000  0.02163
      10     H     0.46547  0.46547  0.00000  0.06907
      11     H     0.46391  0.46391  0.00000  0.07217

   Total alpha = 17.00000, Total beta = 17.00000, Total charge = -0.00000


    Psi4 stopped on: Saturday, 29 September 2018 05:10PM
    Psi4 wall time for execution: 0:00:17.23

*** Psi4 exiting successfully. Buy a developer a beer!
