
    -----------------------------------------------------------------------
          Psi4: An Open-Source Ab Initio Electronic Structure Package
                               Psi4 1.2.1 release

                         Git: Rev {HEAD} 406f4de 


    R. M. Parrish, L. A. Burns, D. G. A. Smith, A. C. Simmonett,
    A. E. DePrince III, E. G. Hohenstein, U. Bozkaya, A. Yu. Sokolov,
    R. Di Remigio, R. M. Richard, J. F. Gonthier, A. M. James,
    H. R. McAlexander, A. Kumar, M. Saitow, X. Wang, B. P. Pritchard,
    P. Verma, H. F. Schaefer III, K. Patkowski, R. A. King, E. F. Valeev,
    F. A. Evangelista, J. M. Turney, T. D. Crawford, and C. D. Sherrill,
    J. Chem. Theory Comput. 13(7) pp 3185--3197 (2017).
    (doi: 10.1021/acs.jctc.7b00174)


                         Additional Contributions by
    P. Kraus, H. Kruse, M. H. Lechner, M. C. Schieber, and R. A. Shaw

    -----------------------------------------------------------------------


    Psi4 started on: Saturday, 29 September 2018 04:49PM

    Process ID: 4802
    Host:       loro.prib.upf.edu
    PSIDATADIR: /shared/joao/test_parameterize/miniconda3/share/psi4
    Memory:     500.0 MiB
    Threads:    1
    
  ==> Input File <==

--------------------------------------------------------------------------
set_num_threads(1)
set_memory('5348 MB')

set { scf_mem_safety_factor 0.7 }

set { reference rks }
set { basis cc-pVDZ }

molecule MOL {
    0 1
    noreorient
    nocom
    symmetry c1
    O    1.141000   0.017000   0.083000
    C    2.558000   0.086000  -0.005000
    C    3.192000  -0.789000   1.067000
    O    4.591201  -0.904743   0.838509
    H    0.789000   0.590000  -0.620000
    H    2.874000   1.128000   0.115000
    H    2.871000  -0.243000  -1.001000
    H    2.743516  -1.787375   1.060145
    H    3.026566  -0.356650   2.060269
    H    4.942997  -1.470556   1.547720
}

set optking { frozen_dihedral = (" 1 2 3 4 ") }

energy, wfn = energy('B3LYP-D3', return_wfn=True)

import os
os.chdir(os.environ['HTMD_PSI4_WORKDIR'])

oeprop(wfn, 'DIPOLE', 'QUADRUPOLE', 'MULLIKEN_CHARGES')

with open('psi4out.xyz', 'w') as f:
    f.write('10 ' )
    f.write('%.12f\n' % energy)
    f.write(MOL.save_string_xyz())
--------------------------------------------------------------------------
  Threads set to 1 by Python driver.

  Memory set to   4.981 GiB by Python driver.

*** tstart() called on loro.prib.upf.edu
*** at Sat Sep 29 16:49:52 2018

   => Loading Basis Set <=

    Name: CC-PVDZ
    Role: ORBITAL
    Keyword: BASIS
    atoms 1, 4 entry O          line   198 file /shared/joao/test_parameterize/miniconda3/share/psi4/basis/cc-pvdz.gbs 
    atoms 2-3  entry C          line   138 file /shared/joao/test_parameterize/miniconda3/share/psi4/basis/cc-pvdz.gbs 
    atoms 5-10 entry H          line    22 file /shared/joao/test_parameterize/miniconda3/share/psi4/basis/cc-pvdz.gbs 


         ---------------------------------------------------------
                                   SCF
            by Justin Turney, Rob Parrish, Andy Simmonett
                             and Daniel Smith
                              RKS Reference
                        1 Threads,   5100 MiB Core
         ---------------------------------------------------------

  ==> Geometry <==

    Molecular point group: c1
    Full point group: C1

    Geometry (in Angstrom), charge = 0, multiplicity = 1:

       Center              X                  Y                   Z               Mass       
    ------------   -----------------  -----------------  -----------------  -----------------
         O            1.141000000000     0.017000000000     0.083000000000    15.994914619560
         C            2.558000000000     0.086000000000    -0.005000000000    12.000000000000
         C            3.192000000000    -0.789000000000     1.067000000000    12.000000000000
         O            4.591201000000    -0.904743000000     0.838509000000    15.994914619560
         H            0.789000000000     0.590000000000    -0.620000000000     1.007825032070
         H            2.874000000000     1.128000000000     0.115000000000     1.007825032070
         H            2.871000000000    -0.243000000000    -1.001000000000     1.007825032070
         H            2.743516000000    -1.787375000000     1.060145000000     1.007825032070
         H            3.026566000000    -0.356650000000     2.060269000000     1.007825032070
         H            4.942997000000    -1.470556000000     1.547720000000     1.007825032070

  Running in c1 symmetry.

  Rotational constants: A =      0.80187  B =      0.02545  C =      0.02494 [cm^-1]
  Rotational constants: A =  24039.39656  B =    763.06851  C =    747.73571 [MHz]
  Nuclear repulsion =  129.461236647891951

  Charge       = 0
  Multiplicity = 1
  Electrons    = 34
  Nalpha       = 17
  Nbeta        = 17

  ==> Algorithm <==

  SCF Algorithm Type is DF.
  DIIS enabled.
  MOM disabled.
  Fractional occupation disabled.
  Guess Type is SAD.
  Energy threshold   = 1.00e-06
  Density threshold  = 1.00e-06
  Integral threshold = 0.00e+00

  ==> Primary Basis <==

  Basis Set: CC-PVDZ
    Blend: CC-PVDZ
    Number of shells: 42
    Number of basis function: 86
    Number of Cartesian functions: 90
    Spherical Harmonics?: true
    Max angular momentum: 2

  ==> DFT Potential <==

   => Composite Functional: B3LYP-D3ZERO <= 

    B3LYP-d3zero Hyb-GGA Exchange-Correlation Functional

    P. J. Stephens, F. J. Devlin, C. F. Chabalowski, and M. J. Frisch, J. Phys. Chem. 98, 11623 (1994)

    Deriv               =              1
    GGA                 =           TRUE
    Meta                =          FALSE

    Exchange Hybrid     =           TRUE
    MP2 Hybrid          =          FALSE

   => Exchange Functionals <=

    0.0800   Slater exchange
    0.7200         Becke 88

   => Exact (HF) Exchange <=

    0.2000               HF 

   => Correlation Functionals <=

    0.1900   Vosko, Wilk & Nusair (VWN5_RPA)
    0.8100   Lee, Yang & Parr

   => Molecular Quadrature <=

    Radial Scheme       =       TREUTLER
    Pruning Scheme      =           FLAT
    Nuclear Scheme      =       TREUTLER

    BS radius alpha     =              1
    Pruning alpha       =              1
    Radial Points       =             75
    Spherical Points    =            302
    Total Points        =         222556
    Total Blocks        =           1733
    Max Points          =            256
    Max Functions       =             86

   => -D3ZERO: Empirical Dispersion <=

    Grimme's -D3 (zero-damping) Dispersion Correction
    Grimme S.; Antony J.; Ehrlich S.; Krieg H. (2010), J. Chem. Phys., 132: 154104

        S6 =   1.000000E+00
        S8 =   1.703000E+00
       SR6 =   1.261000E+00
       SR8 =   1.000000E+00
    ALPHA6 =   1.400000E+01

   => Loading Basis Set <=

    Name: (CC-PVDZ AUX)
    Role: JKFIT
    Keyword: DF_BASIS_SCF
    atoms 1, 4 entry O          line   221 file /shared/joao/test_parameterize/miniconda3/share/psi4/basis/cc-pvdz-jkfit.gbs 
    atoms 2-3  entry C          line   121 file /shared/joao/test_parameterize/miniconda3/share/psi4/basis/cc-pvdz-jkfit.gbs 
    atoms 5-10 entry H          line    51 file /shared/joao/test_parameterize/miniconda3/share/psi4/basis/cc-pvdz-jkfit.gbs 

  ==> Pre-Iterations <==

   -------------------------------------------------------
    Irrep   Nso     Nmo     Nalpha   Nbeta   Ndocc  Nsocc
   -------------------------------------------------------
     A         86      86       0       0       0       0
   -------------------------------------------------------
    Total      86      86      17      17      17       0
   -------------------------------------------------------

  ==> Integral Setup <==

  DFHelper Memory: AOs need 0.030 [GiB]; user supplied 3.486 [GiB]. Using in-core AOs.

  ==> MemDFJK: Density-Fitted J/K Matrices <==

    J tasked:                   Yes
    K tasked:                   Yes
    wK tasked:                   No
    OpenMP threads:               1
    Memory (MB):               3570
    Algorithm:                 Core
    Schwarz Cutoff:           1E-12
    Mask sparsity (%):       0.5408
    Fitting Condition:        1E-12

   => Auxiliary Basis Set <=

  Basis Set: (CC-PVDZ AUX)
    Blend: CC-PVDZ-JKFIT
    Number of shells: 150
    Number of basis function: 418
    Number of Cartesian functions: 474
    Spherical Harmonics?: true
    Max angular momentum: 3

  Minimum eigenvalue in the overlap matrix is 4.9733041247E-03.
  Using Symmetric Orthogonalization.

  SCF Guess: Superposition of Atomic Densities via on-the-fly atomic UHF.

  ==> Iterations <==

                           Total Energy        Delta E     RMS |[F,P]|

   @DF-RKS iter   0:  -231.04998511971360   -2.31050e+02   4.13611e-02 
   @DF-RKS iter   1:  -230.19281887026153    8.57166e-01   4.63884e-03 
   @DF-RKS iter   2:  -230.16532907546636    2.74898e-02   5.85193e-03 DIIS
   @DF-RKS iter   3:  -230.25574859235297   -9.04195e-02   6.58668e-04 DIIS
   @DF-RKS iter   4:  -230.25689272131180   -1.14413e-03   2.05369e-04 DIIS
   @DF-RKS iter   5:  -230.25703860976478   -1.45888e-04   4.88082e-05 DIIS
   @DF-RKS iter   6:  -230.25704704209599   -8.43233e-06   3.76937e-06 DIIS
   @DF-RKS iter   7:  -230.25704709043339   -4.83374e-08   5.92271e-07 DIIS

  ==> Post-Iterations <==

    Orbital Energies [Eh]
    ---------------------

    Doubly Occupied:                                                      

       1A    -19.131583     2A    -19.131551     3A    -10.226290  
       4A    -10.226094     5A     -1.018806     6A     -1.008489  
       7A     -0.732359     8A     -0.603627     9A     -0.525847  
      10A     -0.482822    11A     -0.470857    12A     -0.412213  
      13A     -0.395444    14A     -0.350131    15A     -0.319318  
      16A     -0.264181    17A     -0.263129  

    Virtual:                                                              

      18A      0.042880    19A      0.058582    20A      0.108493  
      21A      0.117932    22A      0.124611    23A      0.166346  
      24A      0.189477    25A      0.241847    26A      0.244338  
      27A      0.442730    28A      0.447584    29A      0.493321  
      30A      0.536185    31A      0.545827    32A      0.595373  
      33A      0.617826    34A      0.627457    35A      0.632263  
      36A      0.647136    37A      0.656217    38A      0.687554  
      39A      0.882966    40A      0.883738    41A      0.920636  
      42A      0.963686    43A      1.009380    44A      1.054088  
      45A      1.061608    46A      1.175875    47A      1.209894  
      48A      1.214956    49A      1.268469    50A      1.304480  
      51A      1.337963    52A      1.351410    53A      1.479518  
      54A      1.569899    55A      1.600118    56A      1.602637  
      57A      1.627651    58A      1.640535    59A      1.654406  
      60A      1.708372    61A      1.759150    62A      1.767037  
      63A      1.790923    64A      1.889577    65A      1.929824  
      66A      1.970458    67A      2.048530    68A      2.052038  
      69A      2.112369    70A      2.160108    71A      2.274995  
      72A      2.281417    73A      2.406834    74A      2.422281  
      75A      2.481441    76A      2.517056    77A      2.905924  
      78A      2.963824    79A      3.004085    80A      3.025600  
      81A      3.057925    82A      3.142136    83A      3.179192  
      84A      3.209495    85A      3.676259    86A      3.704790  

    Final Occupation by Irrep:
              A 
    DOCC [    17 ]

  Energy converged.

  @DF-RKS Final Energy:  -230.25704709043339

   => Energetics <=

    Nuclear Repulsion Energy =            129.4612366478919512
    One-Electron Energy =                -570.6781905327227378
    Two-Electron Energy =                 235.5032626182797628
    DFT Exchange-Correlation Energy =     -24.5389567238823574
    Empirical Dispersion Energy =          -0.0043991000000000
    VV10 Nonlocal Energy =                  0.0000000000000000
    Total Energy =                       -230.2570470904333888



Properties will be evaluated at   0.000000,   0.000000,   0.000000 [a0]

Properties computed using the SCF density matrix

  Nuclear Dipole Moment: [e a0]
     X:   184.4461      Y:   -25.4348      Z:    31.9481

  Electronic Dipole Moment: [e a0]
     X:  -184.4414      Y:    25.4977      Z:   -31.9004

  Dipole Moment: [e a0]
     X:     0.0047      Y:     0.0628      Z:     0.0477     Total:     0.0791

  Dipole Moment: [D]
     X:     0.0120      Y:     0.1597      Z:     0.1213     Total:     0.2009


*** tstop() called on loro.prib.upf.edu at Sat Sep 29 16:50:06 2018
Module time:
	user time   =      11.64 seconds =       0.19 minutes
	system time =       0.20 seconds =       0.00 minutes
	total time  =         14 seconds =       0.23 minutes
Total time:
	user time   =      11.64 seconds =       0.19 minutes
	system time =       0.20 seconds =       0.00 minutes
	total time  =         14 seconds =       0.23 minutes


Properties will be evaluated at   0.000000,   0.000000,   0.000000 [a0]
OEProp: No title given, name of density matrix used for the following properties is 'SCF density'
  Nuclear Dipole Moment: [e a0]
     X:   184.4461      Y:   -25.4348      Z:    31.9481

  Electronic Dipole Moment: [e a0]
     X:  -184.4414      Y:    25.4977      Z:   -31.9004

  Dipole Moment: [e a0]
     X:     0.0047      Y:     0.0628      Z:     0.0477     Total:     0.0791

  Dipole Moment: [D]
     X:     0.0120      Y:     0.1597      Z:     0.1213     Total:     0.2009

  Quadrupole Moment: [D A]
    XX:   -26.3643     YY:   -22.2294     ZZ:   -21.0357
    XY:    -3.0910     XZ:     5.2279     YZ:    -3.4342

  Traceless Quadrupole Moment: [D A]
    XX:    -3.1545     YY:     0.9804     ZZ:     2.1741
    XY:    -3.0910     XZ:     5.2279     YZ:    -3.4342

  Mulliken Charges: (a.u.)
   Center  Symbol    Alpha    Beta     Spin     Total
       1     O     4.14045  4.14045  0.00000 -0.28090
       2     C     2.93613  2.93613  0.00000  0.12773
       3     C     2.93627  2.93627  0.00000  0.12745
       4     O     4.14066  4.14066  0.00000 -0.28132
       5     H     0.42744  0.42744  0.00000  0.14512
       6     H     0.49837  0.49837  0.00000  0.00326
       7     H     0.49756  0.49756  0.00000  0.00488
       8     H     0.49744  0.49744  0.00000  0.00511
       9     H     0.49828  0.49828  0.00000  0.00344
      10     H     0.42739  0.42739  0.00000  0.14523

   Total alpha = 17.00000, Total beta = 17.00000, Total charge = -0.00000


    Psi4 stopped on: Saturday, 29 September 2018 04:50PM
    Psi4 wall time for execution: 0:00:14.37

*** Psi4 exiting successfully. Buy a developer a beer!
