
    -----------------------------------------------------------------------
          Psi4: An Open-Source Ab Initio Electronic Structure Package
                               Psi4 1.2.1 release

                         Git: Rev {HEAD} 406f4de 


    R. M. Parrish, L. A. Burns, D. G. A. Smith, A. C. Simmonett,
    A. E. DePrince III, E. G. Hohenstein, U. Bozkaya, A. Yu. Sokolov,
    R. Di Remigio, R. M. Richard, J. F. Gonthier, A. M. James,
    H. R. McAlexander, A. Kumar, M. Saitow, X. Wang, B. P. Pritchard,
    P. Verma, H. F. Schaefer III, K. Patkowski, R. A. King, E. F. Valeev,
    F. A. Evangelista, J. M. Turney, T. D. Crawford, and C. D. Sherrill,
    J. Chem. Theory Comput. 13(7) pp 3185--3197 (2017).
    (doi: 10.1021/acs.jctc.7b00174)


                         Additional Contributions by
    P. Kraus, H. Kruse, M. H. Lechner, M. C. Schieber, and R. A. Shaw

    -----------------------------------------------------------------------


    Psi4 started on: Saturday, 29 September 2018 05:08PM

    Process ID: 12284
    Host:       loro.prib.upf.edu
    PSIDATADIR: /shared/joao/test_parameterize/miniconda3/share/psi4
    Memory:     500.0 MiB
    Threads:    1
    
  ==> Input File <==

--------------------------------------------------------------------------
set_num_threads(1)
set_memory('5348 MB')

set { scf_mem_safety_factor 0.7 }

set { reference rks }
set { basis cc-pVDZ }

molecule MOL {
    0 1
    noreorient
    nocom
    symmetry c1
    O    1.050400   0.042900  -0.048100
    C    2.474100   0.047400  -0.029000
    C    3.002600  -1.068900  -0.932000
    N    4.001072  -1.896995  -0.257603
    H    0.760400   0.728400   0.578000
    H    2.809900  -0.097900   1.003200
    H    2.817400   1.026800  -0.378600
    H    3.434246  -0.636980  -1.842421
    H    2.166101  -1.697606  -1.257658
    H    4.829443  -1.335459  -0.062769
    H    4.305555  -2.630334  -0.897724
}

set optking { frozen_dihedral = (" 1 2 3 4 ") }

energy, wfn = energy('B3LYP-D3', return_wfn=True)

import os
os.chdir(os.environ['HTMD_PSI4_WORKDIR'])

oeprop(wfn, 'DIPOLE', 'QUADRUPOLE', 'MULLIKEN_CHARGES')

with open('psi4out.xyz', 'w') as f:
    f.write('11 ' )
    f.write('%.12f\n' % energy)
    f.write(MOL.save_string_xyz())
--------------------------------------------------------------------------
  Threads set to 1 by Python driver.

  Memory set to   4.981 GiB by Python driver.

*** tstart() called on loro.prib.upf.edu
*** at Sat Sep 29 17:08:29 2018

   => Loading Basis Set <=

    Name: CC-PVDZ
    Role: ORBITAL
    Keyword: BASIS
    atoms 1    entry O          line   198 file /shared/joao/test_parameterize/miniconda3/share/psi4/basis/cc-pvdz.gbs 
    atoms 2-3  entry C          line   138 file /shared/joao/test_parameterize/miniconda3/share/psi4/basis/cc-pvdz.gbs 
    atoms 4    entry N          line   168 file /shared/joao/test_parameterize/miniconda3/share/psi4/basis/cc-pvdz.gbs 
    atoms 5-11 entry H          line    22 file /shared/joao/test_parameterize/miniconda3/share/psi4/basis/cc-pvdz.gbs 


         ---------------------------------------------------------
                                   SCF
            by Justin Turney, Rob Parrish, Andy Simmonett
                             and Daniel Smith
                              RKS Reference
                        1 Threads,   5100 MiB Core
         ---------------------------------------------------------

  ==> Geometry <==

    Molecular point group: c1
    Full point group: C1

    Geometry (in Angstrom), charge = 0, multiplicity = 1:

       Center              X                  Y                   Z               Mass       
    ------------   -----------------  -----------------  -----------------  -----------------
         O            1.050400000000     0.042900000000    -0.048100000000    15.994914619560
         C            2.474100000000     0.047400000000    -0.029000000000    12.000000000000
         C            3.002600000000    -1.068900000000    -0.932000000000    12.000000000000
         N            4.001072000000    -1.896995000000    -0.257603000000    14.003074004780
         H            0.760400000000     0.728400000000     0.578000000000     1.007825032070
         H            2.809900000000    -0.097900000000     1.003200000000     1.007825032070
         H            2.817400000000     1.026800000000    -0.378600000000     1.007825032070
         H            3.434246000000    -0.636980000000    -1.842421000000     1.007825032070
         H            2.166101000000    -1.697606000000    -1.257658000000     1.007825032070
         H            4.829443000000    -1.335459000000    -0.062769000000     1.007825032070
         H            4.305555000000    -2.630334000000    -0.897724000000     1.007825032070

  Running in c1 symmetry.

  Rotational constants: A =      0.51426  B =      0.02945  C =      0.02879 [cm^-1]
  Rotational constants: A =  15417.06514  B =    882.80894  C =    863.14645 [MHz]
  Nuclear repulsion =  130.806119898789092

  Charge       = 0
  Multiplicity = 1
  Electrons    = 34
  Nalpha       = 17
  Nbeta        = 17

  ==> Algorithm <==

  SCF Algorithm Type is DF.
  DIIS enabled.
  MOM disabled.
  Fractional occupation disabled.
  Guess Type is SAD.
  Energy threshold   = 1.00e-06
  Density threshold  = 1.00e-06
  Integral threshold = 0.00e+00

  ==> Primary Basis <==

  Basis Set: CC-PVDZ
    Blend: CC-PVDZ
    Number of shells: 45
    Number of basis function: 91
    Number of Cartesian functions: 95
    Spherical Harmonics?: true
    Max angular momentum: 2

  ==> DFT Potential <==

   => Composite Functional: B3LYP-D3ZERO <= 

    B3LYP-d3zero Hyb-GGA Exchange-Correlation Functional

    P. J. Stephens, F. J. Devlin, C. F. Chabalowski, and M. J. Frisch, J. Phys. Chem. 98, 11623 (1994)

    Deriv               =              1
    GGA                 =           TRUE
    Meta                =          FALSE

    Exchange Hybrid     =           TRUE
    MP2 Hybrid          =          FALSE

   => Exchange Functionals <=

    0.0800   Slater exchange
    0.7200         Becke 88

   => Exact (HF) Exchange <=

    0.2000               HF 

   => Correlation Functionals <=

    0.1900   Vosko, Wilk & Nusair (VWN5_RPA)
    0.8100   Lee, Yang & Parr

   => Molecular Quadrature <=

    Radial Scheme       =       TREUTLER
    Pruning Scheme      =           FLAT
    Nuclear Scheme      =       TREUTLER

    BS radius alpha     =              1
    Pruning alpha       =              1
    Radial Points       =             75
    Spherical Points    =            302
    Total Points        =         245081
    Total Blocks        =           1896
    Max Points          =            256
    Max Functions       =             91

   => -D3ZERO: Empirical Dispersion <=

    Grimme's -D3 (zero-damping) Dispersion Correction
    Grimme S.; Antony J.; Ehrlich S.; Krieg H. (2010), J. Chem. Phys., 132: 154104

        S6 =   1.000000E+00
        S8 =   1.703000E+00
       SR6 =   1.261000E+00
       SR8 =   1.000000E+00
    ALPHA6 =   1.400000E+01

   => Loading Basis Set <=

    Name: (CC-PVDZ AUX)
    Role: JKFIT
    Keyword: DF_BASIS_SCF
    atoms 1    entry O          line   221 file /shared/joao/test_parameterize/miniconda3/share/psi4/basis/cc-pvdz-jkfit.gbs 
    atoms 2-3  entry C          line   121 file /shared/joao/test_parameterize/miniconda3/share/psi4/basis/cc-pvdz-jkfit.gbs 
    atoms 4    entry N          line   171 file /shared/joao/test_parameterize/miniconda3/share/psi4/basis/cc-pvdz-jkfit.gbs 
    atoms 5-11 entry H          line    51 file /shared/joao/test_parameterize/miniconda3/share/psi4/basis/cc-pvdz-jkfit.gbs 

  ==> Pre-Iterations <==

   -------------------------------------------------------
    Irrep   Nso     Nmo     Nalpha   Nbeta   Ndocc  Nsocc
   -------------------------------------------------------
     A         91      91       0       0       0       0
   -------------------------------------------------------
    Total      91      91      17      17      17       0
   -------------------------------------------------------

  ==> Integral Setup <==

  DFHelper Memory: AOs need 0.036 [GiB]; user supplied 3.486 [GiB]. Using in-core AOs.

  ==> MemDFJK: Density-Fitted J/K Matrices <==

    J tasked:                   Yes
    K tasked:                   Yes
    wK tasked:                   No
    OpenMP threads:               1
    Memory (MB):               3570
    Algorithm:                 Core
    Schwarz Cutoff:           1E-12
    Mask sparsity (%):       0.3381
    Fitting Condition:        1E-12

   => Auxiliary Basis Set <=

  Basis Set: (CC-PVDZ AUX)
    Blend: CC-PVDZ-JKFIT
    Number of shells: 159
    Number of basis function: 441
    Number of Cartesian functions: 499
    Spherical Harmonics?: true
    Max angular momentum: 3

  Minimum eigenvalue in the overlap matrix is 4.4870192484E-03.
  Using Symmetric Orthogonalization.

  SCF Guess: Superposition of Atomic Densities via on-the-fly atomic UHF.

  ==> Iterations <==

                           Total Energy        Delta E     RMS |[F,P]|

   @DF-RKS iter   0:  -210.86905425045012   -2.10869e+02   3.68707e-02 
   @DF-RKS iter   1:  -210.22555513522605    6.43499e-01   6.72557e-03 
   @DF-RKS iter   2:  -210.07681053948210    1.48745e-01   9.51559e-03 DIIS
   @DF-RKS iter   3:  -210.38514505084763   -3.08335e-01   5.78986e-04 DIIS
   @DF-RKS iter   4:  -210.38587232760344   -7.27277e-04   3.62466e-04 DIIS
   @DF-RKS iter   5:  -210.38634813047216   -4.75803e-04   4.56951e-05 DIIS
   @DF-RKS iter   6:  -210.38635383925671   -5.70878e-06   2.09919e-05 DIIS
   @DF-RKS iter   7:  -210.38635541805607   -1.57880e-06   2.55467e-06 DIIS
   @DF-RKS iter   8:  -210.38635544198934   -2.39333e-08   6.76152e-07 DIIS

  ==> Post-Iterations <==

    Orbital Energies [Eh]
    ---------------------

    Doubly Occupied:                                                      

       1A    -19.124845     2A    -14.303914     3A    -10.221939  
       4A    -10.200750     5A     -1.007563     6A     -0.876149  
       7A     -0.712313     8A     -0.596727     9A     -0.507350  
      10A     -0.474501    11A     -0.470181    12A     -0.398512  
      13A     -0.388991    14A     -0.369045    15A     -0.322804  
      16A     -0.257444    17A     -0.230242  

    Virtual:                                                              

      18A      0.054804    19A      0.056799    20A      0.108396  
      21A      0.109724    22A      0.132386    23A      0.145496  
      24A      0.154570    25A      0.218809    26A      0.240719  
      27A      0.259035    28A      0.459674    29A      0.473589  
      30A      0.481933    31A      0.513178    32A      0.534197  
      33A      0.572313    34A      0.613164    35A      0.617728  
      36A      0.638530    37A      0.656429    38A      0.667475  
      39A      0.680629    40A      0.712879    41A      0.790160  
      42A      0.793386    43A      0.842183    44A      0.888160  
      45A      0.962575    46A      0.994620    47A      1.008886  
      48A      1.058103    49A      1.199242    50A      1.215506  
      51A      1.233998    52A      1.282606    53A      1.336595  
      54A      1.384934    55A      1.413703    56A      1.499251  
      57A      1.540688    58A      1.549438    59A      1.588963  
      60A      1.612001    61A      1.628882    62A      1.649777  
      63A      1.715290    64A      1.743012    65A      1.775068  
      66A      1.800959    67A      1.849792    68A      1.904370  
      69A      1.931992    70A      1.961343    71A      1.972806  
      72A      2.010681    73A      2.067068    74A      2.125370  
      75A      2.147230    76A      2.167247    77A      2.285970  
      78A      2.377648    79A      2.386940    80A      2.440452  
      81A      2.456826    82A      2.531668    83A      2.624305  
      84A      2.681086    85A      2.814066    86A      2.962787  
      87A      3.009493    88A      3.050974    89A      3.103964  
      90A      3.192463    91A      3.690535  

    Final Occupation by Irrep:
              A 
    DOCC [    17 ]

  Energy converged.

  @DF-RKS Final Energy:  -210.38635544198934

   => Energetics <=

    Nuclear Repulsion Energy =            130.8061198987890918
    One-Electron Energy =                -544.5747459058345612
    Two-Electron Energy =                 226.8763428281860115
    DFT Exchange-Correlation Energy =     -23.4893672531298989
    Empirical Dispersion Energy =          -0.0047050100000000
    VV10 Nonlocal Energy =                  0.0000000000000000
    Total Energy =                       -210.3863554419893376



Properties will be evaluated at   0.000000,   0.000000,   0.000000 [a0]

Properties computed using the SCF density matrix

  Nuclear Dipole Moment: [e a0]
     X:   170.8198      Y:   -44.8013      Z:   -20.4317

  Electronic Dipole Moment: [e a0]
     X:  -170.2705      Y:    45.2895      Z:    20.3640

  Dipole Moment: [e a0]
     X:     0.5493      Y:     0.4881      Z:    -0.0677     Total:     0.7380

  Dipole Moment: [D]
     X:     1.3962      Y:     1.2407      Z:    -0.1722     Total:     1.8758


*** tstop() called on loro.prib.upf.edu at Sat Sep 29 17:08:49 2018
Module time:
	user time   =      15.21 seconds =       0.25 minutes
	system time =       0.23 seconds =       0.00 minutes
	total time  =         20 seconds =       0.33 minutes
Total time:
	user time   =      15.21 seconds =       0.25 minutes
	system time =       0.23 seconds =       0.00 minutes
	total time  =         20 seconds =       0.33 minutes


Properties will be evaluated at   0.000000,   0.000000,   0.000000 [a0]
OEProp: No title given, name of density matrix used for the following properties is 'SCF density'
  Nuclear Dipole Moment: [e a0]
     X:   170.8198      Y:   -44.8013      Z:   -20.4317

  Electronic Dipole Moment: [e a0]
     X:  -170.2705      Y:    45.2895      Z:    20.3640

  Dipole Moment: [e a0]
     X:     0.5493      Y:     0.4881      Z:    -0.0677     Total:     0.7380

  Dipole Moment: [D]
     X:     1.3962      Y:     1.2407      Z:    -0.1722     Total:     1.8758

  Quadrupole Moment: [D A]
    XX:   -16.5336     YY:   -25.2336     ZZ:   -24.8143
    XY:     0.3792     XZ:    -3.8017     YZ:     3.9634

  Traceless Quadrupole Moment: [D A]
    XX:     5.6602     YY:    -3.0398     ZZ:    -2.6205
    XY:     0.3792     XZ:    -3.8017     YZ:     3.9634

  Mulliken Charges: (a.u.)
   Center  Symbol    Alpha    Beta     Spin     Total
       1     O     4.14033  4.14033  0.00000 -0.28067
       2     C     2.92652  2.92652  0.00000  0.14696
       3     C     2.98285  2.98285  0.00000  0.03429
       4     N     3.59150  3.59150  0.00000 -0.18300
       5     H     0.43156  0.43156  0.00000  0.13688
       6     H     0.50098  0.50098  0.00000 -0.00197
       7     H     0.50408  0.50408  0.00000 -0.00817
       8     H     0.50455  0.50455  0.00000 -0.00910
       9     H     0.48591  0.48591  0.00000  0.02818
      10     H     0.46653  0.46653  0.00000  0.06694
      11     H     0.46518  0.46518  0.00000  0.06965

   Total alpha = 17.00000, Total beta = 17.00000, Total charge = -0.00000


    Psi4 stopped on: Saturday, 29 September 2018 05:08PM
    Psi4 wall time for execution: 0:00:19.97

*** Psi4 exiting successfully. Buy a developer a beer!
