
    -----------------------------------------------------------------------
          Psi4: An Open-Source Ab Initio Electronic Structure Package
                               Psi4 1.2.1 release

                         Git: Rev {HEAD} 406f4de 


    R. M. Parrish, L. A. Burns, D. G. A. Smith, A. C. Simmonett,
    A. E. DePrince III, E. G. Hohenstein, U. Bozkaya, A. Yu. Sokolov,
    R. Di Remigio, R. M. Richard, J. F. Gonthier, A. M. James,
    H. R. McAlexander, A. Kumar, M. Saitow, X. Wang, B. P. Pritchard,
    P. Verma, H. F. Schaefer III, K. Patkowski, R. A. King, E. F. Valeev,
    F. A. Evangelista, J. M. Turney, T. D. Crawford, and C. D. Sherrill,
    J. Chem. Theory Comput. 13(7) pp 3185--3197 (2017).
    (doi: 10.1021/acs.jctc.7b00174)


                         Additional Contributions by
    P. Kraus, H. Kruse, M. H. Lechner, M. C. Schieber, and R. A. Shaw

    -----------------------------------------------------------------------


    Psi4 started on: Saturday, 29 September 2018 08:37PM

    Process ID: 3365
    Host:       rosa.prib.upf.edu
    PSIDATADIR: /shared/joao/test_parameterize/miniconda3/share/psi4
    Memory:     500.0 MiB
    Threads:    1
    
  ==> Input File <==

--------------------------------------------------------------------------
set_num_threads(4)
set_memory('3000 MB')

set { scf_mem_safety_factor 0.7 }

set { reference rks }
set { basis 6-31G* }

molecule MOL {
    1 1
    noreorient
    nocom
    symmetry c1
    C   -0.000000  -0.000000  -0.177864
    C    0.036678   1.219374   0.524165
    C    0.031765   1.213120   1.915444
    C    0.000000   0.000000   2.610107
    C   -0.031765  -1.213120   1.915444
    C   -0.036678  -1.219375   0.524165
    C   -0.000000   0.000000  -1.644734
    H    0.018170   2.164705  -0.010854
    H    0.042402   2.152895   2.457886
    H    0.000000   0.000000   3.695756
    H   -0.042402  -2.152895   2.457886
    H   -0.018170  -2.164705  -0.010853
    N   -0.712590  -0.905950  -2.308461
    N    0.712590   0.905950  -2.308460
    H    0.673432   1.006470  -3.315997
    H    1.377190   1.485970  -1.813316
    H   -1.092986  -0.680247  -3.218209
    H   -0.845024  -1.853713  -1.975334
}

set optking { frozen_dihedral = (" 1 7 13 17 ") }

set optking { dynamic_level = 1 
 geom_maxiter = 250
 print_trajectory_xyz_file = True }

energy, wfn = optimize('B3LYP-D3', return_wfn=True)

import os
os.chdir(os.environ['HTMD_PSI4_WORKDIR'])

oeprop(wfn, 'DIPOLE', 'QUADRUPOLE', 'MULLIKEN_CHARGES')

with open('psi4out.xyz', 'w') as f:
    f.write('18 ' )
    f.write('%.12f\n' % energy)
    f.write(MOL.save_string_xyz())
--------------------------------------------------------------------------
  Threads set to 4 by Python driver.

  Memory set to   2.794 GiB by Python driver.
gradient() will perform analytic gradient computation.

*** tstart() called on rosa.prib.upf.edu
*** at Sat Sep 29 20:37:04 2018

   => Loading Basis Set <=

    Name: 6-31G*
    Role: ORBITAL
    Keyword: BASIS
    atoms 1-7         entry C          line   111 file /shared/joao/test_parameterize/miniconda3/share/psi4/basis/6-31gs.gbs 
    atoms 8-12, 15-18 entry H          line    44 file /shared/joao/test_parameterize/miniconda3/share/psi4/basis/6-31gs.gbs 
    atoms 13-14       entry N          line   128 file /shared/joao/test_parameterize/miniconda3/share/psi4/basis/6-31gs.gbs 


         ---------------------------------------------------------
                                   SCF
            by Justin Turney, Rob Parrish, Andy Simmonett
                             and Daniel Smith
                              RKS Reference
                        4 Threads,   2861 MiB Core
         ---------------------------------------------------------

  ==> Geometry <==

    Molecular point group: c1
    Full point group: C1

    Geometry (in Angstrom), charge = 1, multiplicity = 1:

       Center              X                  Y                   Z               Mass       
    ------------   -----------------  -----------------  -----------------  -----------------
         C            0.000000000000     0.000000000000    -0.177864000000    12.000000000000
         C            0.036678000000     1.219374000000     0.524165000000    12.000000000000
         C            0.031765000000     1.213120000000     1.915444000000    12.000000000000
         C            0.000000000000     0.000000000000     2.610107000000    12.000000000000
         C           -0.031765000000    -1.213120000000     1.915444000000    12.000000000000
         C           -0.036678000000    -1.219375000000     0.524165000000    12.000000000000
         C            0.000000000000     0.000000000000    -1.644734000000    12.000000000000
         H            0.018170000000     2.164705000000    -0.010854000000     1.007825032070
         H            0.042402000000     2.152895000000     2.457886000000     1.007825032070
         H            0.000000000000     0.000000000000     3.695756000000     1.007825032070
         H           -0.042402000000    -2.152895000000     2.457886000000     1.007825032070
         H           -0.018170000000    -2.164705000000    -0.010853000000     1.007825032070
         N           -0.712590000000    -0.905950000000    -2.308461000000    14.003074004780
         N            0.712590000000     0.905950000000    -2.308460000000    14.003074004780
         H            0.673432000000     1.006470000000    -3.315997000000     1.007825032070
         H            1.377190000000     1.485970000000    -1.813316000000     1.007825032070
         H           -1.092986000000    -0.680247000000    -3.218209000000     1.007825032070
         H           -0.845024000000    -1.853713000000    -1.975334000000     1.007825032070

  Running in c1 symmetry.

  Rotational constants: A =      0.12169  B =      0.03959  C =      0.03127 [cm^-1]
  Rotational constants: A =   3648.21753  B =   1187.02010  C =    937.33802 [MHz]
  Nuclear repulsion =  416.846800190568160

  Charge       = 1
  Multiplicity = 1
  Electrons    = 64
  Nalpha       = 32
  Nbeta        = 32

  ==> Algorithm <==

  SCF Algorithm Type is DF.
  DIIS enabled.
  MOM disabled.
  Fractional occupation disabled.
  Guess Type is SAD.
  Energy threshold   = 1.00e-08
  Density threshold  = 1.00e-08
  Integral threshold = 0.00e+00

  ==> Primary Basis <==

  Basis Set: 6-31G*
    Blend: 6-31G*
    Number of shells: 72
    Number of basis function: 153
    Number of Cartesian functions: 153
    Spherical Harmonics?: false
    Max angular momentum: 2

  ==> DFT Potential <==

   => Composite Functional: B3LYP-D3ZERO <= 

    B3LYP-d3zero Hyb-GGA Exchange-Correlation Functional

    P. J. Stephens, F. J. Devlin, C. F. Chabalowski, and M. J. Frisch, J. Phys. Chem. 98, 11623 (1994)

    Deriv               =              1
    GGA                 =           TRUE
    Meta                =          FALSE

    Exchange Hybrid     =           TRUE
    MP2 Hybrid          =          FALSE

   => Exchange Functionals <=

    0.0800   Slater exchange
    0.7200         Becke 88

   => Exact (HF) Exchange <=

    0.2000               HF 

   => Correlation Functionals <=

    0.1900   Vosko, Wilk & Nusair (VWN5_RPA)
    0.8100   Lee, Yang & Parr

   => Molecular Quadrature <=

    Radial Scheme       =       TREUTLER
    Pruning Scheme      =           FLAT
    Nuclear Scheme      =       TREUTLER

    BS radius alpha     =              1
    Pruning alpha       =              1
    Radial Points       =             75
    Spherical Points    =            302
    Total Points        =         396905
    Total Blocks        =           3002
    Max Points          =            256
    Max Functions       =            149

   => -D3ZERO: Empirical Dispersion <=

    Grimme's -D3 (zero-damping) Dispersion Correction
    Grimme S.; Antony J.; Ehrlich S.; Krieg H. (2010), J. Chem. Phys., 132: 154104

        S6 =   1.000000E+00
        S8 =   1.703000E+00
       SR6 =   1.261000E+00
       SR8 =   1.000000E+00
    ALPHA6 =   1.400000E+01

   => Loading Basis Set <=

    Name: (6-31G* AUX)
    Role: JKFIT
    Keyword: DF_BASIS_SCF
    atoms 1-7         entry C          line   121 file /shared/joao/test_parameterize/miniconda3/share/psi4/basis/cc-pvdz-jkfit.gbs 
    atoms 8-12, 15-18 entry H          line    51 file /shared/joao/test_parameterize/miniconda3/share/psi4/basis/cc-pvdz-jkfit.gbs 
    atoms 13-14       entry N          line   171 file /shared/joao/test_parameterize/miniconda3/share/psi4/basis/cc-pvdz-jkfit.gbs 

  ==> Pre-Iterations <==

   -------------------------------------------------------
    Irrep   Nso     Nmo     Nalpha   Nbeta   Ndocc  Nsocc
   -------------------------------------------------------
     A        153     153       0       0       0       0
   -------------------------------------------------------
    Total     153     153      32      32      32       0
   -------------------------------------------------------

  ==> Integral Setup <==

  ==> DiskDFJK: Density-Fitted J/K Matrices <==

    J tasked:                  Yes
    K tasked:                  Yes
    wK tasked:                  No
    OpenMP threads:              4
    Integrals threads:           4
    Memory (MB):              2002
    Algorithm:                Core
    Integral Cache:           NONE
    Schwarz Cutoff:          1E-12
    Fitting Condition:       1E-12

   => Auxiliary Basis Set <=

  Basis Set: (6-31G* AUX)
    Blend: CC-PVDZ-JKFIT
    Number of shells: 297
    Number of basis function: 954
    Number of Cartesian functions: 954
    Spherical Harmonics?: false
    Max angular momentum: 3

  Minimum eigenvalue in the overlap matrix is 4.8604113971E-04.
  Using Symmetric Orthogonalization.

  SCF Guess: Superposition of Atomic Densities via on-the-fly atomic UHF.

  ==> Iterations <==

                           Total Energy        Delta E     RMS |[F,P]|

   @DF-RKS iter   0:  -379.62149123810326   -3.79621e+02   6.82060e-02 
   @DF-RKS iter   1:  -381.02243955687283   -1.40095e+00   1.20200e-02 
   @DF-RKS iter   2:  -380.92580483893562    9.66347e-02   1.31731e-02 DIIS
   @DF-RKS iter   3:  -381.44570140983313   -5.19897e-01   1.77298e-03 DIIS
   @DF-RKS iter   4:  -381.45265485066875   -6.95344e-03   8.21830e-04 DIIS
   @DF-RKS iter   5:  -381.45428449983399   -1.62965e-03   2.49574e-04 DIIS
   @DF-RKS iter   6:  -381.45443722709496   -1.52727e-04   8.07216e-05 DIIS
   @DF-RKS iter   7:  -381.45445473392846   -1.75068e-05   1.43230e-05 DIIS
   @DF-RKS iter   8:  -381.45445521894766   -4.85019e-07   6.39229e-06 DIIS
   @DF-RKS iter   9:  -381.45445534277803   -1.23830e-07   2.02886e-06 DIIS
   @DF-RKS iter  10:  -381.45445535560714   -1.28291e-08   6.89699e-07 DIIS
   @DF-RKS iter  11:  -381.45445535699793   -1.39079e-09   8.05118e-08 DIIS
   @DF-RKS iter  12:  -381.45445535700776   -9.83391e-12   6.00689e-08 DIIS
   @DF-RKS iter  13:  -381.45445535701941   -1.16529e-11   2.09763e-08 DIIS
   @DF-RKS iter  14:  -381.45445535701924    1.70530e-13   4.78061e-09 DIIS

  ==> Post-Iterations <==

    Orbital Energies [Eh]
    ---------------------

    Doubly Occupied:                                                      

       1A    -14.573017     2A    -14.558261     3A    -10.500033  
       4A    -10.373505     5A    -10.357087     6A    -10.356429  
       7A    -10.342146     8A    -10.340571     9A    -10.340060  
      10A     -1.184159    11A     -1.091125    12A     -1.014236  
      13A     -0.926479    14A     -0.902447    15A     -0.845509  
      16A     -0.784764    17A     -0.773721    18A     -0.740979  
      19A     -0.732076    20A     -0.694718    21A     -0.671846  
      22A     -0.630012    23A     -0.610359    24A     -0.589859  
      25A     -0.577054    26A     -0.571364    27A     -0.516048  
      28A     -0.506868    29A     -0.498461    30A     -0.466626  
      31A     -0.408833    32A     -0.405195  

    Virtual:                                                              

      33A     -0.226306    34A     -0.155908    35A     -0.139853  
      36A     -0.110842    37A     -0.075926    38A     -0.055175  
      39A     -0.039689    40A     -0.029103    41A      0.007333  
      42A      0.019298    43A      0.029149    44A      0.060474  
      45A      0.069085    46A      0.086842    47A      0.123629  
      48A      0.147956    49A      0.156894    50A      0.166730  
      51A      0.206552    52A      0.241691    53A      0.298266  
      54A      0.350972    55A      0.356021    56A      0.380002  
      57A      0.390623    58A      0.397962    59A      0.419204  
      60A      0.422889    61A      0.440164    62A      0.450197  
      63A      0.455474    64A      0.471281    65A      0.473360  
      66A      0.474673    67A      0.486852    68A      0.504773  
      69A      0.509105    70A      0.538789    71A      0.547891  
      72A      0.588284    73A      0.612221    74A      0.652101  
      75A      0.661902    76A      0.678766    77A      0.689595  
      78A      0.705324    79A      0.716199    80A      0.724973  
      81A      0.763011    82A      0.765843    83A      0.776176  
      84A      0.804508    85A      0.814167    86A      0.835567  
      87A      0.852179    88A      0.918885    89A      0.956803  
      90A      0.966734    91A      0.991718    92A      1.017730  
      93A      1.025328    94A      1.073561    95A      1.140072  
      96A      1.159575    97A      1.262264    98A      1.274226  
      99A      1.277922   100A      1.308767   101A      1.326448  
     102A      1.340909   103A      1.351672   104A      1.363773  
     105A      1.402302   106A      1.454016   107A      1.531453  
     108A      1.614073   109A      1.639554   110A      1.654916  
     111A      1.682832   112A      1.736269   113A      1.751091  
     114A      1.799514   115A      1.818957   116A      1.829473  
     117A      1.894953   118A      1.924624   119A      1.953768  
     120A      1.980548   121A      1.994917   122A      2.009585  
     123A      2.020683   124A      2.053685   125A      2.121240  
     126A      2.127069   127A      2.152583   128A      2.193263  
     129A      2.210591   130A      2.297687   131A      2.341600  
     132A      2.393276   133A      2.447085   134A      2.452421  
     135A      2.489034   136A      2.523801   137A      2.544609  
     138A      2.590075   139A      2.602459   140A      2.628492  
     141A      2.736119   142A      2.861564   143A      2.984717  
     144A      3.258418   145A      3.628398   146A      3.662582  
     147A      3.915229   148A      3.947941   149A      3.964026  
     150A      4.047559   151A      4.173789   152A      4.254332  
     153A      4.546252  

    Final Occupation by Irrep:
              A 
    DOCC [    32 ]

  Energy converged.

  @DF-RKS Final Energy:  -381.45445535701924

   => Energetics <=

    Nuclear Repulsion Energy =            416.8468001905681604
    One-Electron Energy =               -1328.8860194289973151
    Two-Electron Energy =                 575.0039518742678410
    DFT Exchange-Correlation Energy =     -44.4073006828579153
    Empirical Dispersion Energy =          -0.0118873100000000
    VV10 Nonlocal Energy =                  0.0000000000000000
    Total Energy =                       -381.4544553570192420



Properties will be evaluated at   0.000000,   0.000000,   0.000000 [a0]

Properties computed using the SCF density matrix

  Nuclear Dipole Moment: [e a0]
     X:     0.2128      Y:    -0.0785      Z:    -0.0966

  Electronic Dipole Moment: [e a0]
     X:    -0.1068      Y:     0.1143      Z:    -2.1869

  Dipole Moment: [e a0]
     X:     0.1060      Y:     0.0358      Z:    -2.2835     Total:     2.2863

  Dipole Moment: [D]
     X:     0.2693      Y:     0.0910      Z:    -5.8041     Total:     5.8111


*** tstop() called on rosa.prib.upf.edu at Sat Sep 29 20:37:33 2018
Module time:
	user time   =     103.59 seconds =       1.73 minutes
	system time =       1.61 seconds =       0.03 minutes
	total time  =         29 seconds =       0.48 minutes
Total time:
	user time   =     103.59 seconds =       1.73 minutes
	system time =       1.61 seconds =       0.03 minutes
	total time  =         29 seconds =       0.48 minutes

*** tstart() called on rosa.prib.upf.edu
*** at Sat Sep 29 20:37:33 2018


         ------------------------------------------------------------
                                   SCF GRAD                          
                          Rob Parrish, Justin Turney,                
                       Andy Simmonett, and Alex Sokolov              
         ------------------------------------------------------------

  ==> Geometry <==

    Molecular point group: c1
    Full point group: C1

    Geometry (in Angstrom), charge = 1, multiplicity = 1:

       Center              X                  Y                   Z               Mass       
    ------------   -----------------  -----------------  -----------------  -----------------
         C            0.000000000000     0.000000000000    -0.177864000000    12.000000000000
         C            0.036678000000     1.219374000000     0.524165000000    12.000000000000
         C            0.031765000000     1.213120000000     1.915444000000    12.000000000000
         C            0.000000000000     0.000000000000     2.610107000000    12.000000000000
         C           -0.031765000000    -1.213120000000     1.915444000000    12.000000000000
         C           -0.036678000000    -1.219375000000     0.524165000000    12.000000000000
         C            0.000000000000     0.000000000000    -1.644734000000    12.000000000000
         H            0.018170000000     2.164705000000    -0.010854000000     1.007825032070
         H            0.042402000000     2.152895000000     2.457886000000     1.007825032070
         H            0.000000000000     0.000000000000     3.695756000000     1.007825032070
         H           -0.042402000000    -2.152895000000     2.457886000000     1.007825032070
         H           -0.018170000000    -2.164705000000    -0.010853000000     1.007825032070
         N           -0.712590000000    -0.905950000000    -2.308461000000    14.003074004780
         N            0.712590000000     0.905950000000    -2.308460000000    14.003074004780
         H            0.673432000000     1.006470000000    -3.315997000000     1.007825032070
         H            1.377190000000     1.485970000000    -1.813316000000     1.007825032070
         H           -1.092986000000    -0.680247000000    -3.218209000000     1.007825032070
         H           -0.845024000000    -1.853713000000    -1.975334000000     1.007825032070

  Nuclear repulsion =  416.846800190568160

  ==> Basis Set <==

  Basis Set: 6-31G*
    Blend: 6-31G*
    Number of shells: 72
    Number of basis function: 153
    Number of Cartesian functions: 153
    Spherical Harmonics?: false
    Max angular momentum: 2

  ==> DFJKGrad: Density-Fitted SCF Gradients <==

    Gradient:                    1
    J tasked:                  Yes
    K tasked:                  Yes
    wK tasked:                  No
    OpenMP threads:              4
    Integrals threads:           4
    Memory (MB):              2002
    Schwarz Cutoff:          0E+00
    Fitting Condition:       1E-12

   => Auxiliary Basis Set <=

  Basis Set: (6-31G* AUX)
    Blend: CC-PVDZ-JKFIT
    Number of shells: 297
    Number of basis function: 954
    Number of Cartesian functions: 954
    Spherical Harmonics?: false
    Max angular momentum: 3

  ==> DFT Potential <==

   => Composite Functional: B3LYP-D3ZERO <= 

    B3LYP-d3zero Hyb-GGA Exchange-Correlation Functional

    P. J. Stephens, F. J. Devlin, C. F. Chabalowski, and M. J. Frisch, J. Phys. Chem. 98, 11623 (1994)

    Deriv               =              1
    GGA                 =           TRUE
    Meta                =          FALSE

    Exchange Hybrid     =           TRUE
    MP2 Hybrid          =          FALSE

   => Exchange Functionals <=

    0.0800   Slater exchange
    0.7200         Becke 88

   => Exact (HF) Exchange <=

    0.2000               HF 

   => Correlation Functionals <=

    0.1900   Vosko, Wilk & Nusair (VWN5_RPA)
    0.8100   Lee, Yang & Parr

   => Molecular Quadrature <=

    Radial Scheme       =       TREUTLER
    Pruning Scheme      =           FLAT
    Nuclear Scheme      =       TREUTLER

    BS radius alpha     =              1
    Pruning alpha       =              1
    Radial Points       =             75
    Spherical Points    =            302
    Total Points        =         396905
    Total Blocks        =           3002
    Max Points          =            256
    Max Functions       =            149


  -Total Gradient:
     Atom            X                  Y                   Z
    ------   -----------------  -----------------  -----------------
       1       -0.008893910855     0.005194755807    -0.001509590626
       2       -0.001425575789     0.000125251084     0.001396208169
       3        0.000958076107     0.001057703372    -0.000909662841
       4       -0.000143753335    -0.001107386427    -0.000011946823
       5       -0.000161093892     0.001122595963     0.001247595992
       6        0.000143828287    -0.002414111406    -0.001686926118
       7       -0.010392395549    -0.000371152797    -0.007814515154
       8       -0.000274377813     0.000006105217    -0.000112911063
       9        0.000145186916    -0.000044229944     0.000089803462
      10        0.000001863165     0.000047694443     0.000050516577
      11        0.000043728796    -0.000019126842    -0.000056086530
      12        0.000266866824     0.000906294953    -0.001382014567
      13        0.006805463095     0.001328253040     0.013397608614
      14        0.008091232549    -0.003926657528    -0.001985670257
      15       -0.001602543976     0.002069539861     0.000650384973
      16        0.003734780242    -0.004039603373    -0.000934544221
      17       -0.006944748763     0.006696147829     0.006337628905
      18        0.009645360649    -0.006633470877    -0.006772953907


*** tstop() called on rosa.prib.upf.edu at Sat Sep 29 20:37:41 2018
Module time:
	user time   =      28.52 seconds =       0.48 minutes
	system time =       0.74 seconds =       0.01 minutes
	total time  =          8 seconds =       0.13 minutes
Total time:
	user time   =     132.16 seconds =       2.20 minutes
	system time =       2.35 seconds =       0.04 minutes
	total time  =         37 seconds =       0.62 minutes

			-----------------------------------------
			 OPTKING 2.0: for geometry optimizations 
			  - R.A. King,  Bethel University        
			-----------------------------------------
	At level 1: Red. Int., RFO, no backsteps, dynamic trust

	Internal coordinates to be generated automatically.
	Detected frag 1 with atoms:  1 2 3 4 5 6 7 8 9 10 11 12 13 14 15 16 17 18
	---Fragment 1 Bond Connectivity---
	 1 : 2 6 7
	 2 : 1 3 8
	 3 : 2 4 9
	 4 : 3 5 10
	 5 : 4 6 11
	 6 : 1 5 12
	 7 : 1 13 14
	 8 : 2
	 9 : 3
	 10 : 4
	 11 : 5
	 12 : 6
	 13 : 7 17 18
	 14 : 7 15 16
	 15 : 14
	 16 : 14
	 17 : 13
	 18 : 13

	Assuming in current code that numbering for constraints corresponds to unified fragment.
	Frozen dihedral atom list: 
	     1     7    13    17
	---Fragment 1 Geometry and Gradient---
	 C           0.0000000000        0.0000000000       -0.3361142489
	 C           0.0693113751        2.3042829136        0.9905282984
	 C           0.0600271506        2.2924645663        3.6196645829
	 C           0.0000000000        0.0000000000        4.9323874075
	 C          -0.0600271506       -2.2924645663        3.6196645829
	 C          -0.0693113751       -2.3042848033        0.9905282984
	 C           0.0000000000        0.0000000000       -3.1080968214
	 H           0.0343363238        4.0906996085       -0.0205110874
	 H           0.0801281675        4.0683819429        4.6447314059
	 H           0.0000000000        0.0000000000        6.9839666940
	 H          -0.0801281675       -4.0683819429        4.6447314059
	 H          -0.0343363238       -4.0906996085       -0.0205091977
	 N          -1.3465999450       -1.7119973901       -4.3623590784
	 N           1.3465999450        1.7119973901       -4.3623571887
	 H           1.2726020491        1.9019526610       -6.2663261875
	 H           2.6025119329        2.8080763417       -3.4266706324
	 H          -2.0654442071       -1.2854805327       -6.0815336484
	 H          -1.5968639357       -3.5030098990       -3.7328402810
	            -0.0088939109        0.0051947558       -0.0015095906
	            -0.0014255758        0.0001252511        0.0013962082
	             0.0009580761        0.0010577034       -0.0009096628
	            -0.0001437533       -0.0011073864       -0.0000119468
	            -0.0001610939        0.0011225960        0.0012475960
	             0.0001438283       -0.0024141114       -0.0016869261
	            -0.0103923955       -0.0003711528       -0.0078145152
	            -0.0002743778        0.0000061052       -0.0001129111
	             0.0001451869       -0.0000442299        0.0000898035
	             0.0000018632        0.0000476944        0.0000505166
	             0.0000437288       -0.0000191268       -0.0000560865
	             0.0002668668        0.0009062950       -0.0013820146
	             0.0068054631        0.0013282530        0.0133976086
	             0.0080912325       -0.0039266575       -0.0019856703
	            -0.0016025440        0.0020695399        0.0006503850
	             0.0037347802       -0.0040396034       -0.0009345442
	            -0.0069447488        0.0066961478        0.0063376289
	             0.0096453606       -0.0066334709       -0.0067729539

	Previous optimization step data not found.  Starting new optimization.

	---Fragment 1 Intrafragment Coordinates---
	 - Coordinate -           - BOHR/RAD -       - ANG/DEG -
	 R(1,2)           =         2.659794	       1.407502
	 R(1,6)           =         2.659796	       1.407503
	 R(1,7)           =         2.771983	       1.466870
	 R(2,3)           =         2.629179	       1.391302
	 R(2,8)           =         2.052976	       1.086388
	 R(3,4)           =         2.642393	       1.398294
	 R(3,9)           =         2.050622	       1.085142
	 R(4,5)           =         2.642393	       1.398294
	 R(4,10)          =         2.051579	       1.085649
	 R(5,6)           =         2.629179	       1.391302
	 R(5,11)          =         2.050622	       1.085142
	 R(6,12)          =         2.052973	       1.086386
	 R(7,13)          =         2.513452	       1.330061
	 R(7,14)          =         2.513451	       1.330061
	 R(13,17)         =         1.911600	       1.011575
	 R(13,18)         =         1.914850	       1.013295
	 R(14,15)         =         1.914852	       1.013296
	 R(14,16)         =         1.911600	       1.011575
	 B(1,2,3)         =         2.088380	     119.655376
	 B(1,2,8)         =         2.103396	     120.515689
	 B(1,6,5)         =         2.088379	     119.655315
	 B(1,6,12)        =         2.103396	     120.515729
	 B(1,7,13)        =         2.093264	     119.935172
	 B(1,7,14)        =         2.093263	     119.935135
	 B(2,1,6)         =         2.097220	     120.161857
	 B(2,1,7)         =         2.092983	     119.919082
	 B(2,3,4)         =         2.095279	     120.050636
	 B(2,3,9)         =         2.089719	     119.732108
	 B(3,2,8)         =         2.090149	     119.756722
	 B(3,4,5)         =         2.101793	     120.423859
	 B(3,4,10)        =         2.090696	     119.788070
	 B(4,3,9)         =         2.098135	     120.214297
	 B(4,5,6)         =         2.095280	     120.050677
	 B(4,5,11)        =         2.098135	     120.214297
	 B(5,4,10)        =         2.090696	     119.788070
	 B(5,6,12)        =         2.090149	     119.756743
	 B(6,1,7)         =         2.092982	     119.919061
	 B(6,5,11)        =         2.089719	     119.732067
	 B(7,13,17)       =         2.092411	     119.886303
	 B(7,13,18)       =         2.144860	     122.891449
	 B(7,14,15)       =         2.144860	     122.891405
	 B(7,14,16)       =         2.092412	     119.886393
	 B(13,7,14)       =         2.096659	     120.129694
	 B(15,14,16)      =         2.043399	     117.078146
	 B(17,13,18)      =         2.043400	     117.078191
	 D(1,2,3,4)       =         0.007799	       0.446825
	 D(1,2,3,9)       =        -3.122896	    -178.928735
	 D(1,6,5,4)       =         0.007799	       0.446822
	 D(1,6,5,11)      =        -3.122896	    -178.928737
	*D(1,7,13,17)     =         2.617994	     149.999979
	 D(1,7,13,18)     =        -0.602015	     -34.492936
	 D(1,7,14,15)     =        -3.032165	    -173.730230
	 D(1,7,14,16)     =         0.187844	      10.762681
	 D(2,1,6,5)       =        -0.003906	      -0.223802
	 D(2,1,6,12)      =        -3.091437	    -177.126283
	 D(2,1,7,13)      =        -2.505167	    -143.535494
	 D(2,1,7,14)      =         0.636426	      36.464506
	 D(2,3,4,5)       =        -0.003942	      -0.225875
	 D(2,3,4,10)      =         3.137650	     179.774125
	 D(3,2,1,6)       =        -0.003906	      -0.223806
	 D(3,2,1,7)       =         3.137687	     179.776196
	 D(3,4,5,6)       =        -0.003942	      -0.225874
	 D(3,4,5,11)      =         3.126699	     179.146646
	 D(4,3,2,8)       =         3.095744	     177.373058
	 D(4,5,6,12)      =         3.095744	     177.373055
	 D(5,4,3,9)       =         3.126699	     179.146646
	 D(5,6,1,7)       =         3.137687	     179.776197
	 D(6,1,2,8)       =        -3.091437	    -177.126287
	 D(6,1,7,13)      =         0.636426	      36.464508
	 D(6,1,7,14)      =        -2.505167	    -143.535492
	 D(6,5,4,10)      =         3.137650	     179.774126
	 D(7,1,2,8)       =         0.050156	       2.873714
	 D(7,1,6,12)      =         0.050156	       2.873716
	 D(8,2,3,9)       =        -0.034950	      -2.002503
	 D(9,3,4,10)      =        -0.014894	      -0.853354
	 D(10,4,5,11)     =        -0.014894	      -0.853354
	 D(11,5,6,12)     =        -0.034950	      -2.002504
	 D(13,7,14,15)    =         0.109428	       6.269770
	 D(13,7,14,16)    =        -2.953748	    -169.237319
	 D(14,7,13,17)    =        -0.523599	     -30.000021
	 D(14,7,13,18)    =         2.539577	     145.507064

	Current energy   :      -381.4544553570

	Generating empirical Hessian (Schlegel '84) for each fragment.
	Taking RFO optimization step.
	Going to follow RFO solution 1.
	Using RFO vector 1.

	Determining step-restricting scale parameter for RS-RFO.
	Maximum step size allowed    0.50000

	 Iter      |step|        alpha        rfo_root  
	------------------------------------------------
	    0     0.58909       1.00000           1
	    1     0.51761       1.54540           1
	    2     0.50093       1.71162           1
	    3     0.50000       1.72140           1
	------------------------------------------------
	Norm of target step-size    0.50000
	Projected energy change by RFO approximation:        -0.0105388800

	Back-transformation to cartesian coordinates...
	Could not converge backtransformation.
	Using first guess instead.

	Back-transformation to cartesian coordinates to adjust frozen coordinates...
	Successfully converged to displaced geometry.

	--- Internal Coordinate Step in ANG or DEG, aJ/ANG or AJ/DEG ---
	 ---------------------------------------------------------------------------
	   Coordinate                Previous        Force       Change         New 
	   ----------                --------       ------       ------       ------
	    1 R(1,2)          =      1.407502    -0.003136    -0.000278     1.407224
	    2 R(1,6)          =      1.407503     0.006001     0.001165     1.408668
	    3 R(1,7)          =      1.466870     0.023733     0.004082     1.470952
	    4 R(2,3)          =      1.391302     0.004699     0.001186     1.392487
	    5 R(2,8)          =      1.086388    -0.000538     0.000125     1.086513
	    6 R(3,4)          =      1.398294    -0.008874    -0.000922     1.397372
	    7 R(3,9)          =      1.085142    -0.000067     0.000181     1.085323
	    8 R(4,5)          =      1.398294     0.000622     0.000259     1.398553
	    9 R(4,10)         =      1.085649    -0.000419     0.000286     1.085935
	   10 R(5,6)          =      1.391302    -0.008124    -0.000740     1.390561
	   11 R(5,11)         =      1.085142     0.000096     0.000244     1.085386
	   12 R(6,12)         =      1.086386     0.000853     0.000530     1.086917
	   13 R(7,13)         =      1.330061     0.103072     0.011993     1.342054
	   14 R(7,14)         =      1.330061    -0.021373     0.001284     1.331345
	   15 R(13,17)        =      1.011575     0.013134     0.001929     1.013504
	   16 R(13,18)        =      1.013295    -0.022381     0.018634     1.031929
	   17 R(14,15)        =      1.013296     0.003132     0.000485     1.013781
	   18 R(14,16)        =      1.011575     0.002628     0.008545     1.020120
	   19 B(1,2,3)        =    119.655376     0.000029     0.085067   119.740443
	   20 B(1,2,8)        =    120.515689    -0.000007    -0.027690   120.487999
	   21 B(1,6,5)        =    119.655315     0.000063     0.199170   119.854485
	   22 B(1,6,12)       =    120.515729     0.000097     0.452787   120.968516
	   23 B(1,7,13)       =    119.935172     0.000484     1.312817   121.247989
	   24 B(1,7,14)       =    119.935135    -0.000328    -1.039113   118.896022
	   25 B(2,1,6)        =    120.161857    -0.000092    -0.261682   119.900175
	   26 B(2,1,7)        =    119.919082    -0.000252    -0.710032   119.209049
	   27 B(2,3,4)        =    120.050636     0.000022     0.075979   120.126615
	   28 B(2,3,9)        =    119.732108    -0.000019    -0.063178   119.668930
	   29 B(3,2,8)        =    119.756722    -0.000023    -0.081454   119.675267
	   30 B(3,4,5)        =    120.423859    -0.000024    -0.099999   120.323860
	   31 B(3,4,10)       =    119.788070     0.000016     0.067530   119.855600
	   32 B(4,3,9)        =    120.214297    -0.000003    -0.011047   120.203249
	   33 B(4,5,6)        =    120.050677     0.000002    -0.006460   120.044217
	   34 B(4,5,11)       =    120.214297    -0.000005    -0.023523   120.190774
	   35 B(5,4,10)       =    119.788070     0.000009     0.032431   119.820501
	   36 B(5,6,12)       =    119.756743    -0.000160    -0.637269   119.119474
	   37 B(6,1,7)        =    119.919061     0.000344     0.970847   120.889908
	   38 B(6,5,11)       =    119.732067     0.000004     0.032257   119.764324
	   39 B(7,13,17)      =    119.886303     0.000445     2.045637   121.931941
	   40 B(7,13,18)      =    122.891449    -0.000311    -1.690855   121.200593
	   41 B(7,14,15)      =    122.891405    -0.000053    -0.238166   122.653239
	   42 B(7,14,16)      =    119.886393     0.000043     0.498112   120.384505
	   43 B(13,7,14)      =    120.129694    -0.000156    -0.663117   119.466576
	   44 B(15,14,16)     =    117.078146     0.000022    -0.120978   116.957167
	   45 B(17,13,18)     =    117.078191    -0.000093    -0.583380   116.494811
	   46 D(1,2,3,4)      =      0.446825     0.000007     0.668228     1.115053
	   47 D(1,2,3,9)      =   -178.928735     0.000005     0.442391  -178.486345
	   48 D(1,6,5,4)      =      0.446822     0.000002     0.200112     0.646934
	   49 D(1,6,5,11)     =   -178.928737    -0.000001    -0.123847  -179.052584
	   50 *D(1,7,13,17)   =    149.999979    -0.000000     0.000000   149.999979
	   51 D(1,7,13,18)    =    -34.492936     0.000147    11.747729   -22.745207
	   52 D(1,7,14,15)    =   -173.730230     0.000002     0.406171  -173.324058
	   53 D(1,7,14,16)    =     10.762681    -0.000042    -3.240776     7.521905
	   54 D(2,1,6,5)      =     -0.223802     0.000002     0.204763    -0.019039
	   55 D(2,1,6,12)     =   -177.126283    -0.000001    -0.110120  -177.236403
	   56 D(2,1,7,13)     =   -143.535494     0.000027     2.238900  -141.296593
	   57 D(2,1,7,14)     =     36.464506    -0.000050    -4.963476    31.501030
	   58 D(2,3,4,5)      =     -0.225875    -0.000003    -0.264813    -0.490689
	   59 D(2,3,4,10)     =    179.774125    -0.000002    -0.193779   179.580346
	   60 D(3,2,1,6)      =     -0.223806    -0.000007    -0.638534    -0.862340
	   61 D(3,2,1,7)      =    179.776196    -0.000010    -0.974216   178.801980
	   62 D(3,4,5,6)      =     -0.225874    -0.000002    -0.172311    -0.398185
	   63 D(3,4,5,11)     =    179.146646     0.000002     0.153394   179.300041
	   64 D(4,3,2,8)      =    177.373058     0.000002     0.192105   177.565162
	   65 D(4,5,6,12)     =    177.373055     0.000007     0.542745   177.915800
	   66 D(5,4,3,9)      =    179.146646    -0.000000    -0.038084   179.108563
	   67 D(5,6,1,7)      =    179.776197     0.000005     0.546190   180.322387
	   68 D(6,1,2,8)      =   -177.126287    -0.000002    -0.156836  -177.283123
	   69 D(6,1,7,13)     =     36.464508     0.000024     1.899800    38.364308
	   70 D(6,1,7,14)     =   -143.535492    -0.000053    -5.302577  -148.838069
	   71 D(6,5,4,10)     =    179.774126    -0.000003    -0.243320   179.530805
	   72 D(7,1,2,8)      =      2.873714    -0.000005    -0.492517     2.381197
	   73 D(7,1,6,12)     =      2.873716     0.000003     0.231307     3.105023
	   74 D(8,2,3,9)      =     -2.002503    -0.000000    -0.033733    -2.036235
	   75 D(9,3,4,10)     =     -0.853354     0.000000     0.032951    -0.820403
	   76 D(10,4,5,11)    =     -0.853354     0.000001     0.082385    -0.770969
	   77 D(11,5,6,12)    =     -2.002504     0.000003     0.218786    -1.783718
	   78 D(13,7,14,15)   =      6.269770    -0.000076    -6.665552    -0.395781
	   79 D(13,7,14,16)   =   -169.237319    -0.000119   -10.312499  -179.549818
	   80 D(14,7,13,17)   =    -30.000021     0.000078     7.242757   -22.757264
	   81 D(14,7,13,18)   =    145.507064     0.000224    18.990486   164.497550
	 ---------------------------------------------------------------------------
	Successfully symmetrized geometry.

  ==> Convergence Check <==

  Measures of convergence in internal coordinates in au.
  Criteria marked as inactive (o), active & met (*), and active & unmet ( ).
  --------------------------------------------------------------------------------------------- ~
   Step     Total Energy     Delta E     MAX Force     RMS Force      MAX Disp      RMS Disp    ~
  --------------------------------------------------------------------------------------------- ~
    Convergence Criteria    1.00e-06 *    3.00e-04 *             o    1.20e-03 *             o  ~
  --------------------------------------------------------------------------------------------- ~
      1    -381.45445536   -3.81e+02      1.28e-02      2.92e-03 o    3.31e-01      5.48e-02 o  ~
  ---------------------------------------------------------------------------------------------

	Writing optimization data to binary file.
	Structure for next step:
	Cartesian Geometry (in Angstrom)
	    C     0.0425249816  -0.0396396738  -0.1817608034
	    C     0.0764814436   1.1889472366   0.5035866703
	    C     0.0393582631   1.2047350582   1.8954894500
	    C    -0.0078371351   0.0044797648   2.6094977272
	    C    -0.0284684521  -1.2193114533   1.9328449980
	    C    -0.0103878554  -1.2465977474   0.5426690016
	    C     0.0555032609  -0.0416767022  -1.6526540807
	    H     0.0729812928   2.1266255659  -0.0452832532
	    H     0.0407147212   2.1536766321   2.4222089681
	    H    -0.0297722990   0.0217531115   3.6950737232
	    H    -0.0536769537  -2.1505821827   2.4897675620
	    H     0.0077019868  -2.2062627996   0.0326650228
	    N    -0.6845490831  -0.9141940943  -2.3541848317
	    N     0.7022460640   0.9308873040  -2.2916546848
	    H     0.6663337437   1.0418866555  -3.2987008233
	    H     1.2742290363   1.5976003301  -1.7730271717
	    H    -1.0498930479  -0.6903545411  -3.2726676087
	    H    -1.0008779678  -1.8034934643  -1.9370988657
			--------------------------
			 OPTKING Finished Execution 
			--------------------------

    Structure for next step:
    Molecular point group: c1
    Full point group: C1

    Geometry (in Angstrom), charge = 1, multiplicity = 1:

    C            0.042524981561    -0.039639673781    -0.181760803426
    C            0.076481443568     1.188947236592     0.503586670315
    C            0.039358263121     1.204735058229     1.895489450001
    C           -0.007837135136     0.004479764758     2.609497727230
    C           -0.028468452090    -1.219311453325     1.932844998014
    C           -0.010387855383    -1.246597747394     0.542669001613
    C            0.055503260918    -0.041676702188    -1.652654080652
    H            0.072981292839     2.126625565919    -0.045283253168
    H            0.040714721236     2.153676632098     2.422208968075
    H           -0.029772298972     0.021753111508     3.695073723225
    H           -0.053676953671    -2.150582182706     2.489767561959
    H            0.007701986808    -2.206262799621     0.032665022758
    N           -0.684549083124    -0.914194094271    -2.354184831733
    N            0.702246064014     0.930887303972    -2.291654684799
    H            0.666333743664     1.041886655477    -3.298700823298
    H            1.274229036316     1.597600330128    -1.773027171726
    H           -1.049893047911    -0.690354541056    -3.272667608686
    H           -1.000877967759    -1.803493464338    -1.937098865701

gradient() will perform analytic gradient computation.

*** tstart() called on rosa.prib.upf.edu
*** at Sat Sep 29 20:37:41 2018

   => Loading Basis Set <=

    Name: 6-31G*
    Role: ORBITAL
    Keyword: BASIS
    atoms 1-7         entry C          line   111 file /shared/joao/test_parameterize/miniconda3/share/psi4/basis/6-31gs.gbs 
    atoms 8-12, 15-18 entry H          line    44 file /shared/joao/test_parameterize/miniconda3/share/psi4/basis/6-31gs.gbs 
    atoms 13-14       entry N          line   128 file /shared/joao/test_parameterize/miniconda3/share/psi4/basis/6-31gs.gbs 


         ---------------------------------------------------------
                                   SCF
            by Justin Turney, Rob Parrish, Andy Simmonett
                             and Daniel Smith
                              RKS Reference
                        4 Threads,   2861 MiB Core
         ---------------------------------------------------------

  ==> Geometry <==

    Molecular point group: c1
    Full point group: C1

    Geometry (in Angstrom), charge = 1, multiplicity = 1:

       Center              X                  Y                   Z               Mass       
    ------------   -----------------  -----------------  -----------------  -----------------
         C            0.042524981561    -0.039639673781    -0.181760803426    12.000000000000
         C            0.076481443568     1.188947236592     0.503586670315    12.000000000000
         C            0.039358263121     1.204735058229     1.895489450001    12.000000000000
         C           -0.007837135136     0.004479764758     2.609497727230    12.000000000000
         C           -0.028468452090    -1.219311453325     1.932844998014    12.000000000000
         C           -0.010387855383    -1.246597747394     0.542669001613    12.000000000000
         C            0.055503260918    -0.041676702188    -1.652654080652    12.000000000000
         H            0.072981292839     2.126625565919    -0.045283253168     1.007825032070
         H            0.040714721236     2.153676632098     2.422208968075     1.007825032070
         H           -0.029772298972     0.021753111508     3.695073723225     1.007825032070
         H           -0.053676953671    -2.150582182706     2.489767561959     1.007825032070
         H            0.007701986808    -2.206262799621     0.032665022758     1.007825032070
         N           -0.684549083124    -0.914194094271    -2.354184831733    14.003074004780
         N            0.702246064014     0.930887303972    -2.291654684799    14.003074004780
         H            0.666333743664     1.041886655477    -3.298700823298     1.007825032070
         H            1.274229036316     1.597600330128    -1.773027171726     1.007825032070
         H           -1.049893047911    -0.690354541056    -3.272667608686     1.007825032070
         H           -1.000877967759    -1.803493464338    -1.937098865701     1.007825032070

  Running in c1 symmetry.

  Rotational constants: A =      0.12145  B =      0.03948  C =      0.03109 [cm^-1]
  Rotational constants: A =   3640.87009  B =   1183.64921  C =    932.03765 [MHz]
  Nuclear repulsion =  416.161730459167757

  Charge       = 1
  Multiplicity = 1
  Electrons    = 64
  Nalpha       = 32
  Nbeta        = 32

  ==> Algorithm <==

  SCF Algorithm Type is DF.
  DIIS enabled.
  MOM disabled.
  Fractional occupation disabled.
  Guess Type is READ.
  Energy threshold   = 1.00e-08
  Density threshold  = 1.00e-08
  Integral threshold = 0.00e+00

  ==> Primary Basis <==

  Basis Set: 6-31G*
    Blend: 6-31G*
    Number of shells: 72
    Number of basis function: 153
    Number of Cartesian functions: 153
    Spherical Harmonics?: false
    Max angular momentum: 2

  ==> DFT Potential <==

   => Composite Functional: B3LYP-D3ZERO <= 

    B3LYP-d3zero Hyb-GGA Exchange-Correlation Functional

    P. J. Stephens, F. J. Devlin, C. F. Chabalowski, and M. J. Frisch, J. Phys. Chem. 98, 11623 (1994)

    Deriv               =              1
    GGA                 =           TRUE
    Meta                =          FALSE

    Exchange Hybrid     =           TRUE
    MP2 Hybrid          =          FALSE

   => Exchange Functionals <=

    0.0800   Slater exchange
    0.7200         Becke 88

   => Exact (HF) Exchange <=

    0.2000               HF 

   => Correlation Functionals <=

    0.1900   Vosko, Wilk & Nusair (VWN5_RPA)
    0.8100   Lee, Yang & Parr

   => Molecular Quadrature <=

    Radial Scheme       =       TREUTLER
    Pruning Scheme      =           FLAT
    Nuclear Scheme      =       TREUTLER

    BS radius alpha     =              1
    Pruning alpha       =              1
    Radial Points       =             75
    Spherical Points    =            302
    Total Points        =         396868
    Total Blocks        =           2981
    Max Points          =            256
    Max Functions       =            149

   => -D3ZERO: Empirical Dispersion <=

    Grimme's -D3 (zero-damping) Dispersion Correction
    Grimme S.; Antony J.; Ehrlich S.; Krieg H. (2010), J. Chem. Phys., 132: 154104

        S6 =   1.000000E+00
        S8 =   1.703000E+00
       SR6 =   1.261000E+00
       SR8 =   1.000000E+00
    ALPHA6 =   1.400000E+01

   => Loading Basis Set <=

    Name: (6-31G* AUX)
    Role: JKFIT
    Keyword: DF_BASIS_SCF
    atoms 1-7         entry C          line   121 file /shared/joao/test_parameterize/miniconda3/share/psi4/basis/cc-pvdz-jkfit.gbs 
    atoms 8-12, 15-18 entry H          line    51 file /shared/joao/test_parameterize/miniconda3/share/psi4/basis/cc-pvdz-jkfit.gbs 
    atoms 13-14       entry N          line   171 file /shared/joao/test_parameterize/miniconda3/share/psi4/basis/cc-pvdz-jkfit.gbs 

  Reading orbitals from file 180, no projection.

  ==> Pre-Iterations <==

   -------------------------------------------------------
    Irrep   Nso     Nmo     Nalpha   Nbeta   Ndocc  Nsocc
   -------------------------------------------------------
     A        153     153       0       0       0       0
   -------------------------------------------------------
    Total     153     153      32      32      32       0
   -------------------------------------------------------

  ==> Integral Setup <==

  ==> DiskDFJK: Density-Fitted J/K Matrices <==

    J tasked:                  Yes
    K tasked:                  Yes
    wK tasked:                  No
    OpenMP threads:              4
    Integrals threads:           4
    Memory (MB):              2002
    Algorithm:                Core
    Integral Cache:           NONE
    Schwarz Cutoff:          1E-12
    Fitting Condition:       1E-12

   => Auxiliary Basis Set <=

  Basis Set: (6-31G* AUX)
    Blend: CC-PVDZ-JKFIT
    Number of shells: 297
    Number of basis function: 954
    Number of Cartesian functions: 954
    Spherical Harmonics?: false
    Max angular momentum: 3

  Minimum eigenvalue in the overlap matrix is 4.8597010747E-04.
  Using Symmetric Orthogonalization.

  SCF Guess: Orbitals guess was supplied from a previous computation.

  ==> Iterations <==

                           Total Energy        Delta E     RMS |[F,P]|

   @DF-RKS iter   0:  -381.42337445647206   -3.81423e+02   2.00169e-03 
   @DF-RKS iter   1:  -381.46044572884921   -3.70713e-02   2.92078e-04 
   @DF-RKS iter   2:  -381.46026085900792    1.84870e-04   3.94843e-04 DIIS
   @DF-RKS iter   3:  -381.46074645097355   -4.85592e-04   9.24280e-05 DIIS
   @DF-RKS iter   4:  -381.46076936493370   -2.29140e-05   3.53083e-05 DIIS
   @DF-RKS iter   5:  -381.46077276290839   -3.39797e-06   1.02411e-05 DIIS
   @DF-RKS iter   6:  -381.46077305169342   -2.88785e-07   4.29908e-06 DIIS
   @DF-RKS iter   7:  -381.46077309930217   -4.76088e-08   9.64554e-07 DIIS
   @DF-RKS iter   8:  -381.46077310192771   -2.62554e-09   2.82704e-07 DIIS
   @DF-RKS iter   9:  -381.46077310214071   -2.12992e-10   7.05701e-08 DIIS
   @DF-RKS iter  10:  -381.46077310215276   -1.20508e-11   3.29210e-08 DIIS
   @DF-RKS iter  11:  -381.46077310215526   -2.50111e-12   1.09980e-08 DIIS
   @DF-RKS iter  12:  -381.46077310215668   -1.42109e-12   3.37600e-09 DIIS

  ==> Post-Iterations <==

    Orbital Energies [Eh]
    ---------------------

    Doubly Occupied:                                                      

       1A    -14.571652     2A    -14.564951     3A    -10.500899  
       4A    -10.375463     5A    -10.357618     6A    -10.356985  
       7A    -10.342362     8A    -10.340852     9A    -10.340640  
      10A     -1.180809    11A     -1.087813    12A     -1.014458  
      13A     -0.926387    14A     -0.902768    15A     -0.844851  
      16A     -0.782813    17A     -0.773750    18A     -0.738710  
      19A     -0.733448    20A     -0.685753    21A     -0.670223  
      22A     -0.629706    23A     -0.612438    24A     -0.590450  
      25A     -0.577747    26A     -0.574149    27A     -0.516294  
      28A     -0.507486    29A     -0.498873    30A     -0.468799  
      31A     -0.409523    32A     -0.405692  

    Virtual:                                                              

      33A     -0.221951    34A     -0.157078    35A     -0.137367  
      36A     -0.112096    37A     -0.075476    38A     -0.062228  
      39A     -0.038713    40A     -0.034816    41A      0.007264  
      42A      0.021300    43A      0.025384    44A      0.062225  
      45A      0.063978    46A      0.082116    47A      0.121274  
      48A      0.143850    49A      0.156546    50A      0.167043  
      51A      0.205588    52A      0.237256    53A      0.299083  
      54A      0.350789    55A      0.353464    56A      0.378922  
      57A      0.388859    58A      0.397791    59A      0.419472  
      60A      0.421623    61A      0.440591    62A      0.450847  
      63A      0.455693    64A      0.469361    65A      0.471210  
      66A      0.474196    67A      0.486179    68A      0.499857  
      69A      0.511109    70A      0.545404    71A      0.547168  
      72A      0.588191    73A      0.608944    74A      0.650639  
      75A      0.655439    76A      0.675927    77A      0.690170  
      78A      0.704555    79A      0.713468    80A      0.721918  
      81A      0.760532    82A      0.767209    83A      0.775283  
      84A      0.802626    85A      0.817890    86A      0.841717  
      87A      0.848892    88A      0.927794    89A      0.961267  
      90A      0.985219    91A      0.994520    92A      1.022561  
      93A      1.034553    94A      1.073891    95A      1.137115  
      96A      1.162393    97A      1.250785    98A      1.272414  
      99A      1.279248   100A      1.311445   101A      1.313389  
     102A      1.341033   103A      1.346611   104A      1.361713  
     105A      1.411720   106A      1.452570   107A      1.529462  
     108A      1.595186   109A      1.619090   110A      1.652271  
     111A      1.683035   112A      1.736479   113A      1.748912  
     114A      1.798189   115A      1.822602   116A      1.831364  
     117A      1.891953   118A      1.920580   119A      1.945044  
     120A      1.978377   121A      1.993060   122A      2.010274  
     123A      2.020941   124A      2.064062   125A      2.111599  
     126A      2.124696   127A      2.151396   128A      2.192265  
     129A      2.207798   130A      2.288906   131A      2.319370  
     132A      2.373472   133A      2.444067   134A      2.451479  
     135A      2.487166   136A      2.519065   137A      2.541253  
     138A      2.589162   139A      2.604733   140A      2.626184  
     141A      2.733764   142A      2.864732   143A      2.979928  
     144A      3.256813   145A      3.627285   146A      3.653220  
     147A      3.912840   148A      3.947943   149A      3.962550  
     150A      4.049728   151A      4.172462   152A      4.253945  
     153A      4.544158  

    Final Occupation by Irrep:
              A 
    DOCC [    32 ]

  Energy converged.

  @DF-RKS Final Energy:  -381.46077310215668

   => Energetics <=

    Nuclear Repulsion Energy =            416.1617304591677566
    One-Electron Energy =               -1327.5409131237963720
    Two-Electron Energy =                 574.3182598486205279
    DFT Exchange-Correlation Energy =     -44.3880441661485463
    Empirical Dispersion Energy =          -0.0118061200000000
    VV10 Nonlocal Energy =                  0.0000000000000000
    Total Energy =                       -381.4607731021566792



Properties will be evaluated at   0.000000,   0.000000,   0.000000 [a0]

Properties computed using the SCF density matrix

  Nuclear Dipole Moment: [e a0]
     X:     1.9930      Y:    -1.2976      Z:    -0.5856

  Electronic Dipole Moment: [e a0]
     X:    -2.0352      Y:     1.3743      Z:    -1.6634

  Dipole Moment: [e a0]
     X:    -0.0422      Y:     0.0766      Z:    -2.2490     Total:     2.2507

  Dipole Moment: [D]
     X:    -0.1072      Y:     0.1948      Z:    -5.7164     Total:     5.7207


*** tstop() called on rosa.prib.upf.edu at Sat Sep 29 20:38:06 2018
Module time:
	user time   =      87.75 seconds =       1.46 minutes
	system time =       1.15 seconds =       0.02 minutes
	total time  =         25 seconds =       0.42 minutes
Total time:
	user time   =     221.01 seconds =       3.68 minutes
	system time =       3.57 seconds =       0.06 minutes
	total time  =         62 seconds =       1.03 minutes

*** tstart() called on rosa.prib.upf.edu
*** at Sat Sep 29 20:38:06 2018


         ------------------------------------------------------------
                                   SCF GRAD                          
                          Rob Parrish, Justin Turney,                
                       Andy Simmonett, and Alex Sokolov              
         ------------------------------------------------------------

  ==> Geometry <==

    Molecular point group: c1
    Full point group: C1

    Geometry (in Angstrom), charge = 1, multiplicity = 1:

       Center              X                  Y                   Z               Mass       
    ------------   -----------------  -----------------  -----------------  -----------------
         C            0.042524981561    -0.039639673781    -0.181760803426    12.000000000000
         C            0.076481443568     1.188947236592     0.503586670315    12.000000000000
         C            0.039358263121     1.204735058229     1.895489450001    12.000000000000
         C           -0.007837135136     0.004479764758     2.609497727230    12.000000000000
         C           -0.028468452090    -1.219311453325     1.932844998014    12.000000000000
         C           -0.010387855383    -1.246597747394     0.542669001613    12.000000000000
         C            0.055503260918    -0.041676702188    -1.652654080652    12.000000000000
         H            0.072981292839     2.126625565919    -0.045283253168     1.007825032070
         H            0.040714721236     2.153676632098     2.422208968075     1.007825032070
         H           -0.029772298972     0.021753111508     3.695073723225     1.007825032070
         H           -0.053676953671    -2.150582182706     2.489767561959     1.007825032070
         H            0.007701986808    -2.206262799621     0.032665022758     1.007825032070
         N           -0.684549083124    -0.914194094271    -2.354184831733    14.003074004780
         N            0.702246064014     0.930887303972    -2.291654684799    14.003074004780
         H            0.666333743664     1.041886655477    -3.298700823298     1.007825032070
         H            1.274229036316     1.597600330128    -1.773027171726     1.007825032070
         H           -1.049893047911    -0.690354541056    -3.272667608686     1.007825032070
         H           -1.000877967759    -1.803493464338    -1.937098865701     1.007825032070

  Nuclear repulsion =  416.161730459167757

  ==> Basis Set <==

  Basis Set: 6-31G*
    Blend: 6-31G*
    Number of shells: 72
    Number of basis function: 153
    Number of Cartesian functions: 153
    Spherical Harmonics?: false
    Max angular momentum: 2

  ==> DFJKGrad: Density-Fitted SCF Gradients <==

    Gradient:                    1
    J tasked:                  Yes
    K tasked:                  Yes
    wK tasked:                  No
    OpenMP threads:              4
    Integrals threads:           4
    Memory (MB):              2002
    Schwarz Cutoff:          0E+00
    Fitting Condition:       1E-12

   => Auxiliary Basis Set <=

  Basis Set: (6-31G* AUX)
    Blend: CC-PVDZ-JKFIT
    Number of shells: 297
    Number of basis function: 954
    Number of Cartesian functions: 954
    Spherical Harmonics?: false
    Max angular momentum: 3

  ==> DFT Potential <==

   => Composite Functional: B3LYP-D3ZERO <= 

    B3LYP-d3zero Hyb-GGA Exchange-Correlation Functional

    P. J. Stephens, F. J. Devlin, C. F. Chabalowski, and M. J. Frisch, J. Phys. Chem. 98, 11623 (1994)

    Deriv               =              1
    GGA                 =           TRUE
    Meta                =          FALSE

    Exchange Hybrid     =           TRUE
    MP2 Hybrid          =          FALSE

   => Exchange Functionals <=

    0.0800   Slater exchange
    0.7200         Becke 88

   => Exact (HF) Exchange <=

    0.2000               HF 

   => Correlation Functionals <=

    0.1900   Vosko, Wilk & Nusair (VWN5_RPA)
    0.8100   Lee, Yang & Parr

   => Molecular Quadrature <=

    Radial Scheme       =       TREUTLER
    Pruning Scheme      =           FLAT
    Nuclear Scheme      =       TREUTLER

    BS radius alpha     =              1
    Pruning alpha       =              1
    Radial Points       =             75
    Spherical Points    =            302
    Total Points        =         396868
    Total Blocks        =           2981
    Max Points          =            256
    Max Functions       =            149


  -Total Gradient:
     Atom            X                  Y                   Z
    ------   -----------------  -----------------  -----------------
       1       -0.007872058107     0.008628211124    -0.001166362911
       2       -0.000067680192     0.000374484670    -0.000272227577
       3        0.000044171737     0.000094963136     0.000227344853
       4       -0.000059941175    -0.000114327999    -0.000142335723
       5        0.000286074773    -0.000105184976    -0.000142174994
       6        0.000209241282    -0.001185089455     0.001012329139
       7        0.010224698813    -0.006827602357     0.003078616420
       8        0.000426157330    -0.000250588907    -0.001287824768
       9        0.000027877695     0.000029005090     0.000192258189
      10       -0.000004926911    -0.000036164694     0.000263046868
      11       -0.000039347596    -0.000126580310     0.000170078915
      12       -0.000075261654    -0.000042401676     0.000339623869
      13       -0.000752726706     0.011744075235    -0.009317020243
      14        0.000622916863    -0.002878722669    -0.002759257935
      15       -0.000989954435     0.000798282784    -0.000107524043
      16        0.004615517605     0.005026750444     0.003807584661
      17       -0.007288762674     0.004154732328     0.003119046252
      18        0.000701093251    -0.019276066952     0.002981154760


*** tstop() called on rosa.prib.upf.edu at Sat Sep 29 20:38:13 2018
Module time:
	user time   =      28.57 seconds =       0.48 minutes
	system time =       0.63 seconds =       0.01 minutes
	total time  =          7 seconds =       0.12 minutes
Total time:
	user time   =     249.65 seconds =       4.16 minutes
	system time =       4.22 seconds =       0.07 minutes
	total time  =         69 seconds =       1.15 minutes

			-----------------------------------------
			 OPTKING 2.0: for geometry optimizations 
			  - R.A. King,  Bethel University        
			-----------------------------------------
	At level 1: Red. Int., RFO, no backsteps, dynamic trust

	Previous internal coordinate definitions found.
	---Fragment 1 Geometry and Gradient---
	 C           0.0803605690       -0.0749081274       -0.3434781402
	 C           0.1445289826        2.2467846636        0.9516408911
	 C           0.0743763384        2.2766193227        3.5819559483
	 C          -0.0148100391        0.0084655285        4.9312360489
	 C          -0.0537975779       -2.3041647175        3.6525477036
	 C          -0.0196302018       -2.3557283404        1.0254957939
	 C           0.1048859626       -0.0787575533       -3.1230636048
	 H           0.1379146563        4.0187399068       -0.0855729469
	 H           0.0769396727        4.0698590135        4.5773115863
	 H          -0.0562614914        0.0411074233        6.9826773777
	 H          -0.1014347421       -4.0640113516        4.7049788266
	 H           0.0145546457       -4.1692324685        0.0617279471
	 N          -1.2936102916       -1.7275764705       -4.4487645982
	 N           1.3270527389        1.7591220651       -4.3305997454
	 H           1.2591882886        1.9688804404       -6.2336411504
	 H           2.4079439092        3.0190270937       -3.3505357807
	 H          -1.9840103294       -1.3045810172       -6.1844455044
	 H          -1.8913852515       -3.4081087300       -3.6605863485
	            -0.0078720581        0.0086282111       -0.0011663629
	            -0.0000676802        0.0003744847       -0.0002722276
	             0.0000441717        0.0000949631        0.0002273449
	            -0.0000599412       -0.0001143280       -0.0001423357
	             0.0002860748       -0.0001051850       -0.0001421750
	             0.0002092413       -0.0011850895        0.0010123291
	             0.0102246988       -0.0068276024        0.0030786164
	             0.0004261573       -0.0002505889       -0.0012878248
	             0.0000278777        0.0000290051        0.0001922582
	            -0.0000049269       -0.0000361647        0.0002630469
	            -0.0000393476       -0.0001265803        0.0001700789
	            -0.0000752617       -0.0000424017        0.0003396239
	            -0.0007527267        0.0117440752       -0.0093170202
	             0.0006229169       -0.0028787227       -0.0027592579
	            -0.0009899544        0.0007982828       -0.0001075240
	             0.0046155176        0.0050267504        0.0038075847
	            -0.0072887627        0.0041547323        0.0031190463
	             0.0007010933       -0.0192760670        0.0029811548

	---Fragment 1 Intrafragment Coordinates---
	 - Coordinate -           - BOHR/RAD -       - ANG/DEG -
	 R(1,2)           =         2.659268	       1.407224
	 R(1,6)           =         2.661997	       1.408668
	 R(1,7)           =         2.779696	       1.470952
	 R(2,3)           =         2.631420	       1.392487
	 R(2,8)           =         2.053213	       1.086513
	 R(3,4)           =         2.640650	       1.397372
	 R(3,9)           =         2.050963	       1.085323
	 R(4,5)           =         2.642881	       1.398553
	 R(4,10)          =         2.052120	       1.085935
	 R(5,6)           =         2.627780	       1.390561
	 R(5,11)          =         2.051083	       1.085386
	 R(6,12)          =         2.053975	       1.086917
	 R(7,13)          =         2.536115	       1.342054
	 R(7,14)          =         2.515877	       1.331345
	 R(13,17)         =         1.915246	       1.013504
	 R(13,18)         =         1.950064	       1.031929
	 R(14,15)         =         1.915769	       1.013781
	 R(14,16)         =         1.927748	       1.020120
	 B(1,2,3)         =         2.089865	     119.740443
	 B(1,2,8)         =         2.102912	     120.487999
	 B(1,6,5)         =         2.091855	     119.854485
	 B(1,6,12)        =         2.111299	     120.968516
	 B(1,7,13)        =         2.116177	     121.247989
	 B(1,7,14)        =         2.075127	     118.896022
	 B(2,1,6)         =         2.092653	     119.900175
	 B(2,1,7)         =         2.080590	     119.209049
	 B(2,3,4)         =         2.096605	     120.126615
	 B(2,3,9)         =         2.088617	     119.668930
	 B(3,2,8)         =         2.088727	     119.675267
	 B(3,4,5)         =         2.100048	     120.323860
	 B(3,4,10)        =         2.091875	     119.855600
	 B(4,3,9)         =         2.097942	     120.203249
	 B(4,5,6)         =         2.095167	     120.044217
	 B(4,5,11)        =         2.097725	     120.190774
	 B(5,4,10)        =         2.091262	     119.820501
	 B(5,6,12)        =         2.079027	     119.119474
	 B(6,1,7)         =         2.109927	     120.889908
	 B(6,5,11)        =         2.090282	     119.764324
	 B(7,13,17)       =         2.128114	     121.931941
	 B(7,13,18)       =         2.115349	     121.200593
	 B(7,14,15)       =         2.140703	     122.653239
	 B(7,14,16)       =         2.101106	     120.384505
	 B(13,7,14)       =         2.085085	     119.466576
	 B(15,14,16)      =         2.041288	     116.957167
	 B(17,13,18)      =         2.033218	     116.494811
	 D(1,2,3,4)       =         0.019461	       1.115053
	 D(1,2,3,9)       =        -3.115174	    -178.486345
	 D(1,6,5,4)       =         0.011291	       0.646934
	 D(1,6,5,11)      =        -3.125057	    -179.052584
	*D(1,7,13,17)     =         2.617994	     149.999979
	 D(1,7,13,18)     =        -0.396979	     -22.745207
	 D(1,7,14,15)     =        -3.025075	    -173.324058
	 D(1,7,14,16)     =         0.131282	       7.521905
	 D(2,1,6,5)       =        -0.000332	      -0.019039
	 D(2,1,6,12)      =        -3.093359	    -177.236403
	 D(2,1,7,13)      =        -2.466091	    -141.296593
	 D(2,1,7,14)      =         0.549797	      31.501030
	 D(2,3,4,5)       =        -0.008564	      -0.490689
	 D(2,3,4,10)      =         3.134268	     179.580346
	 D(3,2,1,6)       =        -0.015051	      -0.862340
	 D(3,2,1,7)       =         3.120683	     178.801980
	 D(3,4,5,6)       =        -0.006950	      -0.398185
	 D(3,4,5,11)      =         3.129376	     179.300041
	 D(4,3,2,8)       =         3.099097	     177.565162
	 D(4,5,6,12)      =         3.105217	     177.915800
	 D(5,4,3,9)       =         3.126034	     179.108563
	 D(5,6,1,7)       =        -3.135966	    -179.677613
	 D(6,1,2,8)       =        -3.094174	    -177.283123
	 D(6,1,7,13)      =         0.669583	      38.364308
	 D(6,1,7,14)      =        -2.597714	    -148.838069
	 D(6,5,4,10)      =         3.133404	     179.530805
	 D(7,1,2,8)       =         0.041560	       2.381197
	 D(7,1,6,12)      =         0.054193	       3.105023
	 D(8,2,3,9)       =        -0.035539	      -2.036235
	 D(9,3,4,10)      =        -0.014319	      -0.820403
	 D(10,4,5,11)     =        -0.013456	      -0.770969
	 D(11,5,6,12)     =        -0.031132	      -1.783718
	 D(13,7,14,15)    =        -0.006908	      -0.395781
	 D(13,7,14,16)    =        -3.133735	    -179.549818
	 D(14,7,13,17)    =        -0.397189	     -22.757264
	 D(14,7,13,18)    =         2.871024	     164.497550

	Current energy   :      -381.4607731022

	Energy change for the previous step:
		Projected    :        -0.0105388800
		Actual       :        -0.0063177451

	Performing BFGS update.
	Previous computed or guess Hessian on step 1.
	Steps to be used in Hessian update: 1
	Taking RFO optimization step.
	Going to follow RFO solution 1.
	Using RFO vector 1.

	Determining step-restricting scale parameter for RS-RFO.
	Maximum step size allowed    0.50000

	 Iter      |step|        alpha        rfo_root  
	------------------------------------------------
	    0     0.50282       1.00000           1
	    1     0.50003       1.02271           1
	    2     0.50000       1.02292           1
	------------------------------------------------
	Norm of target step-size    0.50000
	Projected energy change by RFO approximation:        -0.0074750708

	Back-transformation to cartesian coordinates...
	Could not converge backtransformation.
	Using first guess instead.

	Back-transformation to cartesian coordinates to adjust frozen coordinates...
	Successfully converged to displaced geometry.

	--- Internal Coordinate Step in ANG or DEG, aJ/ANG or AJ/DEG ---
	 ---------------------------------------------------------------------------
	   Coordinate                Previous        Force       Change         New 
	   ----------                --------       ------       ------       ------
	    1 R(1,2)          =      1.407224     0.005610     0.001382     1.408606
	    2 R(1,6)          =      1.408668    -0.013987    -0.001808     1.406860
	    3 R(1,7)          =      1.470952     0.006023     0.002625     1.473577
	    4 R(2,3)          =      1.392487    -0.004220     0.000019     1.392507
	    5 R(2,8)          =      1.086513    -0.003564    -0.000179     1.086335
	    6 R(3,4)          =      1.397372    -0.003659    -0.000661     1.396711
	    7 R(3,9)          =      1.085323    -0.000977     0.000334     1.085657
	    8 R(4,5)          =      1.398553    -0.002299     0.000140     1.398692
	    9 R(4,10)         =      1.085935    -0.002164    -0.000174     1.085761
	   10 R(5,6)          =      1.390561    -0.000410    -0.000131     1.390430
	   11 R(5,11)         =      1.085386    -0.001624    -0.000097     1.085290
	   12 R(6,12)         =      1.086917     0.001014     0.000710     1.087627
	   13 R(7,13)         =      1.342054    -0.065309    -0.003664     1.338390
	   14 R(7,14)         =      1.331345    -0.030993    -0.002394     1.328951
	   15 R(13,17)        =      1.013504    -0.005916     0.000109     1.013613
	   16 R(13,18)        =      1.031929    -0.145026     0.030978     1.062907
	   17 R(14,15)        =      1.013781    -0.001889     0.001871     1.015652
	   18 R(14,16)        =      1.020120    -0.064327    -0.005491     1.014630
	   19 B(1,2,3)        =    119.740443    -0.000001     0.032586   119.773029
	   20 B(1,2,8)        =    120.487999     0.000097     0.510930   120.998929
	   21 B(1,6,5)        =    119.854485     0.000032     0.165056   120.019541
	   22 B(1,6,12)       =    120.968516    -0.000041    -0.042056   120.926460
	   23 B(1,7,13)       =    121.247989    -0.000206    -0.168051   121.079937
	   24 B(1,7,14)       =    118.896022     0.000429     1.243613   120.139634
	   25 B(2,1,6)        =    119.900175    -0.000022    -0.164522   119.735653
	   26 B(2,1,7)        =    119.209049     0.000241     0.579604   119.788654
	   27 B(2,3,4)        =    120.126615     0.000011     0.066351   120.192967
	   28 B(2,3,9)        =    119.668930    -0.000017    -0.105263   119.563666
	   29 B(3,2,8)        =    119.675267    -0.000097    -0.582320   119.092947
	   30 B(3,4,5)        =    120.323860    -0.000019    -0.095875   120.227985
	   31 B(3,4,10)       =    119.855600     0.000007     0.025437   119.881037
	   32 B(4,3,9)        =    120.203249     0.000006     0.037563   120.240812
	   33 B(4,5,6)        =    120.044217    -0.000000    -0.003200   120.041017
	   34 B(4,5,11)       =    120.190774     0.000006     0.033762   120.224536
	   35 B(5,4,10)       =    119.820501     0.000013     0.069723   119.890225
	   36 B(5,6,12)       =    119.119474     0.000010    -0.120637   118.998837
	   37 B(6,1,7)        =    120.889908    -0.000219    -0.430465   120.459443
	   38 B(6,5,11)       =    119.764324    -0.000006    -0.030715   119.733609
	   39 B(7,13,17)      =    121.931941     0.000144     0.895787   122.827728
	   40 B(7,13,18)      =    121.200593    -0.000229    -3.911023   117.289570
	   41 B(7,14,15)      =    122.653239     0.000004    -0.092884   122.560355
	   42 B(7,14,16)      =    120.384505    -0.000014     0.088078   120.472583
	   43 B(13,7,14)      =    119.466576    -0.000215    -0.900365   118.566211
	   44 B(15,14,16)     =    116.957167     0.000009    -0.025624   116.931544
	   45 B(17,13,18)     =    116.494811     0.000026    -1.770783   114.724028
	   46 D(1,2,3,4)      =      1.115053    -0.000001    -0.014543     1.100510
	   47 D(1,2,3,9)      =   -178.486345     0.000001     0.166852  -178.319493
	   48 D(1,6,5,4)      =      0.646934    -0.000000     0.046916     0.693850
	   49 D(1,6,5,11)     =   -179.052584     0.000001     0.078572  -178.974012
	   50 *D(1,7,13,17)   =    149.999979    -0.000000    -0.000000   149.999979
	   51 D(1,7,13,18)    =    -22.745207     0.000132    19.504879    -3.240328
	   52 D(1,7,14,15)    =   -173.324058    -0.000024    -3.922421  -177.246480
	   53 D(1,7,14,16)    =      7.521905    -0.000010    -2.533387     4.988519
	   54 D(2,1,6,5)      =     -0.019039    -0.000001    -0.273564    -0.292603
	   55 D(2,1,6,12)     =   -177.236403    -0.000002    -0.328041  -177.564444
	   56 D(2,1,7,13)     =   -141.296593     0.000001     0.634746  -140.661847
	   57 D(2,1,7,14)     =     31.501030     0.000013     2.442690    33.943720
	   58 D(2,3,4,5)      =     -0.490689    -0.000001    -0.212929    -0.703617
	   59 D(2,3,4,10)     =    179.580346     0.000000     0.032012   179.612358
	   60 D(3,2,1,6)      =     -0.862340     0.000002     0.257803    -0.604537
	   61 D(3,2,1,7)      =    178.801980    -0.000004    -0.865934   177.936046
	   62 D(3,4,5,6)      =     -0.398185     0.000001     0.197681    -0.200504
	   63 D(3,4,5,11)     =    179.300041     0.000001     0.165671   179.465712
	   64 D(4,3,2,8)      =    177.565162    -0.000004    -0.646792   176.918370
	   65 D(4,5,6,12)     =    177.915800    -0.000000     0.102338   178.018138
	   66 D(5,4,3,9)      =    179.108563    -0.000002    -0.396132   178.712430
	   67 D(5,6,1,7)      =   -179.677613     0.000005     0.854377  -178.823236
	   68 D(6,1,2,8)      =   -177.283123     0.000007     0.942135  -176.340988
	   69 D(6,1,7,13)     =     38.364308    -0.000006    -0.496300    37.868008
	   70 D(6,1,7,14)     =   -148.838069     0.000007     1.311644  -147.526425
	   71 D(6,5,4,10)     =    179.530805     0.000000    -0.047314   179.483491
	   72 D(7,1,2,8)      =      2.381197     0.000000    -0.181603     2.199595
	   73 D(7,1,6,12)     =      3.105023     0.000004     0.799900     3.904923
	   74 D(8,2,3,9)      =     -2.036235    -0.000003    -0.465397    -2.501633
	   75 D(9,3,4,10)     =     -0.820403    -0.000001    -0.151191    -0.971594
	   76 D(10,4,5,11)    =     -0.770969    -0.000001    -0.079324    -0.850293
	   77 D(11,5,6,12)    =     -1.783718     0.000001     0.133994    -1.649724
	   78 D(13,7,14,15)   =     -0.395781    -0.000011    -2.110744    -2.506526
	   79 D(13,7,14,16)   =   -179.549818     0.000003    -0.721710  -180.271528
	   80 D(14,7,13,17)   =    -22.757264    -0.000023    -1.931241   -24.688505
	   81 D(14,7,13,18)   =    164.497550     0.000109    17.573638   182.071187
	 ---------------------------------------------------------------------------
	Successfully symmetrized geometry.

  ==> Convergence Check <==

  Measures of convergence in internal coordinates in au.
  Criteria marked as inactive (o), active & met (*), and active & unmet ( ).
  ---------------------------------------------------------------------------------------------
   Step     Total Energy     Delta E     MAX Force     RMS Force      MAX Disp      RMS Disp   
  ---------------------------------------------------------------------------------------------
    Convergence Criteria    1.00e-06 *    3.00e-04 *             o    1.20e-03 *             o
  ---------------------------------------------------------------------------------------------
      2    -381.46077310   -6.32e-03      1.76e-02      2.80e-03 o    3.40e-01      5.37e-02 o  ~
  ---------------------------------------------------------------------------------------------

	Writing optimization data to binary file.
	Structure for next step:
	Cartesian Geometry (in Angstrom)
	    C     0.0668743369  -0.0313655110  -0.1848871413
	    C     0.0651988008   1.1924767701   0.5125205940
	    C     0.0119843862   1.1953259215   1.9040072050
	    C    -0.0164274779  -0.0104615444   2.6083296680
	    C    -0.0064563869  -1.2282151146   1.9203491316
	    C     0.0276326563  -1.2421789364   0.5304073711
	    C     0.0771276654  -0.0342518191  -1.6584253521
	    H     0.0356215401   2.1393570593  -0.0191426568
	    H    -0.0168103950   2.1406953619   2.4370155540
	    H    -0.0515460513  -0.0023476560   3.6934919845
	    H    -0.0197925735  -2.1651631241   2.4678930627
	    H     0.0677970369  -2.1983001465   0.0135399837
	    N    -0.6469712259  -0.9202513178  -2.3526680509
	    N     0.7259779695   0.9161971620  -2.3230677114
	    H     0.7233027330   0.9731979537  -3.3371156363
	    H     1.2801168665   1.6052877374  -1.8255163011
	    H    -1.0263834003  -0.7205540281  -3.2711338504
	    H    -1.1846344808  -1.6509697676  -1.7988268542
			--------------------------
			 OPTKING Finished Execution 
			--------------------------

    Structure for next step:
    Molecular point group: c1
    Full point group: C1

    Geometry (in Angstrom), charge = 1, multiplicity = 1:

    C            0.066874336918    -0.031365511008    -0.184887141299
    C            0.065198800841     1.192476770109     0.512520594006
    C            0.011984386225     1.195325921452     1.904007204951
    C           -0.016427477909    -0.010461544380     2.608329667968
    C           -0.006456386918    -1.228215114647     1.920349131587
    C            0.027632656316    -1.242178936422     0.530407371084
    C            0.077127665400    -0.034251819103    -1.658425352115
    H            0.035621540070     2.139357059255    -0.019142656846
    H           -0.016810394993     2.140695361872     2.437015554006
    H           -0.051546051292    -0.002347655984     3.693491984539
    H           -0.019792573514    -2.165163124114     2.467893062746
    H            0.067797036876    -2.198300146524     0.013539983726
    N           -0.646971225879    -0.920251317845    -2.352668050861
    N            0.725977969515     0.916197161996    -2.323067711411
    H            0.723302733002     0.973197953670    -3.337115636306
    H            1.280116866510     1.605287737370    -1.825516301135
    H           -1.026383400322    -0.720554028058    -3.271133850409
    H           -1.184634480845    -1.650969767637    -1.798826854231

gradient() will perform analytic gradient computation.

*** tstart() called on rosa.prib.upf.edu
*** at Sat Sep 29 20:38:14 2018

   => Loading Basis Set <=

    Name: 6-31G*
    Role: ORBITAL
    Keyword: BASIS
[...]
	             0.0000006677       -0.0000015819        0.0000006144
	             0.0000017845        0.0000026910       -0.0000002570
	            -0.0000038356       -0.0000014163       -0.0000015579
	            -0.0000036054        0.0000055214       -0.0000014586
	             0.0082380933       -0.0019608991       -0.0055820538
	            -0.0000135129       -0.0000546452        0.0000025692
	            -0.0000196641        0.0000180192        0.0000007585
	             0.0000041305       -0.0000051671        0.0000033513
	            -0.0080376883        0.0029490523        0.0039980897
	            -0.0000072296        0.0000157829        0.0000057073

	---Fragment 1 Intrafragment Coordinates---
	 - Coordinate -           - BOHR/RAD -       - ANG/DEG -
	 R(1,2)           =         2.659398	       1.407293
	 R(1,6)           =         2.660390	       1.407818
	 R(1,7)           =         2.774618	       1.468265
	 R(2,3)           =         2.630081	       1.391779
	 R(2,8)           =         2.052744	       1.086266
	 R(3,4)           =         2.641303	       1.397717
	 R(3,9)           =         2.050652	       1.085159
	 R(4,5)           =         2.642514	       1.398358
	 R(4,10)          =         2.051473	       1.085593
	 R(5,6)           =         2.628630	       1.391011
	 R(5,11)          =         2.050594	       1.085127
	 R(6,12)          =         2.053701	       1.086772
	 R(7,13)          =         2.533224	       1.340524
	 R(7,14)          =         2.507626	       1.326978
	 R(13,17)         =         1.918035	       1.014981
	 R(13,18)         =         1.915422	       1.013598
	 R(14,15)         =         1.915577	       1.013680
	 R(14,16)         =         1.912031	       1.011803
	 B(1,2,3)         =         2.087817	     119.623080
	 B(1,2,8)         =         2.107727	     120.763889
	 B(1,6,5)         =         2.089572	     119.723628
	 B(1,6,12)        =         2.105203	     120.619273
	 B(1,7,13)        =         2.099031	     120.265645
	 B(1,7,14)        =         2.094817	     120.024193
	 B(2,1,6)         =         2.096087	     120.096946
	 B(2,1,7)         =         2.091202	     119.817024
	 B(2,3,4)         =         2.096933	     120.145416
	 B(2,3,9)         =         2.087826	     119.623643
	 B(3,2,8)         =         2.085959	     119.516672
	 B(3,4,5)         =         2.100495	     120.349517
	 B(3,4,10)        =         2.091235	     119.818941
	 B(4,3,9)         =         2.098389	     120.228835
	 B(4,5,6)         =         2.095358	     120.055180
	 B(4,5,11)        =         2.098488	     120.234502
	 B(5,4,10)        =         2.091455	     119.831538
	 B(5,6,12)        =         2.087117	     119.583013
	 B(6,1,7)         =         2.095853	     120.083550
	 B(6,5,11)        =         2.089293	     119.707660
	 B(7,13,17)       =         2.103211	     120.505103
	 B(7,13,18)       =         2.030271	     116.325940
	 B(7,14,15)       =         2.139491	     122.583781
	 B(7,14,16)       =         2.095405	     120.057841
	 B(13,7,14)       =         2.088217	     119.646042
	 B(15,14,16)      =         2.039344	     116.845812
	 B(17,13,18)      =         1.965556	     112.618040
	 D(1,2,3,4)       =         0.015179	       0.869667
	 D(1,2,3,9)       =        -3.117220	    -178.603561
	 D(1,6,5,4)       =         0.008206	       0.470159
	 D(1,6,5,11)      =        -3.123061	    -178.938191
	*D(1,7,13,17)     =         2.617994	     149.999979
	 D(1,7,13,18)     =         0.137141	       7.857587
	 D(1,7,14,15)     =        -3.096601	    -177.422163
	 D(1,7,14,16)     =         0.192908	      11.052812
	 D(2,1,6,5)       =         0.000838	       0.048009
	 D(2,1,6,12)      =        -3.085901	    -176.809124
	 D(2,1,7,13)      =        -2.508418	    -143.721771
	 D(2,1,7,14)      =         0.582175	      33.356151
	 D(2,3,4,5)       =        -0.006208	      -0.355691
	 D(2,3,4,10)      =         3.135774	     179.666620
	 D(3,2,1,6)       =        -0.012534	      -0.718170
	 D(3,2,1,7)       =         3.119068	     178.709430
	 D(3,4,5,6)       =        -0.005611	      -0.321472
	 D(3,4,5,11)      =         3.125601	     179.083733
	 D(4,3,2,8)       =         3.094965	     177.328425
	 D(4,5,6,12)      =         3.095518	     177.360105
	 D(5,4,3,9)       =         3.126135	     179.114323
	 D(5,6,1,7)       =        -3.130738	    -179.378055
	 D(6,1,2,8)       =        -3.091534	    -177.131825
	 D(6,1,7,13)      =         0.623186	      35.705907
	 D(6,1,7,14)      =        -2.569407	    -147.216171
	 D(6,5,4,10)      =         3.135592	     179.656213
	 D(7,1,2,8)       =         0.040069	       2.295775
	 D(7,1,6,12)      =         0.065708	       3.764812
	 D(8,2,3,9)       =        -0.037434	      -2.144803
	 D(9,3,4,10)      =        -0.015069	      -0.863365
	 D(10,4,5,11)     =        -0.016381	      -0.938582
	 D(11,5,6,12)     =        -0.035749	      -2.048245
	 D(13,7,14,15)    =        -0.005691	      -0.326070
	 D(13,7,14,16)    =        -2.999367	    -171.851095
	 D(14,7,13,17)    =        -0.472792	     -27.088992
	 D(14,7,13,18)    =        -2.953645	    -169.231385

	Current energy   :      -381.4656006148

	Energy change for the previous step:
		Projected    :        -0.0000000132
		Actual       :        -0.0000004441

	Performing BFGS update.
	Previous computed or guess Hessian on step 1.
	Steps to be used in Hessian update: 7 6
	Taking RFO optimization step.
	Going to follow RFO solution 1.
	Rejecting RFO root 1 because normalization gives large value.
	Rejecting RFO root 2 because normalization gives large value.
	Using RFO vector 3.
	Norm of target step-size    0.00213
	Projected energy change by RFO approximation:         0.0000000552

	Back-transformation to cartesian coordinates...
	Successfully converged to displaced geometry.

	Back-transformation to cartesian coordinates to adjust frozen coordinates...
	Successfully converged to displaced geometry.

	--- Internal Coordinate Step in ANG or DEG, aJ/ANG or AJ/DEG ---
	 ---------------------------------------------------------------------------
	   Coordinate                Previous        Force       Change         New 
	   ----------                --------       ------       ------       ------
	    1 R(1,2)          =      1.407293     0.000117     0.000027     1.407320
	    2 R(1,6)          =      1.407818    -0.000082    -0.000005     1.407813
	    3 R(1,7)          =      1.468265    -0.000137    -0.000043     1.468222
	    4 R(2,3)          =      1.391779    -0.000073    -0.000013     1.391766
	    5 R(2,8)          =      1.086266     0.000003    -0.000004     1.086262
	    6 R(3,4)          =      1.397717    -0.000011    -0.000002     1.397715
	    7 R(3,9)          =      1.085159     0.000005     0.000001     1.085159
	    8 R(4,5)          =      1.398358     0.000060     0.000013     1.398371
	    9 R(4,10)         =      1.085593    -0.000006    -0.000001     1.085592
	   10 R(5,6)          =      1.391011    -0.000105    -0.000022     1.390989
	   11 R(5,11)         =      1.085127    -0.000008    -0.000001     1.085126
	   12 R(6,12)         =      1.086772     0.000039     0.000008     1.086780
	   13 R(7,13)         =      1.340524     0.000003    -0.000007     1.340518
	   14 R(7,14)         =      1.326978     0.000387     0.000067     1.327046
	   15 R(13,17)        =      1.014981    -0.000019    -0.000004     1.014977
	   16 R(13,18)        =      1.013598     0.000020     0.000035     1.013633
	   17 R(14,15)        =      1.013680     0.000009     0.000002     1.013682
	   18 R(14,16)        =      1.011803    -0.000019    -0.000001     1.011802
	   19 B(1,2,3)        =    119.623080    -0.000000    -0.000386   119.622694
	   20 B(1,2,8)        =    120.763889     0.000000    -0.000861   120.763027
	   21 B(1,6,5)        =    119.723628     0.000001     0.002072   119.725700
	   22 B(1,6,12)       =    120.619273    -0.000000    -0.000344   120.618929
	   23 B(1,7,13)       =    120.265645     0.000001     0.003533   120.269178
	   24 B(1,7,14)       =    120.024193    -0.000001    -0.002701   120.021491
	   25 B(2,1,6)        =    120.096946    -0.000000    -0.001380   120.095565
	   26 B(2,1,7)        =    119.817024    -0.000000    -0.002043   119.814980
	   27 B(2,3,4)        =    120.145416     0.000000     0.000660   120.146075
	   28 B(2,3,9)        =    119.623643    -0.000000    -0.000831   119.622812
	   29 B(3,2,8)        =    119.516672    -0.000000     0.001842   119.518514
	   30 B(3,4,5)        =    120.349517    -0.000000     0.000020   120.349537
	   31 B(3,4,10)       =    119.818941     0.000000     0.000824   119.819766
	   32 B(4,3,9)        =    120.228835     0.000000     0.000197   120.229032
	   33 B(4,5,6)        =    120.055180    -0.000000    -0.000978   120.054202
	   34 B(4,5,11)       =    120.234502    -0.000000    -0.000710   120.233791
	   35 B(5,4,10)       =    119.831538    -0.000000    -0.000844   119.830694
	   36 B(5,6,12)       =    119.583013    -0.000001    -0.002157   119.580856
	   37 B(6,1,7)        =    120.083550     0.000001     0.003458   120.087008
	   38 B(6,5,11)       =    119.707660     0.000000     0.001653   119.709313
	   39 B(7,13,17)      =    120.505103    -0.000001    -0.006255   120.498847
	   40 B(7,13,18)      =    116.325940     0.000001     0.005974   116.331914
	   41 B(7,14,15)      =    122.583781    -0.000001    -0.007350   122.576431
	   42 B(7,14,16)      =    120.057841     0.000001     0.001495   120.059336
	   43 B(13,7,14)      =    119.646042     0.000000    -0.000874   119.645168
	   44 B(15,14,16)     =    116.845812    -0.000000    -0.004525   116.841287
	   45 B(17,13,18)     =    112.618040    -0.000000    -0.000489   112.617550
	   46 D(1,2,3,4)      =      0.869667    -0.000000    -0.001129     0.868538
	   47 D(1,2,3,9)      =   -178.603561    -0.000000    -0.004291  -178.607852
	   48 D(1,6,5,4)      =      0.470159     0.000000     0.002596     0.472755
	   49 D(1,6,5,11)     =   -178.938191     0.000000     0.006520  -178.931671
	   50 *D(1,7,13,17)   =    149.999979    -0.000000    -0.000000   149.999979
	   51 D(1,7,13,18)    =      7.857587    -0.000000     0.001201     7.858787
	   52 D(1,7,14,15)    =   -177.422163    -0.000000    -0.061583  -177.483745
	   53 D(1,7,14,16)    =     11.052812    -0.000000     0.023650    11.076462
	   54 D(2,1,6,5)      =      0.048009    -0.000000    -0.003513     0.044495
	   55 D(2,1,6,12)     =   -176.809124     0.000000     0.005646  -176.803478
	   56 D(2,1,7,13)     =   -143.721771    -0.000000    -0.037547  -143.759318
	   57 D(2,1,7,14)     =     33.356151    -0.000000    -0.038544    33.317608
	   58 D(2,3,4,5)      =     -0.355691    -0.000000     0.000221    -0.355470
	   59 D(2,3,4,10)     =    179.666620     0.000000    -0.000143   179.666477
	   60 D(3,2,1,6)      =     -0.718170     0.000000     0.002774    -0.715395
	   61 D(3,2,1,7)      =    178.709430     0.000000     0.006741   178.716171
	   62 D(3,4,5,6)      =     -0.321472    -0.000000    -0.000964    -0.322437
	   63 D(3,4,5,11)     =    179.083733    -0.000000    -0.004896   179.078837
	   64 D(4,3,2,8)      =    177.328425     0.000000     0.009781   177.338206
	   65 D(4,5,6,12)     =    177.360105    -0.000000    -0.006412   177.353693
	   66 D(5,4,3,9)      =    179.114323     0.000000     0.003397   179.117721
	   67 D(5,6,1,7)      =   -179.378055    -0.000000    -0.007459  -179.385514
	   68 D(6,1,2,8)      =   -177.131825    -0.000000    -0.008372  -177.140198
	   69 D(6,1,7,13)     =     35.705907    -0.000000    -0.033609    35.672298
	   70 D(6,1,7,14)     =   -147.216171    -0.000000    -0.034605  -147.250776
	   71 D(6,5,4,10)     =    179.656213    -0.000000    -0.000600   179.655614
	   72 D(7,1,2,8)      =      2.295775    -0.000000    -0.004406     2.291369
	   73 D(7,1,6,12)     =      3.764812    -0.000000     0.001700     3.766513
	   74 D(8,2,3,9)      =     -2.144803     0.000000     0.006619    -2.138184
	   75 D(9,3,4,10)     =     -0.863365     0.000000     0.003033    -0.860332
	   76 D(10,4,5,11)    =     -0.938582    -0.000000    -0.004531    -0.943113
	   77 D(11,5,6,12)    =     -2.048245    -0.000000    -0.002488    -2.050733
	   78 D(13,7,14,15)   =     -0.326070    -0.000000    -0.062443    -0.388513
	   79 D(13,7,14,16)   =   -171.851095    -0.000000     0.022790  -171.828306
	   80 D(14,7,13,17)   =    -27.088992    -0.000000     0.001047   -27.087945
	   81 D(14,7,13,18)   =   -169.231385    -0.000000     0.002247  -169.229137
	 ---------------------------------------------------------------------------
	Successfully symmetrized geometry.

  ==> Convergence Check <==

  Measures of convergence in internal coordinates in au.
  Criteria marked as inactive (o), active & met (*), and active & unmet ( ).
  ---------------------------------------------------------------------------------------------
   Step     Total Energy     Delta E     MAX Force     RMS Force      MAX Disp      RMS Disp   
  ---------------------------------------------------------------------------------------------
    Convergence Criteria    1.00e-06 *    3.00e-04 *             o    1.20e-03 *             o
  ---------------------------------------------------------------------------------------------
      8    -381.46560061   -4.44e-07 *    4.69e-05 *    8.64e-06 o    1.09e-03 *    2.37e-04 o  ~
  ---------------------------------------------------------------------------------------------


  **** Optimization is complete! (in 8 steps) ****

  ==> Optimization Summary <==

  Measures of convergence in internal coordinates in au.
  --------------------------------------------------------------------------------------------------------------- ~
   Step         Total Energy             Delta E       MAX Force       RMS Force        MAX Disp        RMS Disp  ~
  --------------------------------------------------------------------------------------------------------------- ~
      1    -381.454455357019   -381.454455357019      0.01284832      0.00292168      0.33144651      0.05475937  ~
      2    -381.460773102157     -0.006317745137      0.01760301      0.00280493      0.34042436      0.05371758  ~
      3    -381.462763792832     -0.001990690675      0.03803293      0.00437868      0.14340990      0.02372530  ~
      4    -381.465203868485     -0.002440075653      0.01212915      0.00145988      0.07723658      0.01478570  ~
      5    -381.465557408945     -0.000353540461      0.00472419      0.00055778      0.01614146      0.00437573  ~
      6    -381.465595621836     -0.000038212890      0.00075804      0.00011603      0.01325406      0.00238782  ~
      7    -381.465600170644     -0.000004548808      0.00015041      0.00003848      0.00278760      0.00068282  ~
      8    -381.465600614773     -0.000000444129      0.00004694      0.00000864      0.00108984      0.00023662  ~
  --------------------------------------------------------------------------------------------------------------- ~

	Writing optimization data to binary file.
	Final energy is   -381.4656006147729
	Final (previous) structure:
	Cartesian Geometry (in Angstrom)
	    C     0.0494750332  -0.0254844304  -0.1869268379
	    C     0.0463455045   1.1971987185   0.5098582892
	    C     0.0065600883   1.1960878794   1.9010679227
	    C    -0.0117215750  -0.0131516338   2.6017951795
	    C     0.0022725436  -1.2296077185   1.9122702053
	    C     0.0277938885  -1.2418501648   0.5215472727
	    C     0.0626911565  -0.0290482507  -1.6551276825
	    H     0.0162082868   2.1418148641  -0.0256461322
	    H    -0.0188344247   2.1389245719   2.4377085294
	    H    -0.0372845607  -0.0078323869   3.6870741131
	    H     0.0030280496  -2.1672806328   2.4584114812
	    H     0.0820531651  -2.1905855155  -0.0057384050
	    N    -0.6187028537  -0.9622898175  -2.3346628611
	    N     0.7028530798   0.9273627134  -2.3156900051
	    H     0.7051569102   0.9842200322  -3.3277711512
	    H     1.3180138427   1.5603630480  -1.8210856802
	    H    -0.9998586557  -0.7558068573  -3.2524158398
	    H    -1.2234374788  -1.5645554193  -1.7878973979
	Saving final (previous) structure.
	Removing binary optimization data file.
			--------------------------
			 OPTKING Finished Execution 
			--------------------------

    Final optimized geometry and variables:
    Molecular point group: c1
    Full point group: C1

    Geometry (in Angstrom), charge = 1, multiplicity = 1:

    C            0.049475033191    -0.025484430406    -0.186926837882
    C            0.046345504468     1.197198718468     0.509858289207
    C            0.006560088263     1.196087879433     1.901067922678
    C           -0.011721574957    -0.013151633831     2.601795179522
    C            0.002272543560    -1.229607718470     1.912270205257
    C            0.027793888549    -1.241850164806     0.521547272661
    C            0.062691156468    -0.029048250654    -1.655127682519
    H            0.016208286774     2.141814864090    -0.025646132179
    H           -0.018834424693     2.138924571867     2.437708529379
    H           -0.037284560719    -0.007832386907     3.687074113057
    H            0.003028049640    -2.167280632842     2.458411481208
    H            0.082053165090    -2.190585515502    -0.005738405017
    N           -0.618702853729    -0.962289817496    -2.334662861097
    N            0.702853079753     0.927362713441    -2.315690005097
    H            0.705156910158     0.984220032162    -3.327771151224
    H            1.318013842679     1.560363047978    -1.821085680218
    H           -0.999858655675    -0.755806857263    -3.252415839837
    H           -1.223437478822    -1.564555419259    -1.787897397898

	Removing binary optimization data file.
	Cleaning optimization helper files.


Properties will be evaluated at   0.000000,   0.000000,   0.000000 [a0]
OEProp: No title given, name of density matrix used for the following properties is 'SCF density'
  Nuclear Dipole Moment: [e a0]
     X:     2.9000      Y:    -1.8526      Z:    -1.0638

  Electronic Dipole Moment: [e a0]
     X:    -3.0294      Y:     2.0627      Z:    -1.1058

  Dipole Moment: [e a0]
     X:    -0.1294      Y:     0.2101      Z:    -2.1696     Total:     2.1836

  Dipole Moment: [D]
     X:    -0.3290      Y:     0.5341      Z:    -5.5146     Total:     5.5502

  Quadrupole Moment: [D A]
    XX:   -48.9728     YY:   -38.4850     ZZ:   -14.3696
    XY:     6.1905     XZ:     1.2446     YZ:    -2.2799

  Traceless Quadrupole Moment: [D A]
    XX:   -15.0304     YY:    -4.5425     ZZ:    19.5729
    XY:     6.1905     XZ:     1.2446     YZ:    -2.2799

  Mulliken Charges: (a.u.)
   Center  Symbol    Alpha    Beta     Spin     Total
       1     C     2.95330  2.95330  0.00000  0.09340
       2     C     3.08316  3.08316  0.00000 -0.16633
       3     C     3.06238  3.06238  0.00000 -0.12477
       4     C     3.05159  3.05159  0.00000 -0.10317
       5     C     3.06225  3.06225  0.00000 -0.12451
       6     C     3.08552  3.08552  0.00000 -0.17103
       7     C     2.73395  2.73395  0.00000  0.53211
       8     H     0.41518  0.41518  0.00000  0.16964
       9     H     0.40521  0.40521  0.00000  0.18958
      10     H     0.40363  0.40363  0.00000  0.19273
      11     H     0.40493  0.40493  0.00000  0.19014
      12     H     0.41159  0.41159  0.00000  0.17682
      13     N     3.85680  3.85680  0.00000 -0.71361
      14     N     3.85841  3.85841  0.00000 -0.71682
      15     H     0.30377  0.30377  0.00000  0.39247
      16     H     0.29874  0.29874  0.00000  0.40252
      17     H     0.30600  0.30600  0.00000  0.38800
      18     H     0.30359  0.30359  0.00000  0.39282

   Total alpha = 32.00000, Total beta = 32.00000, Total charge =  1.00000


    Psi4 stopped on: Saturday, 29 September 2018 08:41PM
    Psi4 wall time for execution: 0:04:00.88

*** Psi4 exiting successfully. Buy a developer a beer!
