
    -----------------------------------------------------------------------
          Psi4: An Open-Source Ab Initio Electronic Structure Package
                               Psi4 1.2.1 release

                         Git: Rev {HEAD} 406f4de 


    R. M. Parrish, L. A. Burns, D. G. A. Smith, A. C. Simmonett,
    A. E. DePrince III, E. G. Hohenstein, U. Bozkaya, A. Yu. Sokolov,
    R. Di Remigio, R. M. Richard, J. F. Gonthier, A. M. James,
    H. R. McAlexander, A. Kumar, M. Saitow, X. Wang, B. P. Pritchard,
    P. Verma, H. F. Schaefer III, K. Patkowski, R. A. King, E. F. Valeev,
    F. A. Evangelista, J. M. Turney, T. D. Crawford, and C. D. Sherrill,
    J. Chem. Theory Comput. 13(7) pp 3185--3197 (2017).
    (doi: 10.1021/acs.jctc.7b00174)


                         Additional Contributions by
    P. Kraus, H. Kruse, M. H. Lechner, M. C. Schieber, and R. A. Shaw

    -----------------------------------------------------------------------


    Psi4 started on: Saturday, 29 September 2018 05:09PM

    Process ID: 13017
    Host:       loro.prib.upf.edu
    PSIDATADIR: /shared/joao/test_parameterize/miniconda3/share/psi4
    Memory:     500.0 MiB
    Threads:    1
    
  ==> Input File <==

--------------------------------------------------------------------------
set_num_threads(1)
set_memory('5348 MB')

set { scf_mem_safety_factor 0.7 }

set { reference rks }
set { basis cc-pVDZ }

molecule MOL {
    0 1
    noreorient
    nocom
    symmetry c1
    O    1.050400   0.042900  -0.048100
    C    2.474100   0.047400  -0.029000
    C    3.002600  -1.068900  -0.932000
    N    4.018518  -0.587218  -1.866555
    H    0.760400   0.728400   0.578000
    H    2.809900  -0.097900   1.003200
    H    2.817400   1.026800  -0.378600
    H    2.172961  -1.520670  -1.488185
    H    3.426034  -1.866670  -0.311256
    H    3.591570   0.067307  -2.521378
    H    4.344665  -1.372411  -2.429894
}

set optking { frozen_dihedral = (" 1 2 3 4 ") }

energy, wfn = energy('B3LYP-D3', return_wfn=True)

import os
os.chdir(os.environ['HTMD_PSI4_WORKDIR'])

oeprop(wfn, 'DIPOLE', 'QUADRUPOLE', 'MULLIKEN_CHARGES')

with open('psi4out.xyz', 'w') as f:
    f.write('11 ' )
    f.write('%.12f\n' % energy)
    f.write(MOL.save_string_xyz())
--------------------------------------------------------------------------
  Threads set to 1 by Python driver.

  Memory set to   4.981 GiB by Python driver.

*** tstart() called on loro.prib.upf.edu
*** at Sat Sep 29 17:09:10 2018

   => Loading Basis Set <=

    Name: CC-PVDZ
    Role: ORBITAL
    Keyword: BASIS
    atoms 1    entry O          line   198 file /shared/joao/test_parameterize/miniconda3/share/psi4/basis/cc-pvdz.gbs 
    atoms 2-3  entry C          line   138 file /shared/joao/test_parameterize/miniconda3/share/psi4/basis/cc-pvdz.gbs 
    atoms 4    entry N          line   168 file /shared/joao/test_parameterize/miniconda3/share/psi4/basis/cc-pvdz.gbs 
    atoms 5-11 entry H          line    22 file /shared/joao/test_parameterize/miniconda3/share/psi4/basis/cc-pvdz.gbs 


         ---------------------------------------------------------
                                   SCF
            by Justin Turney, Rob Parrish, Andy Simmonett
                             and Daniel Smith
                              RKS Reference
                        1 Threads,   5100 MiB Core
         ---------------------------------------------------------

  ==> Geometry <==

    Molecular point group: c1
    Full point group: C1

    Geometry (in Angstrom), charge = 0, multiplicity = 1:

       Center              X                  Y                   Z               Mass       
    ------------   -----------------  -----------------  -----------------  -----------------
         O            1.050400000000     0.042900000000    -0.048100000000    15.994914619560
         C            2.474100000000     0.047400000000    -0.029000000000    12.000000000000
         C            3.002600000000    -1.068900000000    -0.932000000000    12.000000000000
         N            4.018518000000    -0.587218000000    -1.866555000000    14.003074004780
         H            0.760400000000     0.728400000000     0.578000000000     1.007825032070
         H            2.809900000000    -0.097900000000     1.003200000000     1.007825032070
         H            2.817400000000     1.026800000000    -0.378600000000     1.007825032070
         H            2.172961000000    -1.520670000000    -1.488185000000     1.007825032070
         H            3.426034000000    -1.866670000000    -0.311256000000     1.007825032070
         H            3.591570000000     0.067307000000    -2.521378000000     1.007825032070
         H            4.344665000000    -1.372411000000    -2.429894000000     1.007825032070

  Running in c1 symmetry.

  Rotational constants: A =      0.51133  B =      0.02948  C =      0.02891 [cm^-1]
  Rotational constants: A =  15329.19601  B =    883.83748  C =    866.64121 [MHz]
  Nuclear repulsion =  130.931725532101296

  Charge       = 0
  Multiplicity = 1
  Electrons    = 34
  Nalpha       = 17
  Nbeta        = 17

  ==> Algorithm <==

  SCF Algorithm Type is DF.
  DIIS enabled.
  MOM disabled.
  Fractional occupation disabled.
  Guess Type is SAD.
  Energy threshold   = 1.00e-06
  Density threshold  = 1.00e-06
  Integral threshold = 0.00e+00

  ==> Primary Basis <==

  Basis Set: CC-PVDZ
    Blend: CC-PVDZ
    Number of shells: 45
    Number of basis function: 91
    Number of Cartesian functions: 95
    Spherical Harmonics?: true
    Max angular momentum: 2

  ==> DFT Potential <==

   => Composite Functional: B3LYP-D3ZERO <= 

    B3LYP-d3zero Hyb-GGA Exchange-Correlation Functional

    P. J. Stephens, F. J. Devlin, C. F. Chabalowski, and M. J. Frisch, J. Phys. Chem. 98, 11623 (1994)

    Deriv               =              1
    GGA                 =           TRUE
    Meta                =          FALSE

    Exchange Hybrid     =           TRUE
    MP2 Hybrid          =          FALSE

   => Exchange Functionals <=

    0.0800   Slater exchange
    0.7200         Becke 88

   => Exact (HF) Exchange <=

    0.2000               HF 

   => Correlation Functionals <=

    0.1900   Vosko, Wilk & Nusair (VWN5_RPA)
    0.8100   Lee, Yang & Parr

   => Molecular Quadrature <=

    Radial Scheme       =       TREUTLER
    Pruning Scheme      =           FLAT
    Nuclear Scheme      =       TREUTLER

    BS radius alpha     =              1
    Pruning alpha       =              1
    Radial Points       =             75
    Spherical Points    =            302
    Total Points        =         245087
    Total Blocks        =           1911
    Max Points          =            256
    Max Functions       =             91

   => -D3ZERO: Empirical Dispersion <=

    Grimme's -D3 (zero-damping) Dispersion Correction
    Grimme S.; Antony J.; Ehrlich S.; Krieg H. (2010), J. Chem. Phys., 132: 154104

        S6 =   1.000000E+00
        S8 =   1.703000E+00
       SR6 =   1.261000E+00
       SR8 =   1.000000E+00
    ALPHA6 =   1.400000E+01

   => Loading Basis Set <=

    Name: (CC-PVDZ AUX)
    Role: JKFIT
    Keyword: DF_BASIS_SCF
    atoms 1    entry O          line   221 file /shared/joao/test_parameterize/miniconda3/share/psi4/basis/cc-pvdz-jkfit.gbs 
    atoms 2-3  entry C          line   121 file /shared/joao/test_parameterize/miniconda3/share/psi4/basis/cc-pvdz-jkfit.gbs 
    atoms 4    entry N          line   171 file /shared/joao/test_parameterize/miniconda3/share/psi4/basis/cc-pvdz-jkfit.gbs 
    atoms 5-11 entry H          line    51 file /shared/joao/test_parameterize/miniconda3/share/psi4/basis/cc-pvdz-jkfit.gbs 

  ==> Pre-Iterations <==

   -------------------------------------------------------
    Irrep   Nso     Nmo     Nalpha   Nbeta   Ndocc  Nsocc
   -------------------------------------------------------
     A         91      91       0       0       0       0
   -------------------------------------------------------
    Total      91      91      17      17      17       0
   -------------------------------------------------------

  ==> Integral Setup <==

  DFHelper Memory: AOs need 0.036 [GiB]; user supplied 3.486 [GiB]. Using in-core AOs.

  ==> MemDFJK: Density-Fitted J/K Matrices <==

    J tasked:                   Yes
    K tasked:                   Yes
    wK tasked:                   No
    OpenMP threads:               1
    Memory (MB):               3570
    Algorithm:                 Core
    Schwarz Cutoff:           1E-12
    Mask sparsity (%):       0.2898
    Fitting Condition:        1E-12

   => Auxiliary Basis Set <=

  Basis Set: (CC-PVDZ AUX)
    Blend: CC-PVDZ-JKFIT
    Number of shells: 159
    Number of basis function: 441
    Number of Cartesian functions: 499
    Spherical Harmonics?: true
    Max angular momentum: 3

  Minimum eigenvalue in the overlap matrix is 4.5271640317E-03.
  Using Symmetric Orthogonalization.

  SCF Guess: Superposition of Atomic Densities via on-the-fly atomic UHF.

  ==> Iterations <==

                           Total Energy        Delta E     RMS |[F,P]|

   @DF-RKS iter   0:  -210.92621300053426   -2.10926e+02   3.74681e-02 
   @DF-RKS iter   1:  -210.24698737619431    6.79226e-01   6.27973e-03 
   @DF-RKS iter   2:  -210.13604159327437    1.10946e-01   8.67554e-03 DIIS
   @DF-RKS iter   3:  -210.38548446244113   -2.49443e-01   6.24643e-04 DIIS
   @DF-RKS iter   4:  -210.38644877377916   -9.64311e-04   3.38710e-04 DIIS
   @DF-RKS iter   5:  -210.38686045355519   -4.11680e-04   5.22424e-05 DIIS
   @DF-RKS iter   6:  -210.38686918179087   -8.72824e-06   1.86030e-05 DIIS
   @DF-RKS iter   7:  -210.38687040894922   -1.22716e-06   3.84241e-06 DIIS
   @DF-RKS iter   8:  -210.38687046436857   -5.54193e-08   7.06782e-07 DIIS

  ==> Post-Iterations <==

    Orbital Energies [Eh]
    ---------------------

    Doubly Occupied:                                                      

       1A    -19.125842     2A    -14.302288     3A    -10.222609  
       4A    -10.200594     5A     -1.008769     6A     -0.874787  
       7A     -0.712364     8A     -0.596115     9A     -0.508908  
      10A     -0.487019    11A     -0.443262    12A     -0.417437  
      13A     -0.389007    14A     -0.362972    15A     -0.324042  
      16A     -0.259566    17A     -0.228093  

    Virtual:                                                              

      18A      0.053374    19A      0.062387    20A      0.097739  
      21A      0.117047    22A      0.136097    23A      0.143483  
      24A      0.159119    25A      0.209116    26A      0.239318  
      27A      0.276844    28A      0.445467    29A      0.474236  
      30A      0.488610    31A      0.509387    32A      0.526606  
      33A      0.585990    34A      0.613231    35A      0.618927  
      36A      0.646674    37A      0.656584    38A      0.665794  
      39A      0.689748    40A      0.700196    41A      0.776762  
      42A      0.798912    43A      0.839107    44A      0.923507  
      45A      0.935464    46A      0.992199    47A      1.011327  
      48A      1.051407    49A      1.206479    50A      1.219952  
      51A      1.226393    52A      1.287960    53A      1.338910  
      54A      1.376873    55A      1.418419    56A      1.497327  
      57A      1.537527    58A      1.550272    59A      1.596223  
      60A      1.607162    61A      1.631371    62A      1.661160  
      63A      1.702342    64A      1.753515    65A      1.761700  
      66A      1.787696    67A      1.875270    68A      1.904757  
      69A      1.928236    70A      1.968079    71A      1.979003  
      72A      2.009840    73A      2.039405    74A      2.112557  
      75A      2.160231    76A      2.223590    77A      2.228364  
      78A      2.372515    79A      2.397078    80A      2.446356  
      81A      2.476427    82A      2.516431    83A      2.617692  
      84A      2.675851    85A      2.819417    86A      2.969013  
      87A      3.008552    88A      3.022473    89A      3.118153  
      90A      3.192075    91A      3.690414  

    Final Occupation by Irrep:
              A 
    DOCC [    17 ]

  Energy converged.

  @DF-RKS Final Energy:  -210.38687046436857

   => Energetics <=

    Nuclear Repulsion Energy =            130.9317255321012965
    One-Electron Energy =                -544.8252653692429703
    Two-Electron Energy =                 227.0018707116412884
    DFT Exchange-Correlation Energy =     -23.4904720488681598
    Empirical Dispersion Energy =          -0.0047292900000000
    VV10 Nonlocal Energy =                  0.0000000000000000
    Total Energy =                       -210.3868704643685703



Properties will be evaluated at   0.000000,   0.000000,   0.000000 [a0]

Properties computed using the SCF density matrix

  Nuclear Dipole Moment: [e a0]
     X:   168.7827      Y:   -24.4369      Z:   -46.7987

  Electronic Dipole Moment: [e a0]
     X:  -168.8118      Y:    24.5853      Z:    46.8297

  Dipole Moment: [e a0]
     X:    -0.0291      Y:     0.1484      Z:     0.0310     Total:     0.1544

  Dipole Moment: [D]
     X:    -0.0739      Y:     0.3772      Z:     0.0787     Total:     0.3923


*** tstop() called on loro.prib.upf.edu at Sat Sep 29 17:09:27 2018
Module time:
	user time   =      15.08 seconds =       0.25 minutes
	system time =       0.25 seconds =       0.00 minutes
	total time  =         17 seconds =       0.28 minutes
Total time:
	user time   =      15.08 seconds =       0.25 minutes
	system time =       0.25 seconds =       0.00 minutes
	total time  =         17 seconds =       0.28 minutes


Properties will be evaluated at   0.000000,   0.000000,   0.000000 [a0]
OEProp: No title given, name of density matrix used for the following properties is 'SCF density'
  Nuclear Dipole Moment: [e a0]
     X:   168.7827      Y:   -24.4369      Z:   -46.7987

  Electronic Dipole Moment: [e a0]
     X:  -168.8118      Y:    24.5853      Z:    46.8297

  Dipole Moment: [e a0]
     X:    -0.0291      Y:     0.1484      Z:     0.0310     Total:     0.1544

  Dipole Moment: [D]
     X:    -0.0739      Y:     0.3772      Z:     0.0787     Total:     0.3923

  Quadrupole Moment: [D A]
    XX:   -30.1032     YY:   -23.0553     ZZ:   -20.8387
    XY:    -2.3538     XZ:    -1.7117     YZ:     2.1220

  Traceless Quadrupole Moment: [D A]
    XX:    -5.4375     YY:     1.6104     ZZ:     3.8271
    XY:    -2.3538     XZ:    -1.7117     YZ:     2.1220

  Mulliken Charges: (a.u.)
   Center  Symbol    Alpha    Beta     Spin     Total
       1     O     4.14132  4.14132  0.00000 -0.28264
       2     C     2.92806  2.92806  0.00000  0.14388
       3     C     2.98162  2.98162  0.00000  0.03676
       4     N     3.59536  3.59536  0.00000 -0.19072
       5     H     0.43138  0.43138  0.00000  0.13724
       6     H     0.50029  0.50029  0.00000 -0.00058
       7     H     0.50193  0.50193  0.00000 -0.00386
       8     H     0.49719  0.49719  0.00000  0.00562
       9     H     0.49315  0.49315  0.00000  0.01370
      10     H     0.46425  0.46425  0.00000  0.07150
      11     H     0.46545  0.46545  0.00000  0.06910

   Total alpha = 17.00000, Total beta = 17.00000, Total charge =  0.00000


    Psi4 stopped on: Saturday, 29 September 2018 05:09PM
    Psi4 wall time for execution: 0:00:17.34

*** Psi4 exiting successfully. Buy a developer a beer!
