
    -----------------------------------------------------------------------
          Psi4: An Open-Source Ab Initio Electronic Structure Package
                               Psi4 1.2.1 release

                         Git: Rev {HEAD} 406f4de 


    R. M. Parrish, L. A. Burns, D. G. A. Smith, A. C. Simmonett,
    A. E. DePrince III, E. G. Hohenstein, U. Bozkaya, A. Yu. Sokolov,
    R. Di Remigio, R. M. Richard, J. F. Gonthier, A. M. James,
    H. R. McAlexander, A. Kumar, M. Saitow, X. Wang, B. P. Pritchard,
    P. Verma, H. F. Schaefer III, K. Patkowski, R. A. King, E. F. Valeev,
    F. A. Evangelista, J. M. Turney, T. D. Crawford, and C. D. Sherrill,
    J. Chem. Theory Comput. 13(7) pp 3185--3197 (2017).
    (doi: 10.1021/acs.jctc.7b00174)


                         Additional Contributions by
    P. Kraus, H. Kruse, M. H. Lechner, M. C. Schieber, and R. A. Shaw

    -----------------------------------------------------------------------


    Psi4 started on: Saturday, 29 September 2018 08:34PM

    Process ID: 17166
    Host:       green.prib.upf.edu
    PSIDATADIR: /shared/joao/test_parameterize/miniconda3/share/psi4
    Memory:     500.0 MiB
    Threads:    1
    
  ==> Input File <==

--------------------------------------------------------------------------
set_num_threads(4)
set_memory('3000 MB')

set { scf_mem_safety_factor 0.7 }

set { reference rks }
set { basis 6-31G* }

molecule MOL {
    1 1
    noreorient
    nocom
    symmetry c1
    C   -0.000000  -0.000000  -0.177864
    C    0.036678   1.219374   0.524165
    C    0.031765   1.213120   1.915444
    C    0.000000   0.000000   2.610107
    C   -0.031765  -1.213120   1.915444
    C   -0.036678  -1.219375   0.524165
    C   -0.000000   0.000000  -1.644734
    H    0.018170   2.164705  -0.010854
    H    0.042402   2.152895   2.457886
    H    0.000000   0.000000   3.695756
    H   -0.042402  -2.152895   2.457886
    H   -0.018170  -2.164705  -0.010853
    N   -0.712590  -0.905950  -2.308461
    N    0.712590   0.905950  -2.308460
    H    0.673432   1.006470  -3.315997
    H    1.377190   1.485970  -1.813316
    H   -1.537876  -0.622095  -2.819942
    H   -0.433153  -1.876868  -2.385920
}

set optking { frozen_dihedral = (" 1 7 13 17 ") }

set optking { dynamic_level = 1 
 geom_maxiter = 250
 print_trajectory_xyz_file = True }

energy, wfn = optimize('B3LYP-D3', return_wfn=True)

import os
os.chdir(os.environ['HTMD_PSI4_WORKDIR'])

oeprop(wfn, 'DIPOLE', 'QUADRUPOLE', 'MULLIKEN_CHARGES')

with open('psi4out.xyz', 'w') as f:
    f.write('18 ' )
    f.write('%.12f\n' % energy)
    f.write(MOL.save_string_xyz())
--------------------------------------------------------------------------
  Threads set to 4 by Python driver.

  Memory set to   2.794 GiB by Python driver.
gradient() will perform analytic gradient computation.

*** tstart() called on green.prib.upf.edu
*** at Sat Sep 29 20:34:41 2018

   => Loading Basis Set <=

    Name: 6-31G*
    Role: ORBITAL
    Keyword: BASIS
    atoms 1-7         entry C          line   111 file /shared/joao/test_parameterize/miniconda3/share/psi4/basis/6-31gs.gbs 
    atoms 8-12, 15-18 entry H          line    44 file /shared/joao/test_parameterize/miniconda3/share/psi4/basis/6-31gs.gbs 
    atoms 13-14       entry N          line   128 file /shared/joao/test_parameterize/miniconda3/share/psi4/basis/6-31gs.gbs 


         ---------------------------------------------------------
                                   SCF
            by Justin Turney, Rob Parrish, Andy Simmonett
                             and Daniel Smith
                              RKS Reference
                        4 Threads,   2861 MiB Core
         ---------------------------------------------------------

  ==> Geometry <==

    Molecular point group: c1
    Full point group: C1

    Geometry (in Angstrom), charge = 1, multiplicity = 1:

       Center              X                  Y                   Z               Mass       
    ------------   -----------------  -----------------  -----------------  -----------------
         C            0.000000000000     0.000000000000    -0.177864000000    12.000000000000
         C            0.036678000000     1.219374000000     0.524165000000    12.000000000000
         C            0.031765000000     1.213120000000     1.915444000000    12.000000000000
         C            0.000000000000     0.000000000000     2.610107000000    12.000000000000
         C           -0.031765000000    -1.213120000000     1.915444000000    12.000000000000
         C           -0.036678000000    -1.219375000000     0.524165000000    12.000000000000
         C            0.000000000000     0.000000000000    -1.644734000000    12.000000000000
         H            0.018170000000     2.164705000000    -0.010854000000     1.007825032070
         H            0.042402000000     2.152895000000     2.457886000000     1.007825032070
         H            0.000000000000     0.000000000000     3.695756000000     1.007825032070
         H           -0.042402000000    -2.152895000000     2.457886000000     1.007825032070
         H           -0.018170000000    -2.164705000000    -0.010853000000     1.007825032070
         N           -0.712590000000    -0.905950000000    -2.308461000000    14.003074004780
         N            0.712590000000     0.905950000000    -2.308460000000    14.003074004780
         H            0.673432000000     1.006470000000    -3.315997000000     1.007825032070
         H            1.377190000000     1.485970000000    -1.813316000000     1.007825032070
         H           -1.537876000000    -0.622095000000    -2.819942000000     1.007825032070
         H           -0.433153000000    -1.876868000000    -2.385920000000     1.007825032070

  Running in c1 symmetry.

  Rotational constants: A =      0.12112  B =      0.03957  C =      0.03131 [cm^-1]
  Rotational constants: A =   3630.94118  B =   1186.35237  C =    938.76068 [MHz]
  Nuclear repulsion =  416.618063714122172

  Charge       = 1
  Multiplicity = 1
  Electrons    = 64
  Nalpha       = 32
  Nbeta        = 32

  ==> Algorithm <==

  SCF Algorithm Type is DF.
  DIIS enabled.
  MOM disabled.
  Fractional occupation disabled.
  Guess Type is SAD.
  Energy threshold   = 1.00e-08
  Density threshold  = 1.00e-08
  Integral threshold = 0.00e+00

  ==> Primary Basis <==

  Basis Set: 6-31G*
    Blend: 6-31G*
    Number of shells: 72
    Number of basis function: 153
    Number of Cartesian functions: 153
    Spherical Harmonics?: false
    Max angular momentum: 2

  ==> DFT Potential <==

   => Composite Functional: B3LYP-D3ZERO <= 

    B3LYP-d3zero Hyb-GGA Exchange-Correlation Functional

    P. J. Stephens, F. J. Devlin, C. F. Chabalowski, and M. J. Frisch, J. Phys. Chem. 98, 11623 (1994)

    Deriv               =              1
    GGA                 =           TRUE
    Meta                =          FALSE

    Exchange Hybrid     =           TRUE
    MP2 Hybrid          =          FALSE

   => Exchange Functionals <=

    0.0800   Slater exchange
    0.7200         Becke 88

   => Exact (HF) Exchange <=

    0.2000               HF 

   => Correlation Functionals <=

    0.1900   Vosko, Wilk & Nusair (VWN5_RPA)
    0.8100   Lee, Yang & Parr

   => Molecular Quadrature <=

    Radial Scheme       =       TREUTLER
    Pruning Scheme      =           FLAT
    Nuclear Scheme      =       TREUTLER

    BS radius alpha     =              1
    Pruning alpha       =              1
    Radial Points       =             75
    Spherical Points    =            302
    Total Points        =         397040
    Total Blocks        =           3022
    Max Points          =            256
    Max Functions       =            149

   => -D3ZERO: Empirical Dispersion <=

    Grimme's -D3 (zero-damping) Dispersion Correction
    Grimme S.; Antony J.; Ehrlich S.; Krieg H. (2010), J. Chem. Phys., 132: 154104

        S6 =   1.000000E+00
        S8 =   1.703000E+00
       SR6 =   1.261000E+00
       SR8 =   1.000000E+00
    ALPHA6 =   1.400000E+01

   => Loading Basis Set <=

    Name: (6-31G* AUX)
    Role: JKFIT
    Keyword: DF_BASIS_SCF
    atoms 1-7         entry C          line   121 file /shared/joao/test_parameterize/miniconda3/share/psi4/basis/cc-pvdz-jkfit.gbs 
    atoms 8-12, 15-18 entry H          line    51 file /shared/joao/test_parameterize/miniconda3/share/psi4/basis/cc-pvdz-jkfit.gbs 
    atoms 13-14       entry N          line   171 file /shared/joao/test_parameterize/miniconda3/share/psi4/basis/cc-pvdz-jkfit.gbs 

  ==> Pre-Iterations <==

   -------------------------------------------------------
    Irrep   Nso     Nmo     Nalpha   Nbeta   Ndocc  Nsocc
   -------------------------------------------------------
     A        153     153       0       0       0       0
   -------------------------------------------------------
    Total     153     153      32      32      32       0
   -------------------------------------------------------

  ==> Integral Setup <==

  ==> DiskDFJK: Density-Fitted J/K Matrices <==

    J tasked:                  Yes
    K tasked:                  Yes
    wK tasked:                  No
    OpenMP threads:              4
    Integrals threads:           4
    Memory (MB):              2002
    Algorithm:                Core
    Integral Cache:           NONE
    Schwarz Cutoff:          1E-12
    Fitting Condition:       1E-12

   => Auxiliary Basis Set <=

  Basis Set: (6-31G* AUX)
    Blend: CC-PVDZ-JKFIT
    Number of shells: 297
    Number of basis function: 954
    Number of Cartesian functions: 954
    Spherical Harmonics?: false
    Max angular momentum: 3

  Minimum eigenvalue in the overlap matrix is 4.8586515010E-04.
  Using Symmetric Orthogonalization.

  SCF Guess: Superposition of Atomic Densities via on-the-fly atomic UHF.

  ==> Iterations <==

                           Total Energy        Delta E     RMS |[F,P]|

   @DF-RKS iter   0:  -379.61436703788155   -3.79614e+02   6.81796e-02 
   @DF-RKS iter   1:  -380.97311373115349   -1.35875e+00   1.21723e-02 
   @DF-RKS iter   2:  -380.77146561980021    2.01648e-01   1.44240e-02 DIIS
   @DF-RKS iter   3:  -381.40254225341073   -6.31077e-01   2.87254e-03 DIIS
   @DF-RKS iter   4:  -381.42465035044262   -2.21081e-02   9.02646e-04 DIIS
   @DF-RKS iter   5:  -381.42652152813150   -1.87118e-03   3.78429e-04 DIIS
   @DF-RKS iter   6:  -381.42690441014940   -3.82882e-04   1.12494e-04 DIIS
   @DF-RKS iter   7:  -381.42693847618852   -3.40660e-05   3.41309e-05 DIIS
   @DF-RKS iter   8:  -381.42694174225124   -3.26606e-06   8.46203e-06 DIIS
   @DF-RKS iter   9:  -381.42694193291288   -1.90662e-07   5.05349e-06 DIIS
   @DF-RKS iter  10:  -381.42694201016195   -7.72491e-08   6.49559e-07 DIIS
   @DF-RKS iter  11:  -381.42694201155774   -1.39579e-09   3.96918e-07 DIIS
   @DF-RKS iter  12:  -381.42694201205938   -5.01643e-10   1.39246e-07 DIIS
   @DF-RKS iter  13:  -381.42694201213436   -7.49765e-11   4.08923e-08 DIIS
   @DF-RKS iter  14:  -381.42694201214022   -5.85487e-12   1.28495e-08 DIIS
   @DF-RKS iter  15:  -381.42694201214010    1.13687e-13   6.71566e-09 DIIS

  ==> Post-Iterations <==

    Orbital Energies [Eh]
    ---------------------

    Doubly Occupied:                                                      

       1A    -14.586199     2A    -14.518493     3A    -10.502807  
       4A    -10.372294     5A    -10.359108     6A    -10.357306  
       7A    -10.346459     8A    -10.342271     9A    -10.341732  
      10A     -1.179951    11A     -1.080740    12A     -1.015176  
      13A     -0.925917    14A     -0.903585    15A     -0.842526  
      16A     -0.778218    17A     -0.770300    18A     -0.742416  
      19A     -0.719736    20A     -0.705516    21A     -0.672988  
      22A     -0.629899    23A     -0.605898    24A     -0.587053  
      25A     -0.577771    26A     -0.558596    27A     -0.517379  
      28A     -0.508916    29A     -0.499589    30A     -0.443431  
      31A     -0.409978    32A     -0.405292  

    Virtual:                                                              

      33A     -0.253500    34A     -0.156376    35A     -0.144576  
      36A     -0.100762    37A     -0.076141    38A     -0.050026  
      39A     -0.036919    40A     -0.014681    41A      0.005743  
      42A      0.015834    43A      0.027129    44A      0.058230  
      45A      0.067806    46A      0.093281    47A      0.128934  
      48A      0.140672    49A      0.155987    50A      0.164382  
      51A      0.208435    52A      0.239743    53A      0.297455  
      54A      0.355200    55A      0.360306    56A      0.381652  
      57A      0.394805    58A      0.403237    59A      0.414116  
      60A      0.422456    61A      0.438477    62A      0.448332  
      63A      0.456387    64A      0.470110    65A      0.471993  
      66A      0.482151    67A      0.488601    68A      0.504411  
      69A      0.526028    70A      0.536919    71A      0.563573  
      72A      0.581750    73A      0.612248    74A      0.641297  
      75A      0.664814    76A      0.679893    77A      0.686877  
      78A      0.700464    79A      0.713694    80A      0.727647  
      81A      0.737222    82A      0.752952    83A      0.765647  
      84A      0.774098    85A      0.808223    86A      0.831957  
      87A      0.850236    88A      0.890897    89A      0.956099  
      90A      0.962909    91A      0.978978    92A      1.017253  
      93A      1.038649    94A      1.092564    95A      1.139789  
      96A      1.154366    97A      1.255179    98A      1.272875  
      99A      1.285195   100A      1.304100   101A      1.324195  
     102A      1.340579   103A      1.360322   104A      1.377660  
     105A      1.434005   106A      1.473789   107A      1.495903  
     108A      1.589673   109A      1.628491   110A      1.671373  
     111A      1.706634   112A      1.725038   113A      1.757354  
     114A      1.782320   115A      1.805214   116A      1.829500  
     117A      1.893914   118A      1.951834   119A      1.960933  
     120A      1.988798   121A      1.996979   122A      2.003105  
     123A      2.016401   124A      2.055586   125A      2.120684  
     126A      2.124809   127A      2.151089   128A      2.193928  
     129A      2.207786   130A      2.312853   131A      2.359443  
     132A      2.433730   133A      2.446678   134A      2.457310  
     135A      2.485793   136A      2.518072   137A      2.556607  
     138A      2.588643   139A      2.596847   140A      2.625395  
     141A      2.730801   142A      2.838780   143A      2.977926  
     144A      3.256826   145A      3.616075   146A      3.695005  
     147A      3.911138   148A      3.944613   149A      3.962743  
     150A      4.040642   151A      4.172242   152A      4.249634  
     153A      4.544164  

    Final Occupation by Irrep:
              A 
    DOCC [    32 ]

  Energy converged.

  @DF-RKS Final Energy:  -381.42694201214010

   => Energetics <=

    Nuclear Repulsion Energy =            416.6180637141221723
    One-Electron Energy =               -1328.5230601941646000
    Two-Electron Energy =                 574.9015030865549534
    DFT Exchange-Correlation Energy =     -44.4115133886525939
    Empirical Dispersion Energy =          -0.0119352300000000
    VV10 Nonlocal Energy =                  0.0000000000000000
    Total Energy =                       -381.4269420121400458



Properties will be evaluated at   0.000000,   0.000000,   0.000000 [a0]

Properties computed using the SCF density matrix

  Nuclear Dipole Moment: [e a0]
     X:     0.1504      Y:    -0.0123      Z:    -0.1199

  Electronic Dipole Moment: [e a0]
     X:     0.1080      Y:     0.2519      Z:    -1.9744

  Dipole Moment: [e a0]
     X:     0.2584      Y:     0.2395      Z:    -2.0943     Total:     2.1237

  Dipole Moment: [D]
     X:     0.6567      Y:     0.6088      Z:    -5.3231     Total:     5.3979


*** tstop() called on green.prib.upf.edu at Sat Sep 29 20:35:10 2018
Module time:
	user time   =     106.72 seconds =       1.78 minutes
	system time =       0.62 seconds =       0.01 minutes
	total time  =         29 seconds =       0.48 minutes
Total time:
	user time   =     106.72 seconds =       1.78 minutes
	system time =       0.62 seconds =       0.01 minutes
	total time  =         29 seconds =       0.48 minutes

*** tstart() called on green.prib.upf.edu
*** at Sat Sep 29 20:35:10 2018


         ------------------------------------------------------------
                                   SCF GRAD                          
                          Rob Parrish, Justin Turney,                
                       Andy Simmonett, and Alex Sokolov              
         ------------------------------------------------------------

  ==> Geometry <==

    Molecular point group: c1
    Full point group: C1

    Geometry (in Angstrom), charge = 1, multiplicity = 1:

       Center              X                  Y                   Z               Mass       
    ------------   -----------------  -----------------  -----------------  -----------------
         C            0.000000000000     0.000000000000    -0.177864000000    12.000000000000
         C            0.036678000000     1.219374000000     0.524165000000    12.000000000000
         C            0.031765000000     1.213120000000     1.915444000000    12.000000000000
         C            0.000000000000     0.000000000000     2.610107000000    12.000000000000
         C           -0.031765000000    -1.213120000000     1.915444000000    12.000000000000
         C           -0.036678000000    -1.219375000000     0.524165000000    12.000000000000
         C            0.000000000000     0.000000000000    -1.644734000000    12.000000000000
         H            0.018170000000     2.164705000000    -0.010854000000     1.007825032070
         H            0.042402000000     2.152895000000     2.457886000000     1.007825032070
         H            0.000000000000     0.000000000000     3.695756000000     1.007825032070
         H           -0.042402000000    -2.152895000000     2.457886000000     1.007825032070
         H           -0.018170000000    -2.164705000000    -0.010853000000     1.007825032070
         N           -0.712590000000    -0.905950000000    -2.308461000000    14.003074004780
         N            0.712590000000     0.905950000000    -2.308460000000    14.003074004780
         H            0.673432000000     1.006470000000    -3.315997000000     1.007825032070
         H            1.377190000000     1.485970000000    -1.813316000000     1.007825032070
         H           -1.537876000000    -0.622095000000    -2.819942000000     1.007825032070
         H           -0.433153000000    -1.876868000000    -2.385920000000     1.007825032070

  Nuclear repulsion =  416.618063714122172

  ==> Basis Set <==

  Basis Set: 6-31G*
    Blend: 6-31G*
    Number of shells: 72
    Number of basis function: 153
    Number of Cartesian functions: 153
    Spherical Harmonics?: false
    Max angular momentum: 2

  ==> DFJKGrad: Density-Fitted SCF Gradients <==

    Gradient:                    1
    J tasked:                  Yes
    K tasked:                  Yes
    wK tasked:                  No
    OpenMP threads:              4
    Integrals threads:           4
    Memory (MB):              2002
    Schwarz Cutoff:          0E+00
    Fitting Condition:       1E-12

   => Auxiliary Basis Set <=

  Basis Set: (6-31G* AUX)
    Blend: CC-PVDZ-JKFIT
    Number of shells: 297
    Number of basis function: 954
    Number of Cartesian functions: 954
    Spherical Harmonics?: false
    Max angular momentum: 3

  ==> DFT Potential <==

   => Composite Functional: B3LYP-D3ZERO <= 

    B3LYP-d3zero Hyb-GGA Exchange-Correlation Functional

    P. J. Stephens, F. J. Devlin, C. F. Chabalowski, and M. J. Frisch, J. Phys. Chem. 98, 11623 (1994)

    Deriv               =              1
    GGA                 =           TRUE
    Meta                =          FALSE

    Exchange Hybrid     =           TRUE
    MP2 Hybrid          =          FALSE

   => Exchange Functionals <=

    0.0800   Slater exchange
    0.7200         Becke 88

   => Exact (HF) Exchange <=

    0.2000               HF 

   => Correlation Functionals <=

    0.1900   Vosko, Wilk & Nusair (VWN5_RPA)
    0.8100   Lee, Yang & Parr

   => Molecular Quadrature <=

    Radial Scheme       =       TREUTLER
    Pruning Scheme      =           FLAT
    Nuclear Scheme      =       TREUTLER

    BS radius alpha     =              1
    Pruning alpha       =              1
    Radial Points       =             75
    Spherical Points    =            302
    Total Points        =         397040
    Total Blocks        =           3022
    Max Points          =            256
    Max Functions       =            149


  -Total Gradient:
     Atom            X                  Y                   Z
    ------   -----------------  -----------------  -----------------
       1       -0.010332700027    -0.000885444384     0.006663318081
       2       -0.003618519512    -0.001889344861    -0.003438877064
       3        0.001153022604    -0.001173818330     0.000551475607
       4       -0.000180603265    -0.000991988643    -0.000458564460
       5       -0.001080948274     0.001596228608     0.002993492854
       6        0.001775294781     0.002074954696    -0.003236326736
       7       -0.029891311925    -0.023943013280    -0.025633524363
       8       -0.000060000518    -0.000166584995    -0.000137935029
       9        0.000442750265    -0.000032818071    -0.000074580784
      10        0.000197215101    -0.000060060020    -0.000029574789
      11       -0.000093856679    -0.000017203676    -0.000000920334
      12        0.002368625978    -0.000718525876    -0.000453618477
      13        0.025894610910     0.025645681425     0.032825107427
      14        0.009182828916     0.002704408184    -0.009642382933
      15        0.000849872206     0.004500310348     0.002447642084
      16        0.002270665340    -0.007032200826    -0.001682716953
      17       -0.003108958183     0.001341236078     0.006587019421
      18        0.004231334615    -0.000953042081    -0.007280465155


*** tstop() called on green.prib.upf.edu at Sat Sep 29 20:35:17 2018
Module time:
	user time   =      25.74 seconds =       0.43 minutes
	system time =       0.21 seconds =       0.00 minutes
	total time  =          7 seconds =       0.12 minutes
Total time:
	user time   =     132.52 seconds =       2.21 minutes
	system time =       0.84 seconds =       0.01 minutes
	total time  =         36 seconds =       0.60 minutes

			-----------------------------------------
			 OPTKING 2.0: for geometry optimizations 
			  - R.A. King,  Bethel University        
			-----------------------------------------
	At level 1: Red. Int., RFO, no backsteps, dynamic trust

	Internal coordinates to be generated automatically.
	Detected frag 1 with atoms:  1 2 3 4 5 6 7 8 9 10 11 12 13 14 15 16 17 18
	---Fragment 1 Bond Connectivity---
	 1 : 2 6 7
	 2 : 1 3 8
	 3 : 2 4 9
	 4 : 3 5 10
	 5 : 4 6 11
	 6 : 1 5 12
	 7 : 1 13 14
	 8 : 2
	 9 : 3
	 10 : 4
	 11 : 5
	 12 : 6
	 13 : 7 17 18
	 14 : 7 15 16
	 15 : 14
	 16 : 14
	 17 : 13
	 18 : 13

	Assuming in current code that numbering for constraints corresponds to unified fragment.
	Frozen dihedral atom list: 
	     1     7    13    17
	---Fragment 1 Geometry and Gradient---
	 C           0.0000000000        0.0000000000       -0.3361142489
	 C           0.0693113751        2.3042829136        0.9905282984
	 C           0.0600271506        2.2924645663        3.6196645829
	 C           0.0000000000        0.0000000000        4.9323874075
	 C          -0.0600271506       -2.2924645663        3.6196645829
	 C          -0.0693113751       -2.3042848033        0.9905282984
	 C           0.0000000000        0.0000000000       -3.1080968214
	 H           0.0343363238        4.0906996085       -0.0205110874
	 H           0.0801281675        4.0683819429        4.6447314059
	 H           0.0000000000        0.0000000000        6.9839666940
	 H          -0.0801281675       -4.0683819429        4.6447314059
	 H          -0.0343363238       -4.0906996085       -0.0205091977
	 N          -1.3465999450       -1.7119973901       -4.3623590784
	 N           1.3465999450        1.7119973901       -4.3623571887
	 H           1.2726020491        1.9019526610       -6.2663261875
	 H           2.6025119329        2.8080763417       -3.4266706324
	 H          -2.9061644663       -1.1755891786       -5.3289180906
	 H          -0.8185405436       -3.5467665076       -4.5087353750
	            -0.0103327000       -0.0008854444        0.0066633181
	            -0.0036185195       -0.0018893449       -0.0034388771
	             0.0011530226       -0.0011738183        0.0005514756
	            -0.0001806033       -0.0009919886       -0.0004585645
	            -0.0010809483        0.0015962286        0.0029934929
	             0.0017752948        0.0020749547       -0.0032363267
	            -0.0298913119       -0.0239430133       -0.0256335244
	            -0.0000600005       -0.0001665850       -0.0001379350
	             0.0004427503       -0.0000328181       -0.0000745808
	             0.0001972151       -0.0000600600       -0.0000295748
	            -0.0000938567       -0.0000172037       -0.0000009203
	             0.0023686260       -0.0007185259       -0.0004536185
	             0.0258946109        0.0256456814        0.0328251074
	             0.0091828289        0.0027044082       -0.0096423829
	             0.0008498722        0.0045003103        0.0024476421
	             0.0022706653       -0.0070322008       -0.0016827170
	            -0.0031089582        0.0013412361        0.0065870194
	             0.0042313346       -0.0009530421       -0.0072804652

	Previous optimization step data not found.  Starting new optimization.

	---Fragment 1 Intrafragment Coordinates---
	 - Coordinate -           - BOHR/RAD -       - ANG/DEG -
	 R(1,2)           =         2.659794	       1.407502
	 R(1,6)           =         2.659796	       1.407503
	 R(1,7)           =         2.771983	       1.466870
	 R(2,3)           =         2.629179	       1.391302
	 R(2,8)           =         2.052976	       1.086388
	 R(3,4)           =         2.642393	       1.398294
	 R(3,9)           =         2.050622	       1.085142
	 R(4,5)           =         2.642393	       1.398294
	 R(4,10)          =         2.051579	       1.085649
	 R(5,6)           =         2.629179	       1.391302
	 R(5,11)          =         2.050622	       1.085142
	 R(6,12)          =         2.052973	       1.086386
	 R(7,13)          =         2.513452	       1.330061
	 R(7,14)          =         2.513451	       1.330061
	 R(13,17)         =         1.911599	       1.011575
	 R(13,18)         =         1.914850	       1.013295
	 R(14,15)         =         1.914852	       1.013296
	 R(14,16)         =         1.911600	       1.011575
	 B(1,2,3)         =         2.088380	     119.655376
	 B(1,2,8)         =         2.103396	     120.515689
	 B(1,6,5)         =         2.088379	     119.655315
	 B(1,6,12)        =         2.103396	     120.515729
	 B(1,7,13)        =         2.093264	     119.935172
	 B(1,7,14)        =         2.093263	     119.935135
	 B(2,1,6)         =         2.097220	     120.161857
	 B(2,1,7)         =         2.092983	     119.919082
	 B(2,3,4)         =         2.095279	     120.050636
	 B(2,3,9)         =         2.089719	     119.732108
	 B(3,2,8)         =         2.090149	     119.756722
	 B(3,4,5)         =         2.101793	     120.423859
	 B(3,4,10)        =         2.090696	     119.788070
	 B(4,3,9)         =         2.098135	     120.214297
	 B(4,5,6)         =         2.095280	     120.050677
	 B(4,5,11)        =         2.098135	     120.214297
	 B(5,4,10)        =         2.090696	     119.788070
	 B(5,6,12)        =         2.090149	     119.756743
	 B(6,1,7)         =         2.092982	     119.919061
	 B(6,5,11)        =         2.089719	     119.732067
	 B(7,13,17)       =         2.092412	     119.886358
	 B(7,13,18)       =         2.144860	     122.891411
	 B(7,14,15)       =         2.144860	     122.891405
	 B(7,14,16)       =         2.092412	     119.886393
	 B(13,7,14)       =         2.096659	     120.129694
	 B(15,14,16)      =         2.043399	     117.078146
	 B(17,13,18)      =         2.043400	     117.078169
	 D(1,2,3,4)       =         0.007799	       0.446825
	 D(1,2,3,9)       =        -3.122896	    -178.928735
	 D(1,6,5,4)       =         0.007799	       0.446822
	 D(1,6,5,11)      =        -3.122896	    -178.928737
	*D(1,7,13,17)     =         1.919863	     110.000024
	 D(1,7,13,18)     =        -1.300148	     -74.492971
	 D(1,7,14,15)     =        -3.032165	    -173.730230
	 D(1,7,14,16)     =         0.187844	      10.762681
	 D(2,1,6,5)       =        -0.003906	      -0.223802
	 D(2,1,6,12)      =        -3.091437	    -177.126283
	 D(2,1,7,13)      =        -2.505167	    -143.535494
	 D(2,1,7,14)      =         0.636426	      36.464506
	 D(2,3,4,5)       =        -0.003942	      -0.225875
	 D(2,3,4,10)      =         3.137650	     179.774125
	 D(3,2,1,6)       =        -0.003906	      -0.223806
	 D(3,2,1,7)       =         3.137687	     179.776196
	 D(3,4,5,6)       =        -0.003942	      -0.225874
	 D(3,4,5,11)      =         3.126699	     179.146646
	 D(4,3,2,8)       =         3.095744	     177.373058
	 D(4,5,6,12)      =         3.095744	     177.373055
	 D(5,4,3,9)       =         3.126699	     179.146646
	 D(5,6,1,7)       =         3.137687	     179.776197
	 D(6,1,2,8)       =        -3.091437	    -177.126287
	 D(6,1,7,13)      =         0.636426	      36.464508
	 D(6,1,7,14)      =        -2.505167	    -143.535492
	 D(6,5,4,10)      =         3.137650	     179.774126
	 D(7,1,2,8)       =         0.050156	       2.873714
	 D(7,1,6,12)      =         0.050156	       2.873716
	 D(8,2,3,9)       =        -0.034950	      -2.002503
	 D(9,3,4,10)      =        -0.014894	      -0.853354
	 D(10,4,5,11)     =        -0.014894	      -0.853354
	 D(11,5,6,12)     =        -0.034950	      -2.002504
	 D(13,7,14,15)    =         0.109428	       6.269770
	 D(13,7,14,16)    =        -2.953748	    -169.237319
	 D(14,7,13,17)    =        -1.221730	     -69.999976
	 D(14,7,13,18)    =         1.841445	     105.507029

	Current energy   :      -381.4269420121

	Generating empirical Hessian (Schlegel '84) for each fragment.
	Taking RFO optimization step.
	Going to follow RFO solution 1.
	Using RFO vector 1.

	Determining step-restricting scale parameter for RS-RFO.
	Maximum step size allowed    0.50000

	 Iter      |step|        alpha        rfo_root  
	------------------------------------------------
	    0     0.53513       1.00000           1
	    1     0.50315       1.18485           1
	    2     0.50003       1.20483           1
	    3     0.50000       1.20502           1
	------------------------------------------------
	Norm of target step-size    0.50000
	Projected energy change by RFO approximation:        -0.0170780679

	Back-transformation to cartesian coordinates...
	Could not converge backtransformation.
	Using first guess instead.

	Back-transformation to cartesian coordinates to adjust frozen coordinates...
	Successfully converged to displaced geometry.

	--- Internal Coordinate Step in ANG or DEG, aJ/ANG or AJ/DEG ---
	 ---------------------------------------------------------------------------
	   Coordinate                Previous        Force       Change         New 
	   ----------                --------       ------       ------       ------
	    1 R(1,2)          =      1.407502     0.031343     0.005741     1.413243
	    2 R(1,6)          =      1.407503     0.016732     0.004781     1.412284
	    3 R(1,7)          =      1.466870    -0.019598    -0.003282     1.463588
	    4 R(2,3)          =      1.391302    -0.006855    -0.000515     1.390787
	    5 R(2,8)          =      1.086388     0.000628     0.001461     1.087848
	    6 R(3,4)          =      1.398294     0.002244     0.001733     1.400027
	    7 R(3,9)          =      1.085142     0.000506     0.000585     1.085727
	    8 R(4,5)          =      1.398294     0.014668     0.002891     1.401185
	    9 R(4,10)         =      1.085649     0.000243     0.000226     1.085875
	   10 R(5,6)          =      1.391302    -0.017695    -0.002351     1.388950
	   11 R(5,11)         =      1.085142    -0.000128     0.001816     1.086958
	   12 R(6,12)         =      1.086386    -0.007325     0.001777     1.088164
	   13 R(7,13)         =      1.330061     0.397459     0.043890     1.373951
	   14 R(7,14)         =      1.330061    -0.091781    -0.000660     1.329401
	   15 R(13,17)        =      1.011575     0.003440     0.001598     1.013173
	   16 R(13,18)        =      1.013295    -0.021717     0.000044     1.013339
	   17 R(14,15)        =      1.013296     0.016646     0.002615     1.015911
	   18 R(14,16)        =      1.011575     0.027709     0.025848     1.037423
	   19 B(1,2,3)        =    119.655376     0.000035     0.047878   119.703254
	   20 B(1,2,8)        =    120.515689    -0.000003     0.045889   120.561579
	   21 B(1,6,5)        =    119.655315     0.000018     0.012752   119.668066
	   22 B(1,6,12)       =    120.515729    -0.000002     0.158966   120.674695
	   23 B(1,7,13)       =    119.935172     0.000997     2.737163   122.672335
	   24 B(1,7,14)       =    119.935135    -0.000518    -1.726276   118.208858
	   25 B(2,1,6)        =    120.161857    -0.000086    -0.143239   120.018618
	   26 B(2,1,7)        =    119.919082     0.000073     0.165574   120.084656
	   27 B(2,3,4)        =    120.050636    -0.000036    -0.098732   119.951904
	   28 B(2,3,9)        =    119.732108     0.000022     0.018636   119.750744
	   29 B(3,2,8)        =    119.756722    -0.000034    -0.135929   119.620793
	   30 B(3,4,5)        =    120.423859     0.000039     0.137575   120.561435
	   31 B(3,4,10)       =    119.788070    -0.000024    -0.047565   119.740505
	   32 B(4,3,9)        =    120.214297     0.000014     0.082014   120.296310
	   33 B(4,5,6)        =    120.050677     0.000029     0.017976   120.068653
	   34 B(4,5,11)       =    120.214297    -0.000015     0.043521   120.257817
	   35 B(5,4,10)       =    119.788070    -0.000015    -0.092632   119.695439
	   36 B(5,6,12)       =    119.756743    -0.000013    -0.123813   119.632930
	   37 B(6,1,7)        =    119.919061     0.000012    -0.029391   119.889670
	   38 B(6,5,11)       =    119.732067    -0.000014    -0.060501   119.671566
	   39 B(7,13,17)      =    119.886358     0.000302     1.448693   121.335051
	   40 B(7,13,18)      =    122.891411    -0.000190    -1.091497   121.799914
	   41 B(7,14,15)      =    122.891405    -0.000447    -2.108440   120.782965
	   42 B(7,14,16)      =    119.886393     0.000320     2.076738   121.963131
	   43 B(13,7,14)      =    120.129694    -0.000478    -1.227045   118.902649
	   44 B(15,14,16)     =    117.078146     0.000143     0.171745   117.249891
	   45 B(17,13,18)     =    117.078169    -0.000089    -0.265198   116.812971
	   46 D(1,2,3,4)      =      0.446825     0.000011     1.061633     1.508458
	   47 D(1,2,3,9)      =   -178.928735     0.000009     0.807353  -178.121382
	   48 D(1,6,5,4)      =      0.446822     0.000012     1.122637     1.569459
	   49 D(1,6,5,11)     =   -178.928737    -0.000000    -0.010259  -178.938997
	   50 *D(1,7,13,17)   =    110.000024     0.000000    -0.000000   110.000024
	   51 D(1,7,13,18)    =    -74.492971     0.000085     7.201245   -67.291726
	   52 D(1,7,14,15)    =   -173.730230    -0.000009    -0.444529  -174.174759
	   53 D(1,7,14,16)    =     10.762681    -0.000068    -5.686408     5.076273
	   54 D(2,1,6,5)      =     -0.223802    -0.000008    -0.832009    -1.055811
	   55 D(2,1,6,12)     =   -177.126283    -0.000022    -2.129595  -179.255878
	   56 D(2,1,7,13)     =   -143.535494    -0.000031    -5.045859  -148.581353
	   57 D(2,1,7,14)     =     36.464506    -0.000087   -10.451760    26.012747
	   58 D(2,3,4,5)      =     -0.225875    -0.000008    -0.778781    -1.004656
	   59 D(2,3,4,10)     =    179.774125    -0.000002    -0.187961   179.586164
	   60 D(3,2,1,6)      =     -0.223806    -0.000003    -0.264819    -0.488625
	   61 D(3,2,1,7)      =    179.776196    -0.000013    -1.232100   178.544095
	   62 D(3,4,5,6)      =     -0.225874    -0.000004    -0.327981    -0.553856
	   63 D(3,4,5,11)     =    179.146646     0.000008     0.810962   179.957609
	   64 D(4,3,2,8)      =    177.373058     0.000003     0.269784   177.642842
	   65 D(4,5,6,12)     =    177.373055     0.000025     2.415390   179.788445
	   66 D(5,4,3,9)      =    179.146646    -0.000005    -0.523505   178.623141
	   67 D(5,6,1,7)      =    179.776197     0.000001     0.133374   179.909571
	   68 D(6,1,2,8)      =   -177.126287     0.000005     0.540293  -176.585995
	   69 D(6,1,7,13)     =     36.464508    -0.000040    -6.011886    30.452621
	   70 D(6,1,7,14)     =   -143.535492    -0.000096   -11.417787  -154.953279
	   71 D(6,5,4,10)     =    179.774126    -0.000010    -0.918536   178.855590
	   72 D(7,1,2,8)      =      2.873714    -0.000004    -0.426989     2.446726
	   73 D(7,1,6,12)     =      2.873716    -0.000013    -1.164212     1.709504
	   74 D(8,2,3,9)      =     -2.002503     0.000000     0.015505    -1.986998
	   75 D(9,3,4,10)     =     -0.853354     0.000001     0.067315    -0.786039
	   76 D(10,4,5,11)    =     -0.853354     0.000002     0.220407    -0.632946
	   77 D(11,5,6,12)    =     -2.002504     0.000013     1.282493    -0.720011
	   78 D(13,7,14,15)   =      6.269770    -0.000065    -5.641928     0.627842
	   79 D(13,7,14,16)   =   -169.237319    -0.000124   -10.883807  -180.121126
	   80 D(14,7,13,17)   =    -69.999976     0.000056     5.441751   -64.558225
	   81 D(14,7,13,18)   =    105.507029     0.000141    12.642996   118.150025
	 ---------------------------------------------------------------------------
	Successfully symmetrized geometry.

  ==> Convergence Check <==

  Measures of convergence in internal coordinates in au.
  Criteria marked as inactive (o), active & met (*), and active & unmet ( ).
  --------------------------------------------------------------------------------------------- ~
   Step     Total Energy     Delta E     MAX Force     RMS Force      MAX Disp      RMS Disp    ~
  --------------------------------------------------------------------------------------------- ~
    Convergence Criteria    1.00e-06 *    3.00e-04 *             o    1.20e-03 *             o  ~
  --------------------------------------------------------------------------------------------- ~
      1    -381.42694201   -3.81e+02      4.82e-02      6.18e-03 o    2.21e-01      5.50e-02 o  ~
  ---------------------------------------------------------------------------------------------

	Writing optimization data to binary file.
	Structure for next step:
	Cartesian Geometry (in Angstrom)
	    C     0.0381605721  -0.0185258312  -0.1771987945
	    C     0.1339501744   1.2066640221   0.5206487478
	    C     0.1013994054   1.2121859605   1.9110439969
	    C     0.0060146595   0.0044958127   2.6127996109
	    C    -0.0784032801  -1.2138679043   1.9259359827
	    C    -0.0795760581  -1.2311554164   0.5370936682
	    C     0.0394640604  -0.0313005929  -1.6407303777
	    H     0.1692883215   2.1499335751  -0.0200987880
	    H     0.1441212523   2.1553166897   2.4472184485
	    H    -0.0123453178   0.0123495750   3.6984913305
	    H    -0.1515934251  -2.1486549203   2.4757497174
	    H    -0.1419294760  -2.1815943379   0.0109017015
	    N    -0.6387164738  -0.9741143784  -2.3748388876
	    N     0.6352277738   0.9722221023  -2.2773740774
	    H     0.5840938328   1.0495341562  -3.2890478463
	    H     1.1582715998   1.7108795355  -1.7703656672
	    H    -1.4631700206  -0.7311999107  -2.9112974012
	    H    -0.3646646007  -1.9496921372  -2.3744793643
			--------------------------
			 OPTKING Finished Execution 
			--------------------------

    Structure for next step:
    Molecular point group: c1
    Full point group: C1

    Geometry (in Angstrom), charge = 1, multiplicity = 1:

    C            0.038160572063    -0.018525831198    -0.177198794488
    C            0.133950174402     1.206664022126     0.520648747800
    C            0.101399405416     1.212185960539     1.911043996884
    C            0.006014659546     0.004495812747     2.612799610870
    C           -0.078403280069    -1.213867904269     1.925935982687
    C           -0.079576058082    -1.231155416398     0.537093668155
    C            0.039464060429    -0.031300592933    -1.640730377717
    H            0.169288321488     2.149933575148    -0.020098787996
    H            0.144121252316     2.155316689713     2.447218448486
    H           -0.012345317780     0.012349575021     3.698491330543
    H           -0.151593425120    -2.148654920254     2.475749717420
    H           -0.141929475955    -2.181594337920     0.010901701475
    N           -0.638716473756    -0.974114378375    -2.374838887646
    N            0.635227773825     0.972222102302    -2.277374077432
    H            0.584093832802     1.049534156173    -3.289047846299
    H            1.158271599774     1.710879535491    -1.770365667236
    H           -1.463170020563    -0.731199910690    -2.911297401239
    H           -0.364664600737    -1.949692137225    -2.374479364266

gradient() will perform analytic gradient computation.

*** tstart() called on green.prib.upf.edu
*** at Sat Sep 29 20:35:17 2018

   => Loading Basis Set <=

    Name: 6-31G*
    Role: ORBITAL
    Keyword: BASIS
    atoms 1-7         entry C          line   111 file /shared/joao/test_parameterize/miniconda3/share/psi4/basis/6-31gs.gbs 
    atoms 8-12, 15-18 entry H          line    44 file /shared/joao/test_parameterize/miniconda3/share/psi4/basis/6-31gs.gbs 
    atoms 13-14       entry N          line   128 file /shared/joao/test_parameterize/miniconda3/share/psi4/basis/6-31gs.gbs 


         ---------------------------------------------------------
                                   SCF
            by Justin Turney, Rob Parrish, Andy Simmonett
                             and Daniel Smith
                              RKS Reference
                        4 Threads,   2861 MiB Core
         ---------------------------------------------------------

  ==> Geometry <==

    Molecular point group: c1
    Full point group: C1

    Geometry (in Angstrom), charge = 1, multiplicity = 1:

       Center              X                  Y                   Z               Mass       
    ------------   -----------------  -----------------  -----------------  -----------------
         C            0.038160572063    -0.018525831198    -0.177198794488    12.000000000000
         C            0.133950174402     1.206664022126     0.520648747800    12.000000000000
         C            0.101399405416     1.212185960539     1.911043996884    12.000000000000
         C            0.006014659546     0.004495812747     2.612799610870    12.000000000000
         C           -0.078403280069    -1.213867904269     1.925935982687    12.000000000000
         C           -0.079576058082    -1.231155416398     0.537093668155    12.000000000000
         C            0.039464060429    -0.031300592933    -1.640730377717    12.000000000000
         H            0.169288321488     2.149933575148    -0.020098787996     1.007825032070
         H            0.144121252316     2.155316689713     2.447218448486     1.007825032070
         H           -0.012345317780     0.012349575021     3.698491330543     1.007825032070
         H           -0.151593425120    -2.148654920254     2.475749717420     1.007825032070
         H           -0.141929475955    -2.181594337920     0.010901701475     1.007825032070
         N           -0.638716473756    -0.974114378375    -2.374838887646    14.003074004780
         N            0.635227773825     0.972222102302    -2.277374077432    14.003074004780
         H            0.584093832802     1.049534156173    -3.289047846299     1.007825032070
         H            1.158271599774     1.710879535491    -1.770365667236     1.007825032070
         H           -1.463170020563    -0.731199910690    -2.911297401239     1.007825032070
         H           -0.364664600737    -1.949692137225    -2.374479364266     1.007825032070

  Running in c1 symmetry.

  Rotational constants: A =      0.11983  B =      0.03972  C =      0.03079 [cm^-1]
  Rotational constants: A =   3592.42416  B =   1190.89299  C =    923.17502 [MHz]
  Nuclear repulsion =  415.142674956183782

  Charge       = 1
  Multiplicity = 1
  Electrons    = 64
  Nalpha       = 32
  Nbeta        = 32

  ==> Algorithm <==

  SCF Algorithm Type is DF.
  DIIS enabled.
  MOM disabled.
  Fractional occupation disabled.
  Guess Type is READ.
  Energy threshold   = 1.00e-08
  Density threshold  = 1.00e-08
  Integral threshold = 0.00e+00

  ==> Primary Basis <==

  Basis Set: 6-31G*
    Blend: 6-31G*
    Number of shells: 72
    Number of basis function: 153
    Number of Cartesian functions: 153
    Spherical Harmonics?: false
    Max angular momentum: 2

  ==> DFT Potential <==

   => Composite Functional: B3LYP-D3ZERO <= 

    B3LYP-d3zero Hyb-GGA Exchange-Correlation Functional

    P. J. Stephens, F. J. Devlin, C. F. Chabalowski, and M. J. Frisch, J. Phys. Chem. 98, 11623 (1994)

    Deriv               =              1
    GGA                 =           TRUE
    Meta                =          FALSE

    Exchange Hybrid     =           TRUE
    MP2 Hybrid          =          FALSE

   => Exchange Functionals <=

    0.0800   Slater exchange
    0.7200         Becke 88

   => Exact (HF) Exchange <=

    0.2000               HF 

   => Correlation Functionals <=

    0.1900   Vosko, Wilk & Nusair (VWN5_RPA)
    0.8100   Lee, Yang & Parr

   => Molecular Quadrature <=

    Radial Scheme       =       TREUTLER
    Pruning Scheme      =           FLAT
    Nuclear Scheme      =       TREUTLER

    BS radius alpha     =              1
    Pruning alpha       =              1
    Radial Points       =             75
    Spherical Points    =            302
    Total Points        =         396923
    Total Blocks        =           3014
    Max Points          =            256
    Max Functions       =            149

   => -D3ZERO: Empirical Dispersion <=

    Grimme's -D3 (zero-damping) Dispersion Correction
    Grimme S.; Antony J.; Ehrlich S.; Krieg H. (2010), J. Chem. Phys., 132: 154104

        S6 =   1.000000E+00
        S8 =   1.703000E+00
       SR6 =   1.261000E+00
       SR8 =   1.000000E+00
    ALPHA6 =   1.400000E+01

   => Loading Basis Set <=

    Name: (6-31G* AUX)
    Role: JKFIT
    Keyword: DF_BASIS_SCF
    atoms 1-7         entry C          line   121 file /shared/joao/test_parameterize/miniconda3/share/psi4/basis/cc-pvdz-jkfit.gbs 
    atoms 8-12, 15-18 entry H          line    51 file /shared/joao/test_parameterize/miniconda3/share/psi4/basis/cc-pvdz-jkfit.gbs 
    atoms 13-14       entry N          line   171 file /shared/joao/test_parameterize/miniconda3/share/psi4/basis/cc-pvdz-jkfit.gbs 

  Reading orbitals from file 180, no projection.

  ==> Pre-Iterations <==

   -------------------------------------------------------
    Irrep   Nso     Nmo     Nalpha   Nbeta   Ndocc  Nsocc
   -------------------------------------------------------
     A        153     153       0       0       0       0
   -------------------------------------------------------
    Total     153     153      32      32      32       0
   -------------------------------------------------------

  ==> Integral Setup <==

  ==> DiskDFJK: Density-Fitted J/K Matrices <==

    J tasked:                  Yes
    K tasked:                  Yes
    wK tasked:                  No
    OpenMP threads:              4
    Integrals threads:           4
    Memory (MB):              2002
    Algorithm:                Core
    Integral Cache:           NONE
    Schwarz Cutoff:          1E-12
    Fitting Condition:       1E-12

   => Auxiliary Basis Set <=

  Basis Set: (6-31G* AUX)
    Blend: CC-PVDZ-JKFIT
    Number of shells: 297
    Number of basis function: 954
    Number of Cartesian functions: 954
    Spherical Harmonics?: false
    Max angular momentum: 3

  Minimum eigenvalue in the overlap matrix is 4.9133597459E-04.
  Using Symmetric Orthogonalization.

  SCF Guess: Orbitals guess was supplied from a previous computation.

  ==> Iterations <==

                           Total Energy        Delta E     RMS |[F,P]|

   @DF-RKS iter   0:  -381.36484423435905   -3.81365e+02   3.51779e-03 
   @DF-RKS iter   1:  -381.43368080748758   -6.88366e-02   5.78357e-04 
   @DF-RKS iter   2:  -381.43243500363462    1.24580e-03   8.94632e-04 DIIS
   @DF-RKS iter   3:  -381.43494925575220   -2.51425e-03   1.44798e-04 DIIS
   @DF-RKS iter   4:  -381.43500136776760   -5.21120e-05   6.12855e-05 DIIS
   @DF-RKS iter   5:  -381.43501276624556   -1.13985e-05   2.27722e-05 DIIS
   @DF-RKS iter   6:  -381.43501433734946   -1.57110e-06   7.91828e-06 DIIS
   @DF-RKS iter   7:  -381.43501450563576   -1.68286e-07   2.71451e-06 DIIS
   @DF-RKS iter   8:  -381.43501452687786   -2.12421e-08   7.40919e-07 DIIS
   @DF-RKS iter   9:  -381.43501452839666   -1.51880e-09   2.59504e-07 DIIS
   @DF-RKS iter  10:  -381.43501452859198   -1.95314e-10   1.19947e-07 DIIS
   @DF-RKS iter  11:  -381.43501452863870   -4.67253e-11   3.95544e-08 DIIS
   @DF-RKS iter  12:  -381.43501452864280   -4.09273e-12   8.85056e-09 DIIS

  ==> Post-Iterations <==

    Orbital Energies [Eh]
    ---------------------

    Doubly Occupied:                                                      

       1A    -14.585039     2A    -14.526405     3A    -10.503397  
       4A    -10.375494     5A    -10.363158     6A    -10.359387  
       7A    -10.349263     8A    -10.345218     9A    -10.343361  
      10A     -1.172276    11A     -1.071112    12A     -1.016018  
      13A     -0.926896    14A     -0.905909    15A     -0.841857  
      16A     -0.777954    17A     -0.769643    18A     -0.736547  
      19A     -0.717848    20A     -0.698244    21A     -0.668877  
      22A     -0.632458    23A     -0.606118    24A     -0.586860  
      25A     -0.580138    26A     -0.564501    27A     -0.516477  
      28A     -0.511030    29A     -0.501454    30A     -0.446770  
      31A     -0.411271    32A     -0.408164  

    Virtual:                                                              

      33A     -0.250602    34A     -0.157743    35A     -0.141658  
      36A     -0.106785    37A     -0.077726    38A     -0.058296  
      39A     -0.036885    40A     -0.016124    41A      0.006102  
      42A      0.018883    43A      0.025869    44A      0.059464  
      45A      0.067081    46A      0.086625    47A      0.122076  
      48A      0.125322    49A      0.153005    50A      0.171786  
      51A      0.210220    52A      0.230307    53A      0.296488  
      54A      0.350375    55A      0.365441    56A      0.378741  
      57A      0.391063    58A      0.400993    59A      0.414107  
      60A      0.419580    61A      0.434668    62A      0.445892  
      63A      0.455342    64A      0.468267    65A      0.470516  
      66A      0.479772    67A      0.482771    68A      0.496328  
      69A      0.525104    70A      0.549216    71A      0.561711  
      72A      0.582021    73A      0.613503    74A      0.637051  
      75A      0.666725    76A      0.679993    77A      0.693326  
      78A      0.699102    79A      0.714153    80A      0.727441  
      81A      0.738636    82A      0.754822    83A      0.772246  
      84A      0.788142    85A      0.815310    86A      0.833727  
      87A      0.851846    88A      0.900838    89A      0.953966  
      90A      0.966122    91A      0.996248    92A      1.022247  
      93A      1.053535    94A      1.088741    95A      1.129014  
      96A      1.145667    97A      1.240278    98A      1.270435  
      99A      1.283660   100A      1.300278   101A      1.323122  
     102A      1.336336   103A      1.355517   104A      1.371015  
     105A      1.415711   106A      1.451746   107A      1.524667  
     108A      1.575191   109A      1.616909   110A      1.647342  
     111A      1.710380   112A      1.724754   113A      1.744573  
     114A      1.781377   115A      1.796945   116A      1.820991  
     117A      1.890092   118A      1.939921   119A      1.960405  
     120A      1.974736   121A      1.995072   122A      1.999895  
     123A      2.017380   124A      2.034443   125A      2.115136  
     126A      2.119178   127A      2.148633   128A      2.180894  
     129A      2.195126   130A      2.300848   131A      2.336774  
     132A      2.416568   133A      2.439701   134A      2.455632  
     135A      2.477161   136A      2.505834   137A      2.537038  
     138A      2.587473   139A      2.593450   140A      2.618429  
     141A      2.729148   142A      2.812291   143A      2.981108  
     144A      3.247885   145A      3.612494   146A      3.672286  
     147A      3.904595   148A      3.940731   149A      3.960390  
     150A      4.035960   151A      4.167166   152A      4.248787  
     153A      4.540632  

    Final Occupation by Irrep:
              A 
    DOCC [    32 ]

  Energy converged.

  @DF-RKS Final Energy:  -381.43501452864280

   => Energetics <=

    Nuclear Repulsion Energy =            415.1426749561837823
    One-Electron Energy =               -1325.5905432734591614
    Two-Electron Energy =                 573.3996500039463626
    DFT Exchange-Correlation Energy =     -44.3750613553137896
    Empirical Dispersion Energy =          -0.0117348600000000
    VV10 Nonlocal Energy =                  0.0000000000000000
    Total Energy =                       -381.4350145286427960



Properties will be evaluated at   0.000000,   0.000000,   0.000000 [a0]

Properties computed using the SCF density matrix

  Nuclear Dipole Moment: [e a0]
     X:     1.6322      Y:    -0.7094      Z:    -0.3040

  Electronic Dipole Moment: [e a0]
     X:    -1.5021      Y:     0.9746      Z:    -1.6727

  Dipole Moment: [e a0]
     X:     0.1301      Y:     0.2652      Z:    -1.9767     Total:     1.9987

  Dipole Moment: [D]
     X:     0.3307      Y:     0.6741      Z:    -5.0243     Total:     5.0801


*** tstop() called on green.prib.upf.edu at Sat Sep 29 20:35:41 2018
Module time:
	user time   =      88.97 seconds =       1.48 minutes
	system time =       0.38 seconds =       0.01 minutes
	total time  =         24 seconds =       0.40 minutes
Total time:
	user time   =     222.40 seconds =       3.71 minutes
	system time =       1.27 seconds =       0.02 minutes
	total time  =         60 seconds =       1.00 minutes

*** tstart() called on green.prib.upf.edu
*** at Sat Sep 29 20:35:41 2018


         ------------------------------------------------------------
                                   SCF GRAD                          
                          Rob Parrish, Justin Turney,                
                       Andy Simmonett, and Alex Sokolov              
         ------------------------------------------------------------

  ==> Geometry <==

    Molecular point group: c1
    Full point group: C1

    Geometry (in Angstrom), charge = 1, multiplicity = 1:

       Center              X                  Y                   Z               Mass       
    ------------   -----------------  -----------------  -----------------  -----------------
         C            0.038160572063    -0.018525831198    -0.177198794488    12.000000000000
         C            0.133950174402     1.206664022126     0.520648747800    12.000000000000
         C            0.101399405416     1.212185960539     1.911043996884    12.000000000000
         C            0.006014659546     0.004495812747     2.612799610870    12.000000000000
         C           -0.078403280069    -1.213867904269     1.925935982687    12.000000000000
         C           -0.079576058082    -1.231155416398     0.537093668155    12.000000000000
         C            0.039464060429    -0.031300592933    -1.640730377717    12.000000000000
         H            0.169288321488     2.149933575148    -0.020098787996     1.007825032070
         H            0.144121252316     2.155316689713     2.447218448486     1.007825032070
         H           -0.012345317780     0.012349575021     3.698491330543     1.007825032070
         H           -0.151593425120    -2.148654920254     2.475749717420     1.007825032070
         H           -0.141929475955    -2.181594337920     0.010901701475     1.007825032070
         N           -0.638716473756    -0.974114378375    -2.374838887646    14.003074004780
         N            0.635227773825     0.972222102302    -2.277374077432    14.003074004780
         H            0.584093832802     1.049534156173    -3.289047846299     1.007825032070
         H            1.158271599774     1.710879535491    -1.770365667236     1.007825032070
         H           -1.463170020563    -0.731199910690    -2.911297401239     1.007825032070
         H           -0.364664600737    -1.949692137225    -2.374479364266     1.007825032070

  Nuclear repulsion =  415.142674956183782

  ==> Basis Set <==

  Basis Set: 6-31G*
    Blend: 6-31G*
    Number of shells: 72
    Number of basis function: 153
    Number of Cartesian functions: 153
    Spherical Harmonics?: false
    Max angular momentum: 2

  ==> DFJKGrad: Density-Fitted SCF Gradients <==

    Gradient:                    1
    J tasked:                  Yes
    K tasked:                  Yes
    wK tasked:                  No
    OpenMP threads:              4
    Integrals threads:           4
    Memory (MB):              2002
    Schwarz Cutoff:          0E+00
    Fitting Condition:       1E-12

   => Auxiliary Basis Set <=

  Basis Set: (6-31G* AUX)
    Blend: CC-PVDZ-JKFIT
    Number of shells: 297
    Number of basis function: 954
    Number of Cartesian functions: 954
    Spherical Harmonics?: false
    Max angular momentum: 3

  ==> DFT Potential <==

   => Composite Functional: B3LYP-D3ZERO <= 

    B3LYP-d3zero Hyb-GGA Exchange-Correlation Functional

    P. J. Stephens, F. J. Devlin, C. F. Chabalowski, and M. J. Frisch, J. Phys. Chem. 98, 11623 (1994)

    Deriv               =              1
    GGA                 =           TRUE
    Meta                =          FALSE

    Exchange Hybrid     =           TRUE
    MP2 Hybrid          =          FALSE

   => Exchange Functionals <=

    0.0800   Slater exchange
    0.7200         Becke 88

   => Exact (HF) Exchange <=

    0.2000               HF 

   => Correlation Functionals <=

    0.1900   Vosko, Wilk & Nusair (VWN5_RPA)
    0.8100   Lee, Yang & Parr

   => Molecular Quadrature <=

    Radial Scheme       =       TREUTLER
    Pruning Scheme      =           FLAT
    Nuclear Scheme      =       TREUTLER

    BS radius alpha     =              1
    Pruning alpha       =              1
    Radial Points       =             75
    Spherical Points    =            302
    Total Points        =         396923
    Total Blocks        =           3014
    Max Points          =            256
    Max Functions       =            149


  -Total Gradient:
     Atom            X                  Y                   Z
    ------   -----------------  -----------------  -----------------
       1       -0.006547695956     0.008182382438     0.003164988207
       2       -0.001417655630     0.001975732955    -0.001864945306
       3       -0.000192598894    -0.000143572602     0.001309879060
       4        0.000071907445     0.000856020823     0.000579961415
       5        0.000034365863     0.000339826649    -0.000925245607
       6        0.000970318769    -0.001021261563     0.000434191368
       7       -0.000102142588    -0.013205648313    -0.005357704739
       8        0.000703077865     0.000307980539    -0.002400743080
       9        0.000207095900     0.000443819172     0.000089345149
      10        0.000014122719    -0.000091790282     0.000139976942
      11       -0.000231089763    -0.001309062127     0.000309219499
      12        0.001022836576    -0.002286522052    -0.000609696209
      13       -0.005733765954     0.001101506171     0.005643075261
      14        0.001471680079    -0.006159032245    -0.005621284643
      15       -0.001038677387     0.001708255432    -0.000249341353
      16        0.011434915520     0.013192136989     0.009314912288
      17       -0.006171034266    -0.002379698226     0.004597694150
      18        0.005500991342    -0.001513450240    -0.008552080908


*** tstop() called on green.prib.upf.edu at Sat Sep 29 20:35:48 2018
Module time:
	user time   =      25.20 seconds =       0.42 minutes
	system time =       0.21 seconds =       0.00 minutes
	total time  =          7 seconds =       0.12 minutes
Total time:
	user time   =     247.65 seconds =       4.13 minutes
	system time =       1.49 seconds =       0.02 minutes
	total time  =         67 seconds =       1.12 minutes

			-----------------------------------------
			 OPTKING 2.0: for geometry optimizations 
			  - R.A. King,  Bethel University        
			-----------------------------------------
	At level 1: Red. Int., RFO, no backsteps, dynamic trust

	Previous internal coordinate definitions found.
	---Fragment 1 Geometry and Gradient---
	 C           0.0721130303       -0.0350087473       -0.3348571927
	 C           0.2531291451        2.2802645362        0.9838835448
	 C           0.1916171063        2.2906994875        3.6113497820
	 C           0.0113660593        0.0084958548        4.9374757047
	 C          -0.1481607273       -2.2938779006        3.6394915567
	 C          -0.1503769565       -2.3265465640        1.0149599405
	 C           0.0745762663       -0.0591495484       -3.1005310718
	 H           0.3199085651        4.0627856609       -0.0379812049
	 H           0.2723496968        4.0729582732        4.6245726550
	 H          -0.0233292696        0.0233373146        6.9891357196
	 H          -0.2864700570       -4.0603693534        4.6784889395
	 H          -0.2682078397       -4.1226158317        0.0206012302
	 N          -1.2069992120       -1.8408093972       -4.4877951074
	 N           1.2004065245        1.8372335137       -4.3036133085
	 H           1.1037773799        1.9833321223       -6.2153996675
	 H           2.1888161111        3.2330937684       -3.3455062661
	 H          -2.7649906247       -1.3817675796       -5.5015547797
	 H          -0.6891162258       -3.6843841828       -4.4871157067
	            -0.0065476960        0.0081823824        0.0031649882
	            -0.0014176556        0.0019757330       -0.0018649453
	            -0.0001925989       -0.0001435726        0.0013098791
	             0.0000719074        0.0008560208        0.0005799614
	             0.0000343659        0.0003398266       -0.0009252456
	             0.0009703188       -0.0010212616        0.0004341914
	            -0.0001021426       -0.0132056483       -0.0053577047
	             0.0007030779        0.0003079805       -0.0024007431
	             0.0002070959        0.0004438192        0.0000893451
	             0.0000141227       -0.0000917903        0.0001399769
	            -0.0002310898       -0.0013090621        0.0003092195
	             0.0010228366       -0.0022865221       -0.0006096962
	            -0.0057337660        0.0011015062        0.0056430753
	             0.0014716801       -0.0061590322       -0.0056212846
	            -0.0010386774        0.0017082554       -0.0002493414
	             0.0114349155        0.0131921370        0.0093149123
	            -0.0061710343       -0.0023796982        0.0045976942
	             0.0055009913       -0.0015134502       -0.0085520809

	---Fragment 1 Intrafragment Coordinates---
	 - Coordinate -           - BOHR/RAD -       - ANG/DEG -
	 R(1,2)           =         2.670643	       1.413243
	 R(1,6)           =         2.668830	       1.412284
	 R(1,7)           =         2.765780	       1.463588
	 R(2,3)           =         2.628207	       1.390787
	 R(2,8)           =         2.055736	       1.087848
	 R(3,4)           =         2.645667	       1.400027
	 R(3,9)           =         2.051727	       1.085727
	 R(4,5)           =         2.647855	       1.401185
	 R(4,10)          =         2.052007	       1.085875
	 R(5,6)           =         2.624736	       1.388950
	 R(5,11)          =         2.054054	       1.086958
	 R(6,12)          =         2.056331	       1.088164
	 R(7,13)          =         2.596392	       1.373951
	 R(7,14)          =         2.512204	       1.329401
	 R(13,17)         =         1.914619	       1.013173
	 R(13,18)         =         1.914934	       1.013339
	 R(14,15)         =         1.919794	       1.015911
	 R(14,16)         =         1.960446	       1.037423
	 B(1,2,3)         =         2.089216	     119.703254
	 B(1,2,8)         =         2.104196	     120.561579
	 B(1,6,5)         =         2.088602	     119.668066
	 B(1,6,12)        =         2.106171	     120.674695
	 B(1,7,13)        =         2.141036	     122.672335
	 B(1,7,14)        =         2.063134	     118.208858
	 B(2,1,6)         =         2.094720	     120.018618
	 B(2,1,7)         =         2.095873	     120.084656
	 B(2,3,4)         =         2.093556	     119.951904
	 B(2,3,9)         =         2.090045	     119.750744
	 B(3,2,8)         =         2.087777	     119.620793
	 B(3,4,5)         =         2.104194	     120.561435
	 B(3,4,10)        =         2.089866	     119.740505
	 B(4,3,9)         =         2.099567	     120.296310
	 B(4,5,6)         =         2.095593	     120.068653
	 B(4,5,11)        =         2.098895	     120.257817
	 B(5,4,10)        =         2.089080	     119.695439
	 B(5,6,12)        =         2.087989	     119.632930
	 B(6,1,7)         =         2.092469	     119.889670
	 B(6,5,11)        =         2.088663	     119.671566
	 B(7,13,17)       =         2.117696	     121.335051
	 B(7,13,18)       =         2.125810	     121.799914
	 B(7,14,15)       =         2.108060	     120.782965
	 B(7,14,16)       =         2.128658	     121.963131
	 B(13,7,14)       =         2.075243	     118.902649
	 B(15,14,16)      =         2.046397	     117.249891
	 B(17,13,18)      =         2.038771	     116.812971
	 D(1,2,3,4)       =         0.026328	       1.508458
	 D(1,2,3,9)       =        -3.108805	    -178.121382
	 D(1,6,5,4)       =         0.027392	       1.569459
	 D(1,6,5,11)      =        -3.123075	    -178.938997
	*D(1,7,13,17)     =         1.919863	     110.000024
	 D(1,7,13,18)     =        -1.174462	     -67.291726
	 D(1,7,14,15)     =        -3.039923	    -174.174759
	 D(1,7,14,16)     =         0.088598	       5.076273
	 D(2,1,6,5)       =        -0.018427	      -1.055811
	 D(2,1,6,12)      =        -3.128605	    -179.255878
	 D(2,1,7,13)      =        -2.593234	    -148.581353
	 D(2,1,7,14)      =         0.454008	      26.012747
	 D(2,3,4,5)       =        -0.017535	      -1.004656
	 D(2,3,4,10)      =         3.134370	     179.586164
	 D(3,2,1,6)       =        -0.008528	      -0.488625
	 D(3,2,1,7)       =         3.116182	     178.544095
	 D(3,4,5,6)       =        -0.009667	      -0.553856
	 D(3,4,5,11)      =         3.140853	     179.957609
	 D(4,3,2,8)       =         3.100452	     177.642842
	 D(4,5,6,12)      =         3.137900	     179.788445
	 D(5,4,3,9)       =         3.117562	     178.623141
	 D(5,6,1,7)       =         3.140014	     179.909571
	 D(6,1,2,8)       =        -3.082007	    -176.585995
	 D(6,1,7,13)      =         0.531499	      30.452621
	 D(6,1,7,14)      =        -2.704445	    -154.953279
	 D(6,5,4,10)      =         3.121619	     178.855590
	 D(7,1,2,8)       =         0.042703	       2.446726
	 D(7,1,6,12)      =         0.029836	       1.709504
	 D(8,2,3,9)       =        -0.034680	      -1.986998
	 D(9,3,4,10)      =        -0.013719	      -0.786039
	 D(10,4,5,11)     =        -0.011047	      -0.632946
	 D(11,5,6,12)     =        -0.012567	      -0.720011
	 D(13,7,14,15)    =         0.010958	       0.627842
	 D(13,7,14,16)    =         3.139479	     179.878874
	 D(14,7,13,17)    =        -1.126754	     -64.558225
	 D(14,7,13,18)    =         2.062107	     118.150025

	Current energy   :      -381.4350145286

	Energy change for the previous step:
		Projected    :        -0.0170780679
		Actual       :        -0.0080725165

	Performing BFGS update.
	Previous computed or guess Hessian on step 1.
	Steps to be used in Hessian update: 1
	Taking RFO optimization step.
	Going to follow RFO solution 1.
	Using RFO vector 1.

	Determining step-restricting scale parameter for RS-RFO.
	Maximum step size allowed    0.50000

	 Iter      |step|        alpha        rfo_root  
	------------------------------------------------
	    0     0.57307       1.00000           1
	    1     0.51190       1.39659           1
	    2     0.50041       1.48825           1
	    3     0.50000       1.49162           1
	------------------------------------------------
	Norm of target step-size    0.50000
	Projected energy change by RFO approximation:        -0.0022095328

	Back-transformation to cartesian coordinates...
	Could not converge backtransformation.
	Using first guess instead.

	Back-transformation to cartesian coordinates to adjust frozen coordinates...
	Successfully converged to displaced geometry.

	--- Internal Coordinate Step in ANG or DEG, aJ/ANG or AJ/DEG ---
	 ---------------------------------------------------------------------------
	   Coordinate                Previous        Force       Change         New 
	   ----------                --------       ------       ------       ------
	    1 R(1,2)          =      1.413243     0.003491     0.003437     1.416681
	    2 R(1,6)          =      1.412284    -0.013384     0.001305     1.413589
	    3 R(1,7)          =      1.463588    -0.002420    -0.001611     1.461977
	    4 R(2,3)          =      1.390787    -0.011545    -0.001483     1.389304
	    5 R(2,8)          =      1.087848    -0.012223    -0.000766     1.087082
	    6 R(3,4)          =      1.400027    -0.009884     0.000185     1.400212
	    7 R(3,9)          =      1.085727    -0.003608    -0.000113     1.085615
	    8 R(4,5)          =      1.401185    -0.018350    -0.000742     1.400442
	    9 R(4,10)         =      1.085875    -0.001145     0.000104     1.085979
	   10 R(5,6)          =      1.388950    -0.000941    -0.000735     1.388216
	   11 R(5,11)         =      1.086958    -0.010689    -0.000131     1.086827
	   12 R(6,12)         =      1.088164    -0.018398    -0.000987     1.087177
	   13 R(7,13)         =      1.373951    -0.034394     0.014934     1.388885
	   14 R(7,14)         =      1.329401    -0.084592    -0.004588     1.324813
	   15 R(13,17)        =      1.013173    -0.016614    -0.000589     1.012584
	   16 R(13,18)        =      1.013339    -0.024238     0.018448     1.031787
	   17 R(14,15)        =      1.015911    -0.003550     0.004013     1.019924
	   18 R(14,16)        =      1.037423    -0.162387    -0.001335     1.036089
	   19 B(1,2,3)        =    119.703254     0.000080     0.242607   119.945861
	   20 B(1,2,8)        =    120.561579     0.000108     0.581524   121.143103
	   21 B(1,6,5)        =    119.668066     0.000145     0.468956   120.137023
	   22 B(1,6,12)       =    120.674695    -0.000113    -0.288017   120.386678
	   23 B(1,7,13)       =    122.672335    -0.000114     0.610482   123.282817
	   24 B(1,7,14)       =    118.208858     0.001045     2.403172   120.612030
	   25 B(2,1,6)        =    120.018618    -0.000203    -0.639631   119.378986
	   26 B(2,1,7)        =    120.084656     0.000450     1.391449   121.476105
	   27 B(2,3,4)        =    119.951904     0.000042     0.101856   120.053760
	   28 B(2,3,9)        =    119.750744    -0.000009    -0.029000   119.721744
	   29 B(3,2,8)        =    119.620793    -0.000189    -0.864661   118.756132
	   30 B(3,4,5)        =    120.561435    -0.000048    -0.101919   120.459516
	   31 B(3,4,10)       =    119.740505     0.000017     0.047002   119.787507
	   32 B(4,3,9)        =    120.296310    -0.000033    -0.074352   120.221958
	   33 B(4,5,6)        =    120.068653    -0.000016    -0.095114   119.973539
	   34 B(4,5,11)       =    120.257817    -0.000023    -0.054908   120.202910
	   35 B(5,4,10)       =    119.695439     0.000031     0.047820   119.743259
	   36 B(5,6,12)       =    119.632930    -0.000032    -0.161746   119.471184
	   37 B(6,1,7)        =    119.889670    -0.000248    -0.768987   119.120683
	   38 B(6,5,11)       =    119.671566     0.000040     0.144669   119.816234
	   39 B(7,13,17)      =    121.335051    -0.000065     0.046170   121.381221
	   40 B(7,13,18)      =    121.799914    -0.000095    -2.132163   119.667751
	   41 B(7,14,15)      =    120.782965    -0.000071    -1.390806   119.392159
	   42 B(7,14,16)      =    121.963131     0.000019     1.057346   123.020477
	   43 B(13,7,14)      =    118.902649    -0.000932    -3.141982   115.760667
	   44 B(15,14,16)     =    117.249891     0.000052     0.306766   117.556657
	   45 B(17,13,18)     =    116.812971     0.000136    -0.269848   116.543123
	   46 D(1,2,3,4)      =      1.508458    -0.000001     0.120778     1.629236
	   47 D(1,2,3,9)      =   -178.121382     0.000001     0.328804  -177.792579
	   48 D(1,6,5,4)      =      1.569459     0.000003     0.582347     2.151806
	   49 D(1,6,5,11)     =   -178.938997     0.000001     0.108897  -178.830099
	   50 *D(1,7,13,17)   =    110.000024     0.000000    -0.000000   110.000024
	   51 D(1,7,13,18)    =    -67.291726     0.000143    15.511410   -51.780316
	   52 D(1,7,14,15)    =   -174.174759    -0.000023    -2.307628  -176.482386
	   53 D(1,7,14,16)    =      5.076273    -0.000023    -3.625067     1.451206
	   54 D(2,1,6,5)      =     -1.055811    -0.000006    -0.946571    -2.002382
	   55 D(2,1,6,12)     =   -179.255878    -0.000013    -1.919377  -181.175255
	   56 D(2,1,7,13)     =   -148.581353    -0.000022    -5.110926  -153.692279
	   57 D(2,1,7,14)     =     26.012747    -0.000037    -6.733847    19.278900
	   58 D(2,3,4,5)      =     -1.004656    -0.000002    -0.494132    -1.498788
	   59 D(2,3,4,10)     =    179.586164     0.000001     0.051948   179.638112
	   60 D(3,2,1,6)      =     -0.488625     0.000005     0.592439     0.103814
	   61 D(3,2,1,7)      =    178.544095    -0.000001    -0.246671   178.297425
	   62 D(3,4,5,6)      =     -0.553856     0.000002     0.146644    -0.407211
	   63 D(3,4,5,11)     =    179.957609     0.000004     0.620921   180.578529
	   64 D(4,3,2,8)      =    177.642842    -0.000004    -0.485002   177.157840
	   65 D(4,5,6,12)     =    179.788445     0.000009     1.543808   181.332253
	   66 D(5,4,3,9)      =    178.623141    -0.000005    -0.703033   177.920108
	   67 D(5,6,1,7)      =    179.909571    -0.000001    -0.148460   179.761111
	   68 D(6,1,2,8)      =   -176.585995     0.000011     1.270084  -175.315910
	   69 D(6,1,7,13)     =     30.452621    -0.000028    -5.946733    24.505888
	   70 D(6,1,7,14)     =   -154.953279    -0.000043    -7.569654  -162.522934
	   71 D(6,5,4,10)     =    178.855590    -0.000001    -0.399199   178.456391
	   72 D(7,1,2,8)      =      2.446726     0.000005     0.430974     2.877700
	   73 D(7,1,6,12)     =      1.709504    -0.000008    -1.121265     0.588238
	   74 D(8,2,3,9)      =     -1.986998    -0.000002    -0.276976    -2.263974
	   75 D(9,3,4,10)     =     -0.786039    -0.000001    -0.156953    -0.942992
	   76 D(10,4,5,11)    =     -0.632946     0.000000     0.075078    -0.557869
	   77 D(11,5,6,12)    =     -0.720011     0.000007     1.070358     0.350348
	   78 D(13,7,14,15)   =      0.627842    -0.000028    -3.632252    -3.004410
	   79 D(13,7,14,16)   =    179.878874    -0.000028    -4.949692   174.929183
	   80 D(14,7,13,17)   =    -64.558225    -0.000009     1.273561   -63.284664
	   81 D(14,7,13,18)   =    118.150025     0.000134    16.784971   134.934996
	 ---------------------------------------------------------------------------
	Successfully symmetrized geometry.

  ==> Convergence Check <==

  Measures of convergence in internal coordinates in au.
  Criteria marked as inactive (o), active & met (*), and active & unmet ( ).
  ---------------------------------------------------------------------------------------------
   Step     Total Energy     Delta E     MAX Force     RMS Force      MAX Disp      RMS Disp   
  ---------------------------------------------------------------------------------------------
    Convergence Criteria    1.00e-06 *    3.00e-04 *             o    1.20e-03 *             o
  ---------------------------------------------------------------------------------------------
      2    -381.43501453   -8.07e-03      1.97e-02      3.71e-03 o    2.93e-01      5.46e-02 o  ~
  ---------------------------------------------------------------------------------------------

	Writing optimization data to binary file.
	Structure for next step:
	Cartesian Geometry (in Angstrom)
	    C     0.0687897828   0.0049817710  -0.1783522812
	    C     0.1944820952   1.2145880802   0.5483098214
	    C     0.1440480623   1.1980624054   1.9365996097
	    C     0.0033824759  -0.0166095239   2.6187861040
	    C    -0.1188799566  -1.2185706062   1.9105626624
	    C    -0.1095172207  -1.2096691491   0.5224071282
	    C     0.0802394681  -0.0120645024  -1.6401849874
	    H     0.2569397985   2.1727472774   0.0386260607
	    H     0.2046625167   2.1309360907   2.4885344469
	    H    -0.0296385586  -0.0250819052   3.7042303126
	    H    -0.2372808358  -2.1579603693   2.4441557538
	    H    -0.2268392595  -2.1449570528  -0.0192802648
	    N    -0.5385625521  -0.9995727939  -2.3957731477
	    N     0.5768475822   1.0089262739  -2.3228918539
	    H     0.5266337920   1.0017192618  -3.3415534636
	    H     0.9930579842   1.8423435318  -1.8693899466
	    H    -1.3689121766  -0.8035639627  -2.9411406402
	    H    -0.3398599981  -1.9927788266  -2.1991933144
			--------------------------
			 OPTKING Finished Execution 
			--------------------------

    Structure for next step:
    Molecular point group: c1
    Full point group: C1

    Geometry (in Angstrom), charge = 1, multiplicity = 1:

    C            0.068789782779     0.004981770964    -0.178352281191
    C            0.194482095224     1.214588080160     0.548309821433
    C            0.144048062259     1.198062405404     1.936599609665
    C            0.003382475909    -0.016609523882     2.618786103996
    C           -0.118879956608    -1.218570606174     1.910562662399
    C           -0.109517220655    -1.209669149142     0.522407128162
    C            0.080239468107    -0.012064502421    -1.640184987380
    H            0.256939798501     2.172747277382     0.038626060738
    H            0.204662516731     2.130936090728     2.488534446925
    H           -0.029638558623    -0.025081905242     3.704230312595
    H           -0.237280835765    -2.157960369257     2.444155753840
    H           -0.226839259520    -2.144957052798    -0.019280264811
    N           -0.538562552068    -0.999572793937    -2.395773147716
    N            0.576847582185     1.008926273933    -2.322891853920
    H            0.526633792049     1.001719261807    -3.341553463584
    H            0.993057984169     1.842343531760    -1.869389946576
    H           -1.368912176601    -0.803563962656    -2.941140640182
    H           -0.339859998071    -1.992778826629    -2.199193314391

gradient() will perform analytic gradient computation.

*** tstart() called on green.prib.upf.edu
*** at Sat Sep 29 20:35:48 2018

   => Loading Basis Set <=

    Name: 6-31G*
    Role: ORBITAL
[...]
    Fitting Condition:       1E-12

   => Auxiliary Basis Set <=

  Basis Set: (6-31G* AUX)
    Blend: CC-PVDZ-JKFIT
    Number of shells: 297
    Number of basis function: 954
    Number of Cartesian functions: 954
    Spherical Harmonics?: false
    Max angular momentum: 3

  Minimum eigenvalue in the overlap matrix is 4.7461571064E-04.
  Using Symmetric Orthogonalization.

  SCF Guess: Orbitals guess was supplied from a previous computation.

  ==> Iterations <==

                           Total Energy        Delta E     RMS |[F,P]|

   @DF-RKS iter   0:  -381.45406829279653   -3.81454e+02   7.37154e-05 
   @DF-RKS iter   1:  -381.45408925306157   -2.09603e-05   2.12543e-05 
   @DF-RKS iter   2:  -381.45408541542878    3.83763e-06   3.41905e-05 DIIS
   @DF-RKS iter   3:  -381.45409159644697   -6.18102e-06   3.19307e-06 DIIS
   @DF-RKS iter   4:  -381.45409164294432   -4.64973e-08   1.19779e-06 DIIS
   @DF-RKS iter   5:  -381.45409165102348   -8.07916e-09   2.86797e-07 DIIS
   @DF-RKS iter   6:  -381.45409165149215   -4.68674e-10   1.13191e-07 DIIS
   @DF-RKS iter   7:  -381.45409165156872   -7.65681e-11   3.17101e-08 DIIS
   @DF-RKS iter   8:  -381.45409165157463   -5.91172e-12   9.69511e-09 DIIS

  ==> Post-Iterations <==

    Orbital Energies [Eh]
    ---------------------

    Doubly Occupied:                                                      

       1A    -14.573388     2A    -14.543798     3A    -10.497193  
       4A    -10.381817     5A    -10.367549     6A    -10.367460  
       7A    -10.355270     8A    -10.349353     9A    -10.348895  
      10A     -1.179894    11A     -1.081093    12A     -1.022489  
      13A     -0.932252    14A     -0.911992    15A     -0.844848  
      16A     -0.785758    17A     -0.775134    18A     -0.739232  
      19A     -0.723711    20A     -0.680914    21A     -0.673361  
      22A     -0.638695    23A     -0.612245    24A     -0.592976  
      25A     -0.586776    26A     -0.573193    27A     -0.522589  
      28A     -0.516551    29A     -0.506505    30A     -0.467523  
      31A     -0.421289    32A     -0.414616  

    Virtual:                                                              

      33A     -0.245191    34A     -0.162012    35A     -0.129529  
      36A     -0.105398    37A     -0.074551    38A     -0.056933  
      39A     -0.037816    40A     -0.028396    41A      0.006192  
      42A      0.020652    43A      0.020918    44A      0.060815  
      45A      0.069104    46A      0.085307    47A      0.102000  
      48A      0.117966    49A      0.148438    50A      0.182049  
      51A      0.229763    52A      0.233083    53A      0.296272  
      54A      0.346490    55A      0.369212    56A      0.372025  
      57A      0.388258    58A      0.393535    59A      0.411198  
      60A      0.417924    61A      0.432035    62A      0.446063  
      63A      0.449299    64A      0.465500    65A      0.465986  
      66A      0.475914    67A      0.480303    68A      0.497712  
      69A      0.519411    70A      0.538377    71A      0.577103  
      72A      0.598730    73A      0.640656    74A      0.646028  
      75A      0.656841    76A      0.677596    77A      0.696909  
      78A      0.701332    79A      0.712395    80A      0.724132  
      81A      0.766618    82A      0.770267    83A      0.780824  
      84A      0.784154    85A      0.821506    86A      0.840577  
      87A      0.864910    88A      0.875871    89A      0.934779  
      90A      0.972702    91A      1.025311    92A      1.043058  
      93A      1.078826    94A      1.085844    95A      1.131941  
      96A      1.160496    97A      1.206005    98A      1.244219  
      99A      1.267591   100A      1.286871   101A      1.306479  
     102A      1.327656   103A      1.341167   104A      1.348274  
     105A      1.413240   106A      1.455407   107A      1.551373  
     108A      1.600848   109A      1.620201   110A      1.641204  
     111A      1.672802   112A      1.737607   113A      1.758286  
     114A      1.800106   115A      1.807714   116A      1.860284  
     117A      1.884175   118A      1.930110   119A      1.935473  
     120A      1.972782   121A      1.980216   122A      2.000646  
     123A      2.022951   124A      2.073173   125A      2.103172  
     126A      2.147894   127A      2.151935   128A      2.200180  
     129A      2.219605   130A      2.298550   131A      2.319588  
     132A      2.356169   133A      2.433609   134A      2.475511  
     135A      2.484133   136A      2.488613   137A      2.503654  
     138A      2.583777   139A      2.595300   140A      2.640754  
     141A      2.729286   142A      2.834849   143A      3.001904  
     144A      3.249073   145A      3.635742   146A      3.681056  
     147A      3.894243   148A      3.936405   149A      3.955898  
     150A      4.031622   151A      4.162867   152A      4.253887  
     153A      4.542678  

    Final Occupation by Irrep:
              A 
    DOCC [    32 ]

  Energy converged.

  @DF-RKS Final Energy:  -381.45409165157463

   => Energetics <=

    Nuclear Repulsion Energy =            416.0845660206479693
    One-Electron Energy =               -1327.1583701211361586
    Two-Electron Energy =                 574.0292222336147461
    DFT Exchange-Correlation Energy =     -44.3977882247012587
    Empirical Dispersion Energy =          -0.0117215600000000
    VV10 Nonlocal Energy =                  0.0000000000000000
    Total Energy =                       -381.4540916515746289



Properties will be evaluated at   0.000000,   0.000000,   0.000000 [a0]

Properties computed using the SCF density matrix

  Nuclear Dipole Moment: [e a0]
     X:     3.6373      Y:     0.1952      Z:    -3.2813

  Electronic Dipole Moment: [e a0]
     X:    -3.9255      Y:     0.0660      Z:     1.6515

  Dipole Moment: [e a0]
     X:    -0.2882      Y:     0.2612      Z:    -1.6298     Total:     1.6756

  Dipole Moment: [D]
     X:    -0.7325      Y:     0.6640      Z:    -4.1426     Total:     4.2590


*** tstop() called on green.prib.upf.edu at Sat Sep 29 21:02:13 2018
Module time:
	user time   =      45.25 seconds =       0.75 minutes
	system time =       0.31 seconds =       0.01 minutes
	total time  =         16 seconds =       0.27 minutes
Total time:
	user time   =    6006.18 seconds =     100.10 minutes
	system time =      36.24 seconds =       0.60 minutes
	total time  =       1652 seconds =      27.53 minutes

*** tstart() called on green.prib.upf.edu
*** at Sat Sep 29 21:02:13 2018


         ------------------------------------------------------------
                                   SCF GRAD                          
                          Rob Parrish, Justin Turney,                
                       Andy Simmonett, and Alex Sokolov              
         ------------------------------------------------------------

  ==> Geometry <==

    Molecular point group: c1
    Full point group: C1

    Geometry (in Angstrom), charge = 1, multiplicity = 1:

       Center              X                  Y                   Z               Mass       
    ------------   -----------------  -----------------  -----------------  -----------------
         C            0.067273891032     0.002463583212    -0.204555097331    12.000000000000
         C            0.421760530953     1.152887375507     0.538143225204    12.000000000000
         C            0.359057263276     1.140587645693     1.923895409533    12.000000000000
         C           -0.007408892700    -0.030378386570     2.597049092543    12.000000000000
         C           -0.329779834430    -1.185845265270     1.878146058379    12.000000000000
         C           -0.308757664235    -1.168288746227     0.489233384064    12.000000000000
         C            0.085586554853     0.024960476223    -1.662552039113    12.000000000000
         H            0.764757591762     2.057465042482     0.046367345419     1.007825032070
         H            0.610577205449     2.036587956763     2.481790951343     1.007825032070
         H           -0.038021818380    -0.041957945601     3.682263934220     1.007825032070
         H           -0.606127849357    -2.095118762008     2.401639445536     1.007825032070
         H           -0.606971043904    -2.066149520189    -0.043427570154     1.007825032070
         N           -0.111401989749    -1.084720137851    -2.441072838940    14.003074004780
         N            0.186274148000     1.153669232157    -2.342859567284    14.003074004780
         H            0.309176113395     1.128124932129    -3.349839552165     1.007825032070
         H            0.192118365594     2.064919191003    -1.897906328006     1.007825032070
         H           -0.986661976904    -1.111804800871    -2.958058456282     1.007825032070
         H            0.035422387625    -1.969724615610    -1.967856125786     1.007825032070

  Nuclear repulsion =  416.084566020647969

  ==> Basis Set <==

  Basis Set: 6-31G*
    Blend: 6-31G*
    Number of shells: 72
    Number of basis function: 153
    Number of Cartesian functions: 153
    Spherical Harmonics?: false
    Max angular momentum: 2

  ==> DFJKGrad: Density-Fitted SCF Gradients <==

    Gradient:                    1
    J tasked:                  Yes
    K tasked:                  Yes
    wK tasked:                  No
    OpenMP threads:              4
    Integrals threads:           4
    Memory (MB):              2002
    Schwarz Cutoff:          0E+00
    Fitting Condition:       1E-12

   => Auxiliary Basis Set <=

  Basis Set: (6-31G* AUX)
    Blend: CC-PVDZ-JKFIT
    Number of shells: 297
    Number of basis function: 954
    Number of Cartesian functions: 954
    Spherical Harmonics?: false
    Max angular momentum: 3

  ==> DFT Potential <==

   => Composite Functional: B3LYP-D3ZERO <= 

    B3LYP-d3zero Hyb-GGA Exchange-Correlation Functional

    P. J. Stephens, F. J. Devlin, C. F. Chabalowski, and M. J. Frisch, J. Phys. Chem. 98, 11623 (1994)

    Deriv               =              1
    GGA                 =           TRUE
    Meta                =          FALSE

    Exchange Hybrid     =           TRUE
    MP2 Hybrid          =          FALSE

   => Exchange Functionals <=

    0.0800   Slater exchange
    0.7200         Becke 88

   => Exact (HF) Exchange <=

    0.2000               HF 

   => Correlation Functionals <=

    0.1900   Vosko, Wilk & Nusair (VWN5_RPA)
    0.8100   Lee, Yang & Parr

   => Molecular Quadrature <=

    Radial Scheme       =       TREUTLER
    Pruning Scheme      =           FLAT
    Nuclear Scheme      =       TREUTLER

    BS radius alpha     =              1
    Pruning alpha       =              1
    Radial Points       =             75
    Spherical Points    =            302
    Total Points        =         396717
    Total Blocks        =           2974
    Max Points          =            256
    Max Functions       =            150


  -Total Gradient:
     Atom            X                  Y                   Z
    ------   -----------------  -----------------  -----------------
       1       -0.009232263896    -0.000079715593    -0.000013701470
       2        0.000048724733     0.001036761461    -0.000173111267
       3       -0.000379501652    -0.000359567206     0.000086886119
       4        0.000197433061     0.000513948780     0.000090184063
       5        0.000136332184    -0.000626065891    -0.000384831779
       6        0.000454902454     0.000601551380     0.000582408706
       7        0.012865319444     0.000820039948     0.001501092633
       8       -0.000657900865    -0.000213444113     0.000112728912
       9       -0.000456289354     0.000251212136    -0.000144240620
      10        0.000017735115     0.000071485492     0.000006191645
      11        0.000518550575    -0.000124592569     0.000138507940
      12        0.000291983252    -0.000649734856     0.000020846868
      13        0.000521614688     0.007568429024    -0.012574426931
      14       -0.000098083545    -0.006544270083     0.001169184505
      15        0.000509405234     0.000215970622    -0.000427512543
      16        0.000907752099     0.002288642593     0.000822100354
      17       -0.005056654811    -0.004567634851     0.009133819046
      18       -0.000575365482    -0.000208521819     0.000035481498


*** tstop() called on green.prib.upf.edu at Sat Sep 29 21:02:19 2018
Module time:
	user time   =      21.70 seconds =       0.36 minutes
	system time =       0.17 seconds =       0.00 minutes
	total time  =          6 seconds =       0.10 minutes
Total time:
	user time   =    6027.92 seconds =     100.47 minutes
	system time =      36.41 seconds =       0.61 minutes
	total time  =       1658 seconds =      27.63 minutes

			-----------------------------------------
			 OPTKING 2.0: for geometry optimizations 
			  - R.A. King,  Bethel University        
			-----------------------------------------
	Moving to level 6: XYZ, SD, backsteps, small trust, smaller steps.

	Previous internal coordinate definitions found.
	---Fragment 1 Geometry and Gradient---
	 C           0.1271292299        0.0046554976       -0.3865531130
	 C           0.7970118972        2.1786414018        1.0169433159
	 C           0.6785198936        2.1553982809        3.6356354323
	 C          -0.0140007782       -0.0574068310        4.9077115386
	 C          -0.6231935712       -2.2409227873        3.5491816879
	 C          -0.5834674268       -2.2077457745        0.9245171109
	 C           0.1617351493        0.0471684642       -3.1417680356
	 H           1.4451824065        3.8880454583        0.0876215844
	 H           1.1538237013        3.8485934838        4.6899052171
	 H          -0.0718508238       -0.0792890263        6.9584703847
	 H          -1.1454156368       -3.9592006761        4.5384408220
	 H          -1.1470090436       -3.9044567428       -0.0820662142
	 N          -0.2105192513       -2.0498239914       -4.6129591360
	 N           0.3520071254        2.1801188967       -4.4273629500
	 H           0.5842581811        2.1318471654       -6.3302793427
	 H           0.3630510961        3.9021317575       -3.5865231858
	 H          -1.8645209221       -2.1010065869       -5.5899203674
	 H           0.0669386116       -3.7222400807       -3.7187091467
	            -0.0092322639       -0.0000797156       -0.0000137015
	             0.0000487247        0.0010367615       -0.0001731113
	            -0.0003795017       -0.0003595672        0.0000868861
	             0.0001974331        0.0005139488        0.0000901841
	             0.0001363322       -0.0006260659       -0.0003848318
	             0.0004549025        0.0006015514        0.0005824087
	             0.0128653194        0.0008200399        0.0015010926
	            -0.0006579009       -0.0002134441        0.0001127289
	            -0.0004562894        0.0002512121       -0.0001442406
	             0.0000177351        0.0000714855        0.0000061916
	             0.0005185506       -0.0001245926        0.0001385079
	             0.0002919833       -0.0006497349        0.0000208469
	             0.0005216147        0.0075684290       -0.0125744269
	            -0.0000980835       -0.0065442701        0.0011691845
	             0.0005094052        0.0002159706       -0.0004275125
	             0.0009077521        0.0022886426        0.0008221004
	            -0.0050566548       -0.0045676349        0.0091338190
	            -0.0005753655       -0.0002085218        0.0000354815

	---Fragment 1 Intrafragment Coordinates---
	 - Coordinate -           - BOHR/RAD -       - ANG/DEG -
	 R(1,X)           =         0.127129	       0.067274
	 R(1,Y)           =         0.004655	       0.002464
	 R(1,Z)           =        -0.386553	      -0.204555
	 R(2,X)           =         0.797012	       0.421761
	 R(2,Y)           =         2.178641	       1.152887
	 R(2,Z)           =         1.016943	       0.538143
	 R(3,X)           =         0.678520	       0.359057
	 R(3,Y)           =         2.155398	       1.140588
	 R(3,Z)           =         3.635635	       1.923895
	 R(4,X)           =        -0.014001	      -0.007409
	 R(4,Y)           =        -0.057407	      -0.030378
	 R(4,Z)           =         4.907712	       2.597049
	 R(5,X)           =        -0.623194	      -0.329780
	 R(5,Y)           =        -2.240923	      -1.185845
	 R(5,Z)           =         3.549182	       1.878146
	 R(6,X)           =        -0.583467	      -0.308758
	 R(6,Y)           =        -2.207746	      -1.168289
	 R(6,Z)           =         0.924517	       0.489233
	 R(7,X)           =         0.161735	       0.085587
	 R(7,Y)           =         0.047168	       0.024960
	 R(7,Z)           =        -3.141768	      -1.662552
	 R(8,X)           =         1.445182	       0.764758
	 R(8,Y)           =         3.888045	       2.057465
	 R(8,Z)           =         0.087622	       0.046367
	 R(9,X)           =         1.153824	       0.610577
	 R(9,Y)           =         3.848593	       2.036588
	 R(9,Z)           =         4.689905	       2.481791
	 R(10,X)          =        -0.071851	      -0.038022
	 R(10,Y)          =        -0.079289	      -0.041958
	 R(10,Z)          =         6.958470	       3.682264
	 R(11,X)          =        -1.145416	      -0.606128
	 R(11,Y)          =        -3.959201	      -2.095119
	 R(11,Z)          =         4.538441	       2.401639
	 R(12,X)          =        -1.147009	      -0.606971
	 R(12,Y)          =        -3.904457	      -2.066150
	 R(12,Z)          =        -0.082066	      -0.043428
	 R(13,X)          =        -0.210519	      -0.111402
	 R(13,Y)          =        -2.049824	      -1.084720
	 R(13,Z)          =        -4.612959	      -2.441073
	 R(14,X)          =         0.352007	       0.186274
	 R(14,Y)          =         2.180119	       1.153669
	 R(14,Z)          =        -4.427363	      -2.342860
	 R(15,X)          =         0.584258	       0.309176
	 R(15,Y)          =         2.131847	       1.128125
	 R(15,Z)          =        -6.330279	      -3.349840
	 R(16,X)          =         0.363051	       0.192118
	 R(16,Y)          =         3.902132	       2.064919
	 R(16,Z)          =        -3.586523	      -1.897906
	 R(17,X)          =        -1.864521	      -0.986662
	 R(17,Y)          =        -2.101007	      -1.111805
	 R(17,Z)          =        -5.589920	      -2.958058
	 R(18,X)          =         0.066939	       0.035422
	 R(18,Y)          =        -3.722240	      -1.969725
	 R(18,Z)          =        -3.718709	      -1.967856
	*D(1,7,13,17)     =         1.919863	     110.000024

	Current energy   :      -381.4540916516

	Energy change for the previous step:
		Projected    :        -0.0000383065
		Actual       :         0.0000284753
	The BAD_STEP_EXCEPTion handler:
	Energy has increased in a minimization.

	Dynamic level is 7.
	Consecutive backsteps is 1.
	The INTCO_EXCEPTion handler:
	Too many bad steps.
	Dynamic level is 7.
	exc.g_really_quit() is 0.

  **** Optimization has failed! (in 5 steps) ****
			--------------------------
			 OPTKING Finished Execution 
			--------------------------
	Removing binary optimization data file.
	Cleaning optimization helper files.

PsiException: Could not converge geometry optimization in 63 iterations.


Traceback (most recent call last):
  File "/shared/joao/test_parameterize/miniconda3/bin/psi4", line 269, in <module>
    exec(content)
  File "<string>", line 54, in <module>
  File "/shared/joao/test_parameterize/miniconda3/lib//python3.6/site-packages/psi4/driver/driver.py", line 1220, in optimize
    raise OptimizationConvergenceError("""geometry optimization""", n - 1, wfn)

OptimizationConvergenceError: Could not converge geometry optimization in 63 iterations.

    Psi4 stopped on: Saturday, 29 September 2018 09:02PM
    Psi4 wall time for execution: 0:27:38.32

*** Psi4 encountered an error. Buy a developer more coffee!
*** Resources and help at github.com/psi4/psi4.
