
    -----------------------------------------------------------------------
          Psi4: An Open-Source Ab Initio Electronic Structure Package
                               Psi4 1.2.1 release

                         Git: Rev {HEAD} 406f4de 


    R. M. Parrish, L. A. Burns, D. G. A. Smith, A. C. Simmonett,
    A. E. DePrince III, E. G. Hohenstein, U. Bozkaya, A. Yu. Sokolov,
    R. Di Remigio, R. M. Richard, J. F. Gonthier, A. M. James,
    H. R. McAlexander, A. Kumar, M. Saitow, X. Wang, B. P. Pritchard,
    P. Verma, H. F. Schaefer III, K. Patkowski, R. A. King, E. F. Valeev,
    F. A. Evangelista, J. M. Turney, T. D. Crawford, and C. D. Sherrill,
    J. Chem. Theory Comput. 13(7) pp 3185--3197 (2017).
    (doi: 10.1021/acs.jctc.7b00174)


                         Additional Contributions by
    P. Kraus, H. Kruse, M. H. Lechner, M. C. Schieber, and R. A. Shaw

    -----------------------------------------------------------------------


    Psi4 started on: Saturday, 29 September 2018 05:10PM

    Process ID: 14272
    Host:       loro.prib.upf.edu
    PSIDATADIR: /shared/joao/test_parameterize/miniconda3/share/psi4
    Memory:     500.0 MiB
    Threads:    1
    
  ==> Input File <==

--------------------------------------------------------------------------
set_num_threads(1)
set_memory('5348 MB')

set { scf_mem_safety_factor 0.7 }

set { reference rks }
set { basis cc-pVDZ }

molecule MOL {
    0 1
    noreorient
    nocom
    symmetry c1
    O    1.050400   0.042900  -0.048100
    C    2.474100   0.047400  -0.029000
    C    3.002600  -1.068900  -0.932000
    N    4.462700  -1.072400  -1.006800
    H    0.767137  -0.757767   0.425932
    H    2.809900  -0.097900   1.003200
    H    2.817400   1.026800  -0.378600
    H    2.581000  -0.963300  -1.938400
    H    2.653800  -2.036400  -0.553400
    H    4.779000  -0.221000  -1.470000
    H    4.758600  -1.842500  -1.606500
}

set optking { frozen_dihedral = (" 3 2 1 5 ") }

energy, wfn = energy('B3LYP-D3', return_wfn=True)

import os
os.chdir(os.environ['HTMD_PSI4_WORKDIR'])

oeprop(wfn, 'DIPOLE', 'QUADRUPOLE', 'MULLIKEN_CHARGES')

with open('psi4out.xyz', 'w') as f:
    f.write('11 ' )
    f.write('%.12f\n' % energy)
    f.write(MOL.save_string_xyz())
--------------------------------------------------------------------------
  Threads set to 1 by Python driver.

  Memory set to   4.981 GiB by Python driver.

*** tstart() called on loro.prib.upf.edu
*** at Sat Sep 29 17:10:59 2018

   => Loading Basis Set <=

    Name: CC-PVDZ
    Role: ORBITAL
    Keyword: BASIS
    atoms 1    entry O          line   198 file /shared/joao/test_parameterize/miniconda3/share/psi4/basis/cc-pvdz.gbs 
    atoms 2-3  entry C          line   138 file /shared/joao/test_parameterize/miniconda3/share/psi4/basis/cc-pvdz.gbs 
    atoms 4    entry N          line   168 file /shared/joao/test_parameterize/miniconda3/share/psi4/basis/cc-pvdz.gbs 
    atoms 5-11 entry H          line    22 file /shared/joao/test_parameterize/miniconda3/share/psi4/basis/cc-pvdz.gbs 


         ---------------------------------------------------------
                                   SCF
            by Justin Turney, Rob Parrish, Andy Simmonett
                             and Daniel Smith
                              RKS Reference
                        1 Threads,   5100 MiB Core
         ---------------------------------------------------------

  ==> Geometry <==

    Molecular point group: c1
    Full point group: C1

    Geometry (in Angstrom), charge = 0, multiplicity = 1:

       Center              X                  Y                   Z               Mass       
    ------------   -----------------  -----------------  -----------------  -----------------
         O            1.050400000000     0.042900000000    -0.048100000000    15.994914619560
         C            2.474100000000     0.047400000000    -0.029000000000    12.000000000000
         C            3.002600000000    -1.068900000000    -0.932000000000    12.000000000000
         N            4.462700000000    -1.072400000000    -1.006800000000    14.003074004780
         H            0.767137000000    -0.757767000000     0.425932000000     1.007825032070
         H            2.809900000000    -0.097900000000     1.003200000000     1.007825032070
         H            2.817400000000     1.026800000000    -0.378600000000     1.007825032070
         H            2.581000000000    -0.963300000000    -1.938400000000     1.007825032070
         H            2.653800000000    -2.036400000000    -0.553400000000     1.007825032070
         H            4.779000000000    -0.221000000000    -1.470000000000     1.007825032070
         H            4.758600000000    -1.842500000000    -1.606500000000     1.007825032070

  Running in c1 symmetry.

  Rotational constants: A =      0.73876  B =      0.02758  C =      0.02698 [cm^-1]
  Rotational constants: A =  22147.35111  B =    826.92517  C =    808.93792 [MHz]
  Nuclear repulsion =  130.797612249814762

  Charge       = 0
  Multiplicity = 1
  Electrons    = 34
  Nalpha       = 17
  Nbeta        = 17

  ==> Algorithm <==

  SCF Algorithm Type is DF.
  DIIS enabled.
  MOM disabled.
  Fractional occupation disabled.
  Guess Type is SAD.
  Energy threshold   = 1.00e-06
  Density threshold  = 1.00e-06
  Integral threshold = 0.00e+00

  ==> Primary Basis <==

  Basis Set: CC-PVDZ
    Blend: CC-PVDZ
    Number of shells: 45
    Number of basis function: 91
    Number of Cartesian functions: 95
    Spherical Harmonics?: true
    Max angular momentum: 2

  ==> DFT Potential <==

   => Composite Functional: B3LYP-D3ZERO <= 

    B3LYP-d3zero Hyb-GGA Exchange-Correlation Functional

    P. J. Stephens, F. J. Devlin, C. F. Chabalowski, and M. J. Frisch, J. Phys. Chem. 98, 11623 (1994)

    Deriv               =              1
    GGA                 =           TRUE
    Meta                =          FALSE

    Exchange Hybrid     =           TRUE
    MP2 Hybrid          =          FALSE

   => Exchange Functionals <=

    0.0800   Slater exchange
    0.7200         Becke 88

   => Exact (HF) Exchange <=

    0.2000               HF 

   => Correlation Functionals <=

    0.1900   Vosko, Wilk & Nusair (VWN5_RPA)
    0.8100   Lee, Yang & Parr

   => Molecular Quadrature <=

    Radial Scheme       =       TREUTLER
    Pruning Scheme      =           FLAT
    Nuclear Scheme      =       TREUTLER

    BS radius alpha     =              1
    Pruning alpha       =              1
    Radial Points       =             75
    Spherical Points    =            302
    Total Points        =         245077
    Total Blocks        =           1902
    Max Points          =            255
    Max Functions       =             91

   => -D3ZERO: Empirical Dispersion <=

    Grimme's -D3 (zero-damping) Dispersion Correction
    Grimme S.; Antony J.; Ehrlich S.; Krieg H. (2010), J. Chem. Phys., 132: 154104

        S6 =   1.000000E+00
        S8 =   1.703000E+00
       SR6 =   1.261000E+00
       SR8 =   1.000000E+00
    ALPHA6 =   1.400000E+01

   => Loading Basis Set <=

    Name: (CC-PVDZ AUX)
    Role: JKFIT
    Keyword: DF_BASIS_SCF
    atoms 1    entry O          line   221 file /shared/joao/test_parameterize/miniconda3/share/psi4/basis/cc-pvdz-jkfit.gbs 
    atoms 2-3  entry C          line   121 file /shared/joao/test_parameterize/miniconda3/share/psi4/basis/cc-pvdz-jkfit.gbs 
    atoms 4    entry N          line   171 file /shared/joao/test_parameterize/miniconda3/share/psi4/basis/cc-pvdz-jkfit.gbs 
    atoms 5-11 entry H          line    51 file /shared/joao/test_parameterize/miniconda3/share/psi4/basis/cc-pvdz-jkfit.gbs 

  ==> Pre-Iterations <==

   -------------------------------------------------------
    Irrep   Nso     Nmo     Nalpha   Nbeta   Ndocc  Nsocc
   -------------------------------------------------------
     A         91      91       0       0       0       0
   -------------------------------------------------------
    Total      91      91      17      17      17       0
   -------------------------------------------------------

  ==> Integral Setup <==

  DFHelper Memory: AOs need 0.036 [GiB]; user supplied 3.486 [GiB]. Using in-core AOs.

  ==> MemDFJK: Density-Fitted J/K Matrices <==

    J tasked:                   Yes
    K tasked:                   Yes
    wK tasked:                   No
    OpenMP threads:               1
    Memory (MB):               3570
    Algorithm:                 Core
    Schwarz Cutoff:           1E-12
    Mask sparsity (%):       0.2415
    Fitting Condition:        1E-12

   => Auxiliary Basis Set <=

  Basis Set: (CC-PVDZ AUX)
    Blend: CC-PVDZ-JKFIT
    Number of shells: 159
    Number of basis function: 441
    Number of Cartesian functions: 499
    Spherical Harmonics?: true
    Max angular momentum: 3

  Minimum eigenvalue in the overlap matrix is 4.4256522433E-03.
  Using Symmetric Orthogonalization.

  SCF Guess: Superposition of Atomic Densities via on-the-fly atomic UHF.

  ==> Iterations <==

                           Total Energy        Delta E     RMS |[F,P]|

   @DF-RKS iter   0:  -210.82856552896004   -2.10829e+02   3.67194e-02 
   @DF-RKS iter   1:  -210.22015559385636    6.08410e-01   6.96788e-03 
   @DF-RKS iter   2:  -210.08926160294845    1.30894e-01   9.39048e-03 DIIS
   @DF-RKS iter   3:  -210.39123522611010   -3.01974e-01   6.00905e-04 DIIS
   @DF-RKS iter   4:  -210.39205493310581   -8.19707e-04   3.55871e-04 DIIS
   @DF-RKS iter   5:  -210.39251236870865   -4.57436e-04   5.45525e-05 DIIS
   @DF-RKS iter   6:  -210.39252039066429   -8.02196e-06   2.56368e-05 DIIS
   @DF-RKS iter   7:  -210.39252274003525   -2.34937e-06   2.13939e-06 DIIS
   @DF-RKS iter   8:  -210.39252275731303   -1.72778e-08   6.10916e-07 DIIS

  ==> Post-Iterations <==

    Orbital Energies [Eh]
    ---------------------

    Doubly Occupied:                                                      

       1A    -19.129452     2A    -14.305878     3A    -10.224755  
       4A    -10.202867     5A     -1.011838     6A     -0.878132  
       7A     -0.711023     8A     -0.608989     9A     -0.503250  
      10A     -0.487867    11A     -0.443269    12A     -0.424087  
      13A     -0.395422    14A     -0.370893    15A     -0.320880  
      16A     -0.264632    17A     -0.232632  

    Virtual:                                                              

      18A      0.050546    19A      0.054773    20A      0.093311  
      21A      0.121462    22A      0.129735    23A      0.149667  
      24A      0.163288    25A      0.208523    26A      0.242335  
      27A      0.258303    28A      0.436616    29A      0.445726  
      30A      0.480505    31A      0.499389    32A      0.563128  
      33A      0.577542    34A      0.601271    35A      0.604039  
      36A      0.632136    37A      0.651926    38A      0.664788  
      39A      0.682289    40A      0.700413    41A      0.813261  
      42A      0.824329    43A      0.842072    44A      0.922007  
      45A      0.960749    46A      1.006430    47A      1.021067  
      48A      1.068054    49A      1.111980    50A      1.209823  
      51A      1.243598    52A      1.254985    53A      1.329475  
      54A      1.363316    55A      1.449072    56A      1.464921  
      57A      1.513252    58A      1.599911    59A      1.632360  
      60A      1.646798    61A      1.657575    62A      1.677201  
      63A      1.693732    64A      1.726948    65A      1.744765  
      66A      1.773277    67A      1.811215    68A      1.854320  
      69A      1.881609    70A      1.955706    71A      1.995058  
      72A      2.014804    73A      2.068597    74A      2.113862  
      75A      2.162211    76A      2.244219    77A      2.262886  
      78A      2.366769    79A      2.398093    80A      2.441331  
      81A      2.471119    82A      2.546288    83A      2.604021  
      84A      2.675202    85A      2.816568    86A      2.955749  
      87A      2.995221    88A      3.052735    89A      3.097382  
      90A      3.239340    91A      3.678151  

    Final Occupation by Irrep:
              A 
    DOCC [    17 ]

  Energy converged.

  @DF-RKS Final Energy:  -210.39252275731303

   => Energetics <=

    Nuclear Repulsion Energy =            130.7976122498147618
    One-Electron Energy =                -544.4660660160122916
    Two-Electron Energy =                 226.7675898228474409
    DFT Exchange-Correlation Energy =     -23.4865007639629191
    Empirical Dispersion Energy =          -0.0051580500000000
    VV10 Nonlocal Energy =                  0.0000000000000000
    Total Energy =                       -210.3925227573130314



Properties will be evaluated at   0.000000,   0.000000,   0.000000 [a0]

Properties computed using the SCF density matrix

  Nuclear Dipole Moment: [e a0]
     X:   177.0090      Y:   -34.3640      Z:   -33.4787

  Electronic Dipole Moment: [e a0]
     X:  -176.8054      Y:    33.9469      Z:    33.2523

  Dipole Moment: [e a0]
     X:     0.2036      Y:    -0.4171      Z:    -0.2264     Total:     0.5164

  Dipole Moment: [D]
     X:     0.5175      Y:    -1.0602      Z:    -0.5755     Total:     1.3127


*** tstop() called on loro.prib.upf.edu at Sat Sep 29 17:11:14 2018
Module time:
	user time   =      14.29 seconds =       0.24 minutes
	system time =       0.20 seconds =       0.00 minutes
	total time  =         15 seconds =       0.25 minutes
Total time:
	user time   =      14.29 seconds =       0.24 minutes
	system time =       0.20 seconds =       0.00 minutes
	total time  =         15 seconds =       0.25 minutes


Properties will be evaluated at   0.000000,   0.000000,   0.000000 [a0]
OEProp: No title given, name of density matrix used for the following properties is 'SCF density'
  Nuclear Dipole Moment: [e a0]
     X:   177.0090      Y:   -34.3640      Z:   -33.4787

  Electronic Dipole Moment: [e a0]
     X:  -176.8054      Y:    33.9469      Z:    33.2523

  Dipole Moment: [e a0]
     X:     0.2036      Y:    -0.4171      Z:    -0.2264     Total:     0.5164

  Dipole Moment: [D]
     X:     0.5175      Y:    -1.0602      Z:    -0.5755     Total:     1.3127

  Quadrupole Moment: [D A]
    XX:   -25.0188     YY:   -23.3852     ZZ:   -22.9185
    XY:     0.4893     XZ:    -6.2323     YZ:     0.5148

  Traceless Quadrupole Moment: [D A]
    XX:    -1.2446     YY:     0.3890     ZZ:     0.8556
    XY:     0.4893     XZ:    -6.2323     YZ:     0.5148

  Mulliken Charges: (a.u.)
   Center  Symbol    Alpha    Beta     Spin     Total
       1     O     4.13930  4.13930  0.00000 -0.27860
       2     C     2.92244  2.92244  0.00000  0.15511
       3     C     2.99300  2.99300  0.00000  0.01400
       4     N     3.59364  3.59364  0.00000 -0.18728
       5     H     0.43102  0.43102  0.00000  0.13796
       6     H     0.49728  0.49728  0.00000  0.00545
       7     H     0.49268  0.49268  0.00000  0.01463
       8     H     0.50139  0.50139  0.00000 -0.00279
       9     H     0.50008  0.50008  0.00000 -0.00016
      10     H     0.46482  0.46482  0.00000  0.07036
      11     H     0.46435  0.46435  0.00000  0.07130

   Total alpha = 17.00000, Total beta = 17.00000, Total charge =  0.00000


    Psi4 stopped on: Saturday, 29 September 2018 05:11PM
    Psi4 wall time for execution: 0:00:15.68

*** Psi4 exiting successfully. Buy a developer a beer!
