
    -----------------------------------------------------------------------
          Psi4: An Open-Source Ab Initio Electronic Structure Package
                               Psi4 1.2.1 release

                         Git: Rev {HEAD} 406f4de 


    R. M. Parrish, L. A. Burns, D. G. A. Smith, A. C. Simmonett,
    A. E. DePrince III, E. G. Hohenstein, U. Bozkaya, A. Yu. Sokolov,
    R. Di Remigio, R. M. Richard, J. F. Gonthier, A. M. James,
    H. R. McAlexander, A. Kumar, M. Saitow, X. Wang, B. P. Pritchard,
    P. Verma, H. F. Schaefer III, K. Patkowski, R. A. King, E. F. Valeev,
    F. A. Evangelista, J. M. Turney, T. D. Crawford, and C. D. Sherrill,
    J. Chem. Theory Comput. 13(7) pp 3185--3197 (2017).
    (doi: 10.1021/acs.jctc.7b00174)


                         Additional Contributions by
    P. Kraus, H. Kruse, M. H. Lechner, M. C. Schieber, and R. A. Shaw

    -----------------------------------------------------------------------


    Psi4 started on: Saturday, 29 September 2018 08:24PM

    Process ID: 15772
    Host:       green.prib.upf.edu
    PSIDATADIR: /shared/joao/test_parameterize/miniconda3/share/psi4
    Memory:     500.0 MiB
    Threads:    1
    
  ==> Input File <==

--------------------------------------------------------------------------
set_num_threads(4)
set_memory('3000 MB')

set { scf_mem_safety_factor 0.7 }

set { reference rks }
set { basis 6-31G* }

molecule MOL {
    1 1
    noreorient
    nocom
    symmetry c1
    C   -0.000000  -0.000000  -0.177864
    C    0.036678   1.219374   0.524165
    C    0.031765   1.213120   1.915444
    C    0.000000   0.000000   2.610107
    C   -0.031765  -1.213120   1.915444
    C   -0.036678  -1.219375   0.524165
    C   -0.000000   0.000000  -1.644734
    H    0.018170   2.164705  -0.010854
    H    0.042402   2.152895   2.457886
    H    0.000000   0.000000   3.695756
    H   -0.042402  -2.152895   2.457886
    H   -0.018170  -2.164705  -0.010853
    N   -0.712590  -0.905950  -2.308461
    N    0.712590   0.905950  -2.308460
    H    0.673432   1.006470  -3.315997
    H    1.377190   1.485970  -1.813316
    H   -0.403630  -1.222472  -3.218209
    H   -1.532305  -1.355438  -1.917572
}

set optking { frozen_dihedral = (" 1 7 13 17 ") }

set optking { dynamic_level = 1 
 geom_maxiter = 250
 print_trajectory_xyz_file = True }

energy, wfn = optimize('B3LYP-D3', return_wfn=True)

import os
os.chdir(os.environ['HTMD_PSI4_WORKDIR'])

oeprop(wfn, 'DIPOLE', 'QUADRUPOLE', 'MULLIKEN_CHARGES')

with open('psi4out.xyz', 'w') as f:
    f.write('18 ' )
    f.write('%.12f\n' % energy)
    f.write(MOL.save_string_xyz())
--------------------------------------------------------------------------
  Threads set to 4 by Python driver.

  Memory set to   2.794 GiB by Python driver.
gradient() will perform analytic gradient computation.

*** tstart() called on green.prib.upf.edu
*** at Sat Sep 29 20:24:39 2018

   => Loading Basis Set <=

    Name: 6-31G*
    Role: ORBITAL
    Keyword: BASIS
    atoms 1-7         entry C          line   111 file /shared/joao/test_parameterize/miniconda3/share/psi4/basis/6-31gs.gbs 
    atoms 8-12, 15-18 entry H          line    44 file /shared/joao/test_parameterize/miniconda3/share/psi4/basis/6-31gs.gbs 
    atoms 13-14       entry N          line   128 file /shared/joao/test_parameterize/miniconda3/share/psi4/basis/6-31gs.gbs 


         ---------------------------------------------------------
                                   SCF
            by Justin Turney, Rob Parrish, Andy Simmonett
                             and Daniel Smith
                              RKS Reference
                        4 Threads,   2861 MiB Core
         ---------------------------------------------------------

  ==> Geometry <==

    Molecular point group: c1
    Full point group: C1

    Geometry (in Angstrom), charge = 1, multiplicity = 1:

       Center              X                  Y                   Z               Mass       
    ------------   -----------------  -----------------  -----------------  -----------------
         C            0.000000000000     0.000000000000    -0.177864000000    12.000000000000
         C            0.036678000000     1.219374000000     0.524165000000    12.000000000000
         C            0.031765000000     1.213120000000     1.915444000000    12.000000000000
         C            0.000000000000     0.000000000000     2.610107000000    12.000000000000
         C           -0.031765000000    -1.213120000000     1.915444000000    12.000000000000
         C           -0.036678000000    -1.219375000000     0.524165000000    12.000000000000
         C            0.000000000000     0.000000000000    -1.644734000000    12.000000000000
         H            0.018170000000     2.164705000000    -0.010854000000     1.007825032070
         H            0.042402000000     2.152895000000     2.457886000000     1.007825032070
         H            0.000000000000     0.000000000000     3.695756000000     1.007825032070
         H           -0.042402000000    -2.152895000000     2.457886000000     1.007825032070
         H           -0.018170000000    -2.164705000000    -0.010853000000     1.007825032070
         N           -0.712590000000    -0.905950000000    -2.308461000000    14.003074004780
         N            0.712590000000     0.905950000000    -2.308460000000    14.003074004780
         H            0.673432000000     1.006470000000    -3.315997000000     1.007825032070
         H            1.377190000000     1.485970000000    -1.813316000000     1.007825032070
         H           -0.403630000000    -1.222472000000    -3.218209000000     1.007825032070
         H           -1.532305000000    -1.355438000000    -1.917572000000     1.007825032070

  Running in c1 symmetry.

  Rotational constants: A =      0.12166  B =      0.03958  C =      0.03130 [cm^-1]
  Rotational constants: A =   3647.31314  B =   1186.46724  C =    938.40969 [MHz]
  Nuclear repulsion =  416.816830859275512

  Charge       = 1
  Multiplicity = 1
  Electrons    = 64
  Nalpha       = 32
  Nbeta        = 32

  ==> Algorithm <==

  SCF Algorithm Type is DF.
  DIIS enabled.
  MOM disabled.
  Fractional occupation disabled.
  Guess Type is SAD.
  Energy threshold   = 1.00e-08
  Density threshold  = 1.00e-08
  Integral threshold = 0.00e+00

  ==> Primary Basis <==

  Basis Set: 6-31G*
    Blend: 6-31G*
    Number of shells: 72
    Number of basis function: 153
    Number of Cartesian functions: 153
    Spherical Harmonics?: false
    Max angular momentum: 2

  ==> DFT Potential <==

   => Composite Functional: B3LYP-D3ZERO <= 

    B3LYP-d3zero Hyb-GGA Exchange-Correlation Functional

    P. J. Stephens, F. J. Devlin, C. F. Chabalowski, and M. J. Frisch, J. Phys. Chem. 98, 11623 (1994)

    Deriv               =              1
    GGA                 =           TRUE
    Meta                =          FALSE

    Exchange Hybrid     =           TRUE
    MP2 Hybrid          =          FALSE

   => Exchange Functionals <=

    0.0800   Slater exchange
    0.7200         Becke 88

   => Exact (HF) Exchange <=

    0.2000               HF 

   => Correlation Functionals <=

    0.1900   Vosko, Wilk & Nusair (VWN5_RPA)
    0.8100   Lee, Yang & Parr

   => Molecular Quadrature <=

    Radial Scheme       =       TREUTLER
    Pruning Scheme      =           FLAT
    Nuclear Scheme      =       TREUTLER

    BS radius alpha     =              1
    Pruning alpha       =              1
    Radial Points       =             75
    Spherical Points    =            302
    Total Points        =         397004
    Total Blocks        =           3004
    Max Points          =            256
    Max Functions       =            149

   => -D3ZERO: Empirical Dispersion <=

    Grimme's -D3 (zero-damping) Dispersion Correction
    Grimme S.; Antony J.; Ehrlich S.; Krieg H. (2010), J. Chem. Phys., 132: 154104

        S6 =   1.000000E+00
        S8 =   1.703000E+00
       SR6 =   1.261000E+00
       SR8 =   1.000000E+00
    ALPHA6 =   1.400000E+01

   => Loading Basis Set <=

    Name: (6-31G* AUX)
    Role: JKFIT
    Keyword: DF_BASIS_SCF
    atoms 1-7         entry C          line   121 file /shared/joao/test_parameterize/miniconda3/share/psi4/basis/cc-pvdz-jkfit.gbs 
    atoms 8-12, 15-18 entry H          line    51 file /shared/joao/test_parameterize/miniconda3/share/psi4/basis/cc-pvdz-jkfit.gbs 
    atoms 13-14       entry N          line   171 file /shared/joao/test_parameterize/miniconda3/share/psi4/basis/cc-pvdz-jkfit.gbs 

  ==> Pre-Iterations <==

   -------------------------------------------------------
    Irrep   Nso     Nmo     Nalpha   Nbeta   Ndocc  Nsocc
   -------------------------------------------------------
     A        153     153       0       0       0       0
   -------------------------------------------------------
    Total     153     153      32      32      32       0
   -------------------------------------------------------

  ==> Integral Setup <==

  ==> DiskDFJK: Density-Fitted J/K Matrices <==

    J tasked:                  Yes
    K tasked:                  Yes
    wK tasked:                  No
    OpenMP threads:              4
    Integrals threads:           4
    Memory (MB):              2002
    Algorithm:                Core
    Integral Cache:           NONE
    Schwarz Cutoff:          1E-12
    Fitting Condition:       1E-12

   => Auxiliary Basis Set <=

  Basis Set: (6-31G* AUX)
    Blend: CC-PVDZ-JKFIT
    Number of shells: 297
    Number of basis function: 954
    Number of Cartesian functions: 954
    Spherical Harmonics?: false
    Max angular momentum: 3

  Minimum eigenvalue in the overlap matrix is 4.8711674619E-04.
  Using Symmetric Orthogonalization.

  SCF Guess: Superposition of Atomic Densities via on-the-fly atomic UHF.

  ==> Iterations <==

                           Total Energy        Delta E     RMS |[F,P]|

   @DF-RKS iter   0:  -379.61664733779770   -3.79617e+02   6.73165e-02 
   @DF-RKS iter   1:  -381.03805347429011   -1.42141e+00   1.19374e-02 
   @DF-RKS iter   2:  -380.94310995357370    9.49435e-02   1.32314e-02 DIIS
   @DF-RKS iter   3:  -381.45686648050645   -5.13757e-01   1.84213e-03 DIIS
   @DF-RKS iter   4:  -381.46437845572268   -7.51198e-03   8.29362e-04 DIIS
   @DF-RKS iter   5:  -381.46605648333292   -1.67803e-03   2.53893e-04 DIIS
   @DF-RKS iter   6:  -381.46621511710811   -1.58634e-04   8.87650e-05 DIIS
   @DF-RKS iter   7:  -381.46623588824156   -2.07711e-05   1.91206e-05 DIIS
   @DF-RKS iter   8:  -381.46623687207000   -9.83828e-07   6.85354e-06 DIIS
   @DF-RKS iter   9:  -381.46623701968889   -1.47619e-07   2.30583e-06 DIIS
   @DF-RKS iter  10:  -381.46623703551637   -1.58275e-08   6.03432e-07 DIIS
   @DF-RKS iter  11:  -381.46623703654001   -1.02364e-09   1.22615e-07 DIIS
   @DF-RKS iter  12:  -381.46623703656365   -2.36469e-11   8.81383e-08 DIIS
   @DF-RKS iter  13:  -381.46623703659031   -2.66596e-11   1.59877e-08 DIIS
   @DF-RKS iter  14:  -381.46623703659100   -6.82121e-13   4.06901e-09 DIIS

  ==> Post-Iterations <==

    Orbital Energies [Eh]
    ---------------------

    Doubly Occupied:                                                      

       1A    -14.569950     2A    -14.562190     3A    -10.495645  
       4A    -10.371584     5A    -10.355877     6A    -10.355666  
       7A    -10.343931     8A    -10.340340     9A    -10.340084  
      10A     -1.182213    11A     -1.090057    12A     -1.013813  
      13A     -0.925651    14A     -0.901798    15A     -0.844181  
      16A     -0.783906    17A     -0.770507    18A     -0.740986  
      19A     -0.730850    20A     -0.696273    21A     -0.669324  
      22A     -0.625704    23A     -0.612125    24A     -0.582739  
      25A     -0.578520    26A     -0.567766    27A     -0.518693  
      28A     -0.504977    29A     -0.497582    30A     -0.471506  
      31A     -0.412775    32A     -0.405445  

    Virtual:                                                              

      33A     -0.223422    34A     -0.156335    35A     -0.129568  
      36A     -0.104588    37A     -0.068517    38A     -0.057042  
      39A     -0.037930    40A     -0.027748    41A      0.007345  
      42A      0.015793    43A      0.021634    44A      0.054411  
      45A      0.061859    46A      0.086641    47A      0.130434  
      48A      0.144392    49A      0.155063    50A      0.158142  
      51A      0.203553    52A      0.242306    53A      0.297209  
      54A      0.353688    55A      0.354952    56A      0.381547  
      57A      0.388898    58A      0.397593    59A      0.421435  
      60A      0.421920    61A      0.442880    62A      0.447707  
      63A      0.453165    64A      0.471455    65A      0.474964  
      66A      0.477755    67A      0.486434    68A      0.517060  
      69A      0.524415    70A      0.533679    71A      0.546565  
      72A      0.588218    73A      0.608815    74A      0.654555  
      75A      0.665670    76A      0.684619    77A      0.690968  
      78A      0.702758    79A      0.714033    80A      0.717706  
      81A      0.730675    82A      0.758856    83A      0.774209  
      84A      0.789224    85A      0.808735    86A      0.819502  
      87A      0.853704    88A      0.943181    89A      0.955833  
      90A      0.983864    91A      1.003579    92A      1.023796  
      93A      1.069554    94A      1.084225    95A      1.116054  
      96A      1.145037    97A      1.226293    98A      1.273531  
      99A      1.281979   100A      1.304995   101A      1.320270  
     102A      1.343186   103A      1.361491   104A      1.376324  
     105A      1.446968   106A      1.467146   107A      1.510857  
     108A      1.615253   109A      1.626748   110A      1.646106  
     111A      1.660292   112A      1.736603   113A      1.753105  
     114A      1.801075   115A      1.827269   116A      1.831984  
     117A      1.896898   118A      1.916052   119A      1.961296  
     120A      1.974555   121A      1.994958   122A      2.003688  
     123A      2.027726   124A      2.049168   125A      2.127096  
     126A      2.130818   127A      2.153443   128A      2.206358  
     129A      2.227846   130A      2.306165   131A      2.363786  
     132A      2.371501   133A      2.445515   134A      2.452111  
     135A      2.489657   136A      2.513888   137A      2.551082  
     138A      2.587873   139A      2.601297   140A      2.629810  
     141A      2.737447   142A      2.866171   143A      2.982381  
     144A      3.259193   145A      3.637800   146A      3.657350  
     147A      3.912902   148A      3.947567   149A      3.964045  
     150A      4.051051   151A      4.174368   152A      4.256447  
     153A      4.546566  

    Final Occupation by Irrep:
              A 
    DOCC [    32 ]

  Energy converged.

  @DF-RKS Final Energy:  -381.46623703659100

   => Energetics <=

    Nuclear Repulsion Energy =            416.8168308592755125
    One-Electron Energy =               -1328.8927099375764556
    Two-Electron Energy =                 575.0277506550196449
    DFT Exchange-Correlation Energy =     -44.4061371533097855
    Empirical Dispersion Energy =          -0.0119714600000000
    VV10 Nonlocal Energy =                  0.0000000000000000
    Total Energy =                       -381.4662370365909965



Properties will be evaluated at   0.000000,   0.000000,   0.000000 [a0]

Properties computed using the SCF density matrix

  Nuclear Dipole Moment: [e a0]
     X:     0.2167      Y:    -0.1615      Z:     0.0126

  Electronic Dipole Moment: [e a0]
     X:    -0.1277      Y:     0.1155      Z:    -2.2153

  Dipole Moment: [e a0]
     X:     0.0890      Y:    -0.0460      Z:    -2.2028     Total:     2.2050

  Dipole Moment: [D]
     X:     0.2263      Y:    -0.1170      Z:    -5.5988     Total:     5.6046


*** tstop() called on green.prib.upf.edu at Sat Sep 29 20:25:08 2018
Module time:
	user time   =     106.27 seconds =       1.77 minutes
	system time =       0.46 seconds =       0.01 minutes
	total time  =         29 seconds =       0.48 minutes
Total time:
	user time   =     106.27 seconds =       1.77 minutes
	system time =       0.46 seconds =       0.01 minutes
	total time  =         29 seconds =       0.48 minutes

*** tstart() called on green.prib.upf.edu
*** at Sat Sep 29 20:25:08 2018


         ------------------------------------------------------------
                                   SCF GRAD                          
                          Rob Parrish, Justin Turney,                
                       Andy Simmonett, and Alex Sokolov              
         ------------------------------------------------------------

  ==> Geometry <==

    Molecular point group: c1
    Full point group: C1

    Geometry (in Angstrom), charge = 1, multiplicity = 1:

       Center              X                  Y                   Z               Mass       
    ------------   -----------------  -----------------  -----------------  -----------------
         C            0.000000000000     0.000000000000    -0.177864000000    12.000000000000
         C            0.036678000000     1.219374000000     0.524165000000    12.000000000000
         C            0.031765000000     1.213120000000     1.915444000000    12.000000000000
         C            0.000000000000     0.000000000000     2.610107000000    12.000000000000
         C           -0.031765000000    -1.213120000000     1.915444000000    12.000000000000
         C           -0.036678000000    -1.219375000000     0.524165000000    12.000000000000
         C            0.000000000000     0.000000000000    -1.644734000000    12.000000000000
         H            0.018170000000     2.164705000000    -0.010854000000     1.007825032070
         H            0.042402000000     2.152895000000     2.457886000000     1.007825032070
         H            0.000000000000     0.000000000000     3.695756000000     1.007825032070
         H           -0.042402000000    -2.152895000000     2.457886000000     1.007825032070
         H           -0.018170000000    -2.164705000000    -0.010853000000     1.007825032070
         N           -0.712590000000    -0.905950000000    -2.308461000000    14.003074004780
         N            0.712590000000     0.905950000000    -2.308460000000    14.003074004780
         H            0.673432000000     1.006470000000    -3.315997000000     1.007825032070
         H            1.377190000000     1.485970000000    -1.813316000000     1.007825032070
         H           -0.403630000000    -1.222472000000    -3.218209000000     1.007825032070
         H           -1.532305000000    -1.355438000000    -1.917572000000     1.007825032070

  Nuclear repulsion =  416.816830859275512

  ==> Basis Set <==

  Basis Set: 6-31G*
    Blend: 6-31G*
    Number of shells: 72
    Number of basis function: 153
    Number of Cartesian functions: 153
    Spherical Harmonics?: false
    Max angular momentum: 2

  ==> DFJKGrad: Density-Fitted SCF Gradients <==

    Gradient:                    1
    J tasked:                  Yes
    K tasked:                  Yes
    wK tasked:                  No
    OpenMP threads:              4
    Integrals threads:           4
    Memory (MB):              2002
    Schwarz Cutoff:          0E+00
    Fitting Condition:       1E-12

   => Auxiliary Basis Set <=

  Basis Set: (6-31G* AUX)
    Blend: CC-PVDZ-JKFIT
    Number of shells: 297
    Number of basis function: 954
    Number of Cartesian functions: 954
    Spherical Harmonics?: false
    Max angular momentum: 3

  ==> DFT Potential <==

   => Composite Functional: B3LYP-D3ZERO <= 

    B3LYP-d3zero Hyb-GGA Exchange-Correlation Functional

    P. J. Stephens, F. J. Devlin, C. F. Chabalowski, and M. J. Frisch, J. Phys. Chem. 98, 11623 (1994)

    Deriv               =              1
    GGA                 =           TRUE
    Meta                =          FALSE

    Exchange Hybrid     =           TRUE
    MP2 Hybrid          =          FALSE

   => Exchange Functionals <=

    0.0800   Slater exchange
    0.7200         Becke 88

   => Exact (HF) Exchange <=

    0.2000               HF 

   => Correlation Functionals <=

    0.1900   Vosko, Wilk & Nusair (VWN5_RPA)
    0.8100   Lee, Yang & Parr

   => Molecular Quadrature <=

    Radial Scheme       =       TREUTLER
    Pruning Scheme      =           FLAT
    Nuclear Scheme      =       TREUTLER

    BS radius alpha     =              1
    Pruning alpha       =              1
    Radial Points       =             75
    Spherical Points    =            302
    Total Points        =         397004
    Total Blocks        =           3004
    Max Points          =            256
    Max Functions       =            149


  -Total Gradient:
     Atom            X                  Y                   Z
    ------   -----------------  -----------------  -----------------
       1        0.003601020082    -0.004780980745     0.002841504100
       2        0.000018348500    -0.000440046128    -0.002279899390
       3       -0.000398328096    -0.001114545177     0.000704043568
       4        0.000081882745     0.000337949825    -0.000016581628
       5       -0.000370129737    -0.000043036913     0.000227681618
       6        0.000330688048     0.001494957016     0.000174331784
       7        0.001095639401    -0.003976727559    -0.011828721179
       8        0.000204804572    -0.000044067951     0.000066060121
       9        0.000009990771     0.000021977981    -0.000116640580
      10        0.000077049878    -0.000030209393    -0.000046286973
      11       -0.000036757466     0.000006650813     0.000001257955
      12        0.000755749644    -0.000692529595     0.000561834369
      13       -0.003086759143     0.005642993955     0.008876553010
      14       -0.002520992803     0.003809165283     0.000045764492
      15        0.001407530264     0.000059106955     0.000400166990
      16       -0.001571598342     0.000781391014    -0.000130020818
      17        0.006080087254    -0.002617113032     0.005486932184
      18       -0.005674033515     0.001579642512    -0.004990402974


*** tstop() called on green.prib.upf.edu at Sat Sep 29 20:25:15 2018
Module time:
	user time   =      28.94 seconds =       0.48 minutes
	system time =       0.22 seconds =       0.00 minutes
	total time  =          7 seconds =       0.12 minutes
Total time:
	user time   =     135.30 seconds =       2.26 minutes
	system time =       0.68 seconds =       0.01 minutes
	total time  =         36 seconds =       0.60 minutes

			-----------------------------------------
			 OPTKING 2.0: for geometry optimizations 
			  - R.A. King,  Bethel University        
			-----------------------------------------
	At level 1: Red. Int., RFO, no backsteps, dynamic trust

	Internal coordinates to be generated automatically.
	Detected frag 1 with atoms:  1 2 3 4 5 6 7 8 9 10 11 12 13 14 15 16 17 18
	---Fragment 1 Bond Connectivity---
	 1 : 2 6 7
	 2 : 1 3 8
	 3 : 2 4 9
	 4 : 3 5 10
	 5 : 4 6 11
	 6 : 1 5 12
	 7 : 1 13 14
	 8 : 2
	 9 : 3
	 10 : 4
	 11 : 5
	 12 : 6
	 13 : 7 17 18
	 14 : 7 15 16
	 15 : 14
	 16 : 14
	 17 : 13
	 18 : 13

	Assuming in current code that numbering for constraints corresponds to unified fragment.
	Frozen dihedral atom list: 
	     1     7    13    17
	---Fragment 1 Geometry and Gradient---
	 C           0.0000000000        0.0000000000       -0.3361142489
	 C           0.0693113751        2.3042829136        0.9905282984
	 C           0.0600271506        2.2924645663        3.6196645829
	 C           0.0000000000        0.0000000000        4.9323874075
	 C          -0.0600271506       -2.2924645663        3.6196645829
	 C          -0.0693113751       -2.3042848033        0.9905282984
	 C           0.0000000000        0.0000000000       -3.1080968214
	 H           0.0343363238        4.0906996085       -0.0205110874
	 H           0.0801281675        4.0683819429        4.6447314059
	 H           0.0000000000        0.0000000000        6.9839666940
	 H          -0.0801281675       -4.0683819429        4.6447314059
	 H          -0.0343363238       -4.0906996085       -0.0205091977
	 N          -1.3465999450       -1.7119973901       -4.3623590784
	 N           1.3465999450        1.7119973901       -4.3623571887
	 H           1.2726020491        1.9019526610       -6.2663261875
	 H           2.6025119329        2.8080763417       -3.4266706324
	 H          -0.7627501590       -2.3101372851       -6.0815336484
	 H          -2.8956368021       -2.5614066101       -3.6236859201
	             0.0036010201       -0.0047809807        0.0028415041
	             0.0000183485       -0.0004400461       -0.0022798994
	            -0.0003983281       -0.0011145452        0.0007040436
	             0.0000818827        0.0003379498       -0.0000165816
	            -0.0003701297       -0.0000430369        0.0002276816
	             0.0003306880        0.0014949570        0.0001743318
	             0.0010956394       -0.0039767276       -0.0118287212
	             0.0002048046       -0.0000440680        0.0000660601
	             0.0000099908        0.0000219780       -0.0001166406
	             0.0000770499       -0.0000302094       -0.0000462870
	            -0.0000367575        0.0000066508        0.0000012580
	             0.0007557496       -0.0006925296        0.0005618344
	            -0.0030867591        0.0056429940        0.0088765530
	            -0.0025209928        0.0038091653        0.0000457645
	             0.0014075303        0.0000591070        0.0004001670
	            -0.0015715983        0.0007813910       -0.0001300208
	             0.0060800873       -0.0026171130        0.0054869322
	            -0.0056740335        0.0015796425       -0.0049904030

	Previous optimization step data not found.  Starting new optimization.

	---Fragment 1 Intrafragment Coordinates---
	 - Coordinate -           - BOHR/RAD -       - ANG/DEG -
	 R(1,2)           =         2.659794	       1.407502
	 R(1,6)           =         2.659796	       1.407503
	 R(1,7)           =         2.771983	       1.466870
	 R(2,3)           =         2.629179	       1.391302
	 R(2,8)           =         2.052976	       1.086388
	 R(3,4)           =         2.642393	       1.398294
	 R(3,9)           =         2.050622	       1.085142
	 R(4,5)           =         2.642393	       1.398294
	 R(4,10)          =         2.051579	       1.085649
	 R(5,6)           =         2.629179	       1.391302
	 R(5,11)          =         2.050622	       1.085142
	 R(6,12)          =         2.052973	       1.086386
	 R(7,13)          =         2.513452	       1.330061
	 R(7,14)          =         2.513451	       1.330061
	 R(13,17)         =         1.911600	       1.011575
	 R(13,18)         =         1.914850	       1.013295
	 R(14,15)         =         1.914852	       1.013296
	 R(14,16)         =         1.911600	       1.011575
	 B(1,2,3)         =         2.088380	     119.655376
	 B(1,2,8)         =         2.103396	     120.515689
	 B(1,6,5)         =         2.088379	     119.655315
	 B(1,6,12)        =         2.103396	     120.515729
	 B(1,7,13)        =         2.093264	     119.935172
	 B(1,7,14)        =         2.093263	     119.935135
	 B(2,1,6)         =         2.097220	     120.161857
	 B(2,1,7)         =         2.092983	     119.919082
	 B(2,3,4)         =         2.095279	     120.050636
	 B(2,3,9)         =         2.089719	     119.732108
	 B(3,2,8)         =         2.090149	     119.756722
	 B(3,4,5)         =         2.101793	     120.423859
	 B(3,4,10)        =         2.090696	     119.788070
	 B(4,3,9)         =         2.098135	     120.214297
	 B(4,5,6)         =         2.095280	     120.050677
	 B(4,5,11)        =         2.098135	     120.214297
	 B(5,4,10)        =         2.090696	     119.788070
	 B(5,6,12)        =         2.090149	     119.756743
	 B(6,1,7)         =         2.092982	     119.919061
	 B(6,5,11)        =         2.089719	     119.732067
	 B(7,13,17)       =         2.092411	     119.886338
	 B(7,13,18)       =         2.144860	     122.891418
	 B(7,14,15)       =         2.144860	     122.891405
	 B(7,14,16)       =         2.092412	     119.886393
	 B(13,7,14)       =         2.096659	     120.129694
	 B(15,14,16)      =         2.043399	     117.078146
	 B(17,13,18)      =         2.043400	     117.078182
	 D(1,2,3,4)       =         0.007799	       0.446825
	 D(1,2,3,9)       =        -3.122896	    -178.928735
	 D(1,6,5,4)       =         0.007799	       0.446822
	 D(1,6,5,11)      =        -3.122896	    -178.928737
	*D(1,7,13,17)     =        -2.617994	    -150.000008
	 D(1,7,13,18)     =         0.445181	      25.506998
	 D(1,7,14,15)     =        -3.032165	    -173.730230
	 D(1,7,14,16)     =         0.187844	      10.762681
	 D(2,1,6,5)       =        -0.003906	      -0.223802
	 D(2,1,6,12)      =        -3.091437	    -177.126283
	 D(2,1,7,13)      =        -2.505167	    -143.535494
	 D(2,1,7,14)      =         0.636426	      36.464506
	 D(2,3,4,5)       =        -0.003942	      -0.225875
	 D(2,3,4,10)      =         3.137650	     179.774125
	 D(3,2,1,6)       =        -0.003906	      -0.223806
	 D(3,2,1,7)       =         3.137687	     179.776196
	 D(3,4,5,6)       =        -0.003942	      -0.225874
	 D(3,4,5,11)      =         3.126699	     179.146646
	 D(4,3,2,8)       =         3.095744	     177.373058
	 D(4,5,6,12)      =         3.095744	     177.373055
	 D(5,4,3,9)       =         3.126699	     179.146646
	 D(5,6,1,7)       =         3.137687	     179.776197
	 D(6,1,2,8)       =        -3.091437	    -177.126287
	 D(6,1,7,13)      =         0.636426	      36.464508
	 D(6,1,7,14)      =        -2.505167	    -143.535492
	 D(6,5,4,10)      =         3.137650	     179.774126
	 D(7,1,2,8)       =         0.050156	       2.873714
	 D(7,1,6,12)      =         0.050156	       2.873716
	 D(8,2,3,9)       =        -0.034950	      -2.002503
	 D(9,3,4,10)      =        -0.014894	      -0.853354
	 D(10,4,5,11)     =        -0.014894	      -0.853354
	 D(11,5,6,12)     =        -0.034950	      -2.002504
	 D(13,7,14,15)    =         0.109428	       6.269770
	 D(13,7,14,16)    =        -2.953748	    -169.237319
	 D(14,7,13,17)    =         0.523599	      29.999992
	 D(14,7,13,18)    =        -2.696412	    -154.493002

	Current energy   :      -381.4662370366

	Generating empirical Hessian (Schlegel '84) for each fragment.
	Taking RFO optimization step.
	Going to follow RFO solution 1.
	Using RFO vector 1.
	Norm of target step-size    0.37507
	Projected energy change by RFO approximation:        -0.0028239319

	Back-transformation to cartesian coordinates...
	Could not converge backtransformation.
	Using first guess instead.

	Back-transformation to cartesian coordinates to adjust frozen coordinates...
	Successfully converged to displaced geometry.

	--- Internal Coordinate Step in ANG or DEG, aJ/ANG or AJ/DEG ---
	 ---------------------------------------------------------------------------
	   Coordinate                Previous        Force       Change         New 
	   ----------                --------       ------       ------       ------
	    1 R(1,2)          =      1.407502     0.012269     0.002216     1.409718
	    2 R(1,6)          =      1.407503    -0.001232     0.000134     1.407637
	    3 R(1,7)          =      1.466870    -0.017557    -0.003065     1.463805
	    4 R(2,3)          =      1.391302    -0.005217    -0.000390     1.390911
	    5 R(2,8)          =      1.086388     0.000617     0.000246     1.086634
	    6 R(3,4)          =      1.398294     0.005353     0.000949     1.399243
	    7 R(3,9)          =      1.085142     0.000316     0.000493     1.085635
	    8 R(4,5)          =      1.398294     0.003700     0.001152     1.399446
	    9 R(4,10)         =      1.085649     0.000371     0.000266     1.085915
	   10 R(5,6)          =      1.391302    -0.001048     0.000152     1.391454
	   11 R(5,11)         =      1.085142     0.000035     0.000213     1.085355
	   12 R(6,12)         =      1.086386    -0.002785     0.000498     1.086885
	   13 R(7,13)         =      1.330061     0.052565     0.008356     1.338418
	   14 R(7,14)         =      1.330061    -0.012929    -0.001189     1.328872
	   15 R(13,17)        =      1.011575     0.018621     0.002664     1.014239
	   16 R(13,18)        =      1.013295    -0.016189     0.016869     1.030164
	   17 R(14,15)        =      1.013296     0.003688     0.000670     1.013966
	   18 R(14,16)        =      1.011575     0.005334     0.001133     1.012708
	   19 B(1,2,3)        =    119.655376     0.000007     0.044459   119.699835
	   20 B(1,2,8)        =    120.515689    -0.000007    -0.021681   120.494009
	   21 B(1,6,5)        =    119.655315    -0.000019    -0.093853   119.561461
	   22 B(1,6,12)       =    120.515729    -0.000054    -0.237286   120.278444
	   23 B(1,7,13)       =    119.935172     0.000167     0.403907   120.339079
	   24 B(1,7,14)       =    119.935135     0.000111     0.314425   120.249560
	   25 B(2,1,6)        =    120.161857     0.000013     0.053673   120.215530
	   26 B(2,1,7)        =    119.919082     0.000196     0.576601   120.495683
	   27 B(2,3,4)        =    120.050636    -0.000034    -0.126948   119.923688
	   28 B(2,3,9)        =    119.732108     0.000025     0.106412   119.838520
	   29 B(3,2,8)        =    119.756722     0.000000    -0.009503   119.747219
	   30 B(3,4,5)        =    120.423859     0.000027     0.089790   120.513649
	   31 B(3,4,10)       =    119.788070    -0.000016    -0.067280   119.720790
	   32 B(4,3,9)        =    120.214297     0.000008     0.018899   120.233196
	   33 B(4,5,6)        =    120.050677     0.000006     0.028183   120.078860
	   34 B(4,5,11)       =    120.214297    -0.000003     0.007254   120.221551
	   35 B(5,4,10)       =    119.788070    -0.000011    -0.022970   119.765100
	   36 B(5,6,12)       =    119.756743     0.000073     0.347194   120.103937
	   37 B(6,1,7)        =    119.919061    -0.000209    -0.630279   119.288782
	   38 B(6,5,11)       =    119.732067    -0.000004    -0.033419   119.698648
	   39 B(7,13,17)      =    119.886338     0.000535     2.190255   122.076594
	   40 B(7,13,18)      =    122.891418    -0.000571    -2.754230   120.137188
	   41 B(7,14,15)      =    122.891405    -0.000094    -0.448985   122.442420
	   42 B(7,14,16)      =    119.886393     0.000039     0.164913   120.051306
	   43 B(13,7,14)      =    120.129694    -0.000278    -0.955799   119.173894
	   44 B(15,14,16)     =    117.078146     0.000052     0.178493   117.256639
	   45 B(17,13,18)     =    117.078182     0.000017    -0.486064   116.592118
	   46 D(1,2,3,4)      =      0.446825    -0.000002    -0.361958     0.084867
	   47 D(1,2,3,9)      =   -178.928735    -0.000001    -0.208360  -179.137095
	   48 D(1,6,5,4)      =      0.446822     0.000002     0.367025     0.813847
	   49 D(1,6,5,11)     =   -178.928737     0.000001     0.094771  -178.833966
	   50 *D(1,7,13,17)   =   -150.000008    -0.000000    -0.000000  -150.000008
	   51 D(1,7,13,18)    =     25.506998    -0.000070    -8.421974    17.085024
	   52 D(1,7,14,15)    =   -173.730230    -0.000005    -1.079076  -174.809306
	   53 D(1,7,14,16)    =     10.762681     0.000006     0.327473    11.090154
	   54 D(2,1,6,5)      =     -0.223802    -0.000005    -0.784860    -1.008662
	   55 D(2,1,6,12)     =   -177.126283    -0.000008    -1.160107  -178.286390
	   56 D(2,1,7,13)     =   -143.535494    -0.000030    -5.673902  -149.209395
	   57 D(2,1,7,14)     =     36.464506     0.000007    -0.029598    36.434908
	   58 D(2,3,4,5)      =     -0.225875    -0.000000    -0.054223    -0.280098
	   59 D(2,3,4,10)     =    179.774125     0.000001     0.193358   179.967482
	   60 D(3,2,1,6)      =     -0.223806     0.000005     0.782877     0.559071
	   61 D(3,2,1,7)      =    179.776196     0.000005     0.810083   180.586278
	   62 D(3,4,5,6)      =     -0.225874     0.000000     0.051374    -0.174501
	   63 D(3,4,5,11)     =    179.146646     0.000002     0.324808   179.471454
	   64 D(4,3,2,8)      =    177.373058    -0.000001    -0.065914   177.307143
	   65 D(4,5,6,12)     =    177.373055     0.000005     0.723343   178.096398
	   66 D(5,4,3,9)      =    179.146646    -0.000001    -0.207888   178.938759
	   67 D(5,6,1,7)      =    179.776197    -0.000005    -0.811738   178.964459
	   68 D(6,1,2,8)      =   -177.126287     0.000003     0.484183  -176.642104
	   69 D(6,1,7,13)     =     36.464508    -0.000030    -5.646946    30.817561
	   70 D(6,1,7,14)     =   -143.535492     0.000007    -0.002642  -143.538135
	   71 D(6,5,4,10)     =    179.774126    -0.000001    -0.196316   179.577809
	   72 D(7,1,2,8)      =      2.873714     0.000003     0.511389     3.385103
	   73 D(7,1,6,12)     =      2.873716    -0.000008    -1.186986     1.686730
	   74 D(8,2,3,9)      =     -2.002503     0.000001     0.087684    -1.914819
	   75 D(9,3,4,10)     =     -0.853354     0.000000     0.039693    -0.813661
	   76 D(10,4,5,11)    =     -0.853354     0.000000     0.077118    -0.776236
	   77 D(11,5,6,12)    =     -2.002504     0.000003     0.451090    -1.551414
	   78 D(13,7,14,15)   =      6.269770     0.000032     4.499775    10.769545
	   79 D(13,7,14,16)   =   -169.237319     0.000042     5.906324  -163.330995
	   80 D(14,7,13,17)   =     29.999992    -0.000037    -5.583962    24.416031
	   81 D(14,7,13,18)   =   -154.493002    -0.000107   -14.005935  -168.498938
	 ---------------------------------------------------------------------------
	Successfully symmetrized geometry.

  ==> Convergence Check <==

  Measures of convergence in internal coordinates in au.
  Criteria marked as inactive (o), active & met (*), and active & unmet ( ).
  --------------------------------------------------------------------------------------------- ~
   Step     Total Energy     Delta E     MAX Force     RMS Force      MAX Disp      RMS Disp    ~
  --------------------------------------------------------------------------------------------- ~
    Convergence Criteria    1.00e-06 *    3.00e-04 *             o    1.20e-03 *             o  ~
  --------------------------------------------------------------------------------------------- ~
      1    -381.46623704   -3.81e+02      7.50e-03      1.86e-03 o    2.44e-01      4.09e-02 o  ~
  ---------------------------------------------------------------------------------------------

	Writing optimization data to binary file.
	Structure for next step:
	Cartesian Geometry (in Angstrom)
	    C    -0.0285902318   0.0313181621  -0.1791626005
	    C     0.0385831415   1.2425808168   0.5389148077
	    C     0.0570493917   1.2192113046   1.9295073166
	    C     0.0107688493  -0.0037953425   2.6077357264
	    C    -0.0600404830  -1.2077430101   1.8978456188
	    C    -0.0886683083  -1.1964363590   0.5067323370
	    C    -0.0360939600   0.0349626001  -1.6429443270
	    H     0.0303168903   2.1949460588   0.0157458601
	    H     0.0945786351   2.1512338246   2.4849615557
	    H     0.0258965196  -0.0182238538   3.6934494401
	    H    -0.0870812170  -2.1541036218   2.4285683619
	    H    -0.1124420355  -2.1321762224  -0.0456663294
	    N    -0.6819314676  -0.9233891349  -2.3180874003
	    N     0.6895842181   0.9232768216  -2.3139057346
	    H     0.6503760114   1.0062956470  -3.3237063058
	    H     1.3758054457   1.4880511100  -1.8284083713
	    H    -0.3789396253  -1.2339650968  -3.2348308406
	    H    -1.3844847743  -1.5075147043  -1.8422161147
			--------------------------
			 OPTKING Finished Execution 
			--------------------------

    Structure for next step:
    Molecular point group: c1
    Full point group: C1

    Geometry (in Angstrom), charge = 1, multiplicity = 1:

    C           -0.028590231765     0.031318162108    -0.179162600472
    C            0.038583141528     1.242580816842     0.538914807718
    C            0.057049391673     1.219211304576     1.929507316586
    C            0.010768849318    -0.003795342486     2.607735726445
    C           -0.060040483015    -1.207743010067     1.897845618823
    C           -0.088668308268    -1.196436358981     0.506732336990
    C           -0.036093960026     0.034962600087    -1.642944326988
    H            0.030316890273     2.194946058803     0.015745860097
    H            0.094578635123     2.151233824563     2.484961555654
    H            0.025896519648    -0.018223853767     3.693449440077
    H           -0.087081216979    -2.154103621823     2.428568361894
    H           -0.112442035548    -2.132176222415    -0.045666329443
    N           -0.681931467562    -0.923389134935    -2.318087400299
    N            0.689584218074     0.923276821602    -2.313905734602
    H            0.650376011392     1.006295646987    -3.323706305841
    H            1.375805445707     1.488051110012    -1.828408371310
    H           -0.378939625314    -1.233965096772    -3.234830840637
    H           -1.384484774259    -1.507514704335    -1.842216114692

gradient() will perform analytic gradient computation.

*** tstart() called on green.prib.upf.edu
*** at Sat Sep 29 20:25:16 2018

   => Loading Basis Set <=

    Name: 6-31G*
    Role: ORBITAL
    Keyword: BASIS
    atoms 1-7         entry C          line   111 file /shared/joao/test_parameterize/miniconda3/share/psi4/basis/6-31gs.gbs 
    atoms 8-12, 15-18 entry H          line    44 file /shared/joao/test_parameterize/miniconda3/share/psi4/basis/6-31gs.gbs 
    atoms 13-14       entry N          line   128 file /shared/joao/test_parameterize/miniconda3/share/psi4/basis/6-31gs.gbs 


         ---------------------------------------------------------
                                   SCF
            by Justin Turney, Rob Parrish, Andy Simmonett
                             and Daniel Smith
                              RKS Reference
                        4 Threads,   2861 MiB Core
         ---------------------------------------------------------

  ==> Geometry <==

    Molecular point group: c1
    Full point group: C1

    Geometry (in Angstrom), charge = 1, multiplicity = 1:

       Center              X                  Y                   Z               Mass       
    ------------   -----------------  -----------------  -----------------  -----------------
         C           -0.028590231765     0.031318162108    -0.179162600472    12.000000000000
         C            0.038583141528     1.242580816842     0.538914807718    12.000000000000
         C            0.057049391673     1.219211304576     1.929507316586    12.000000000000
         C            0.010768849318    -0.003795342486     2.607735726445    12.000000000000
         C           -0.060040483015    -1.207743010067     1.897845618823    12.000000000000
         C           -0.088668308268    -1.196436358981     0.506732336990    12.000000000000
         C           -0.036093960026     0.034962600087    -1.642944326988    12.000000000000
         H            0.030316890273     2.194946058803     0.015745860097     1.007825032070
         H            0.094578635123     2.151233824563     2.484961555654     1.007825032070
         H            0.025896519648    -0.018223853767     3.693449440077     1.007825032070
         H           -0.087081216979    -2.154103621823     2.428568361894     1.007825032070
         H           -0.112442035548    -2.132176222415    -0.045666329443     1.007825032070
         N           -0.681931467562    -0.923389134935    -2.318087400299    14.003074004780
         N            0.689584218074     0.923276821602    -2.313905734602    14.003074004780
         H            0.650376011392     1.006295646987    -3.323706305841     1.007825032070
         H            1.375805445707     1.488051110012    -1.828408371310     1.007825032070
         H           -0.378939625314    -1.233965096772    -3.234830840637     1.007825032070
         H           -1.384484774259    -1.507514704335    -1.842216114692     1.007825032070

  Running in c1 symmetry.

  Rotational constants: A =      0.12160  B =      0.03971  C =      0.03116 [cm^-1]
  Rotational constants: A =   3645.50968  B =   1190.46707  C =    934.10664 [MHz]
  Nuclear repulsion =  416.665188136380038

  Charge       = 1
  Multiplicity = 1
  Electrons    = 64
  Nalpha       = 32
  Nbeta        = 32

  ==> Algorithm <==

  SCF Algorithm Type is DF.
  DIIS enabled.
  MOM disabled.
  Fractional occupation disabled.
  Guess Type is READ.
  Energy threshold   = 1.00e-08
  Density threshold  = 1.00e-08
  Integral threshold = 0.00e+00

  ==> Primary Basis <==

  Basis Set: 6-31G*
    Blend: 6-31G*
    Number of shells: 72
    Number of basis function: 153
    Number of Cartesian functions: 153
    Spherical Harmonics?: false
    Max angular momentum: 2

  ==> DFT Potential <==

   => Composite Functional: B3LYP-D3ZERO <= 

    B3LYP-d3zero Hyb-GGA Exchange-Correlation Functional

    P. J. Stephens, F. J. Devlin, C. F. Chabalowski, and M. J. Frisch, J. Phys. Chem. 98, 11623 (1994)

    Deriv               =              1
    GGA                 =           TRUE
    Meta                =          FALSE

    Exchange Hybrid     =           TRUE
    MP2 Hybrid          =          FALSE

   => Exchange Functionals <=

    0.0800   Slater exchange
    0.7200         Becke 88

   => Exact (HF) Exchange <=

    0.2000               HF 

   => Correlation Functionals <=

    0.1900   Vosko, Wilk & Nusair (VWN5_RPA)
    0.8100   Lee, Yang & Parr

   => Molecular Quadrature <=

    Radial Scheme       =       TREUTLER
    Pruning Scheme      =           FLAT
    Nuclear Scheme      =       TREUTLER

    BS radius alpha     =              1
    Pruning alpha       =              1
    Radial Points       =             75
    Spherical Points    =            302
    Total Points        =         396963
    Total Blocks        =           3029
    Max Points          =            256
    Max Functions       =            149

   => -D3ZERO: Empirical Dispersion <=

    Grimme's -D3 (zero-damping) Dispersion Correction
    Grimme S.; Antony J.; Ehrlich S.; Krieg H. (2010), J. Chem. Phys., 132: 154104

        S6 =   1.000000E+00
        S8 =   1.703000E+00
       SR6 =   1.261000E+00
       SR8 =   1.000000E+00
    ALPHA6 =   1.400000E+01

   => Loading Basis Set <=

    Name: (6-31G* AUX)
    Role: JKFIT
    Keyword: DF_BASIS_SCF
    atoms 1-7         entry C          line   121 file /shared/joao/test_parameterize/miniconda3/share/psi4/basis/cc-pvdz-jkfit.gbs 
    atoms 8-12, 15-18 entry H          line    51 file /shared/joao/test_parameterize/miniconda3/share/psi4/basis/cc-pvdz-jkfit.gbs 
    atoms 13-14       entry N          line   171 file /shared/joao/test_parameterize/miniconda3/share/psi4/basis/cc-pvdz-jkfit.gbs 

  Reading orbitals from file 180, no projection.

  ==> Pre-Iterations <==

   -------------------------------------------------------
    Irrep   Nso     Nmo     Nalpha   Nbeta   Ndocc  Nsocc
   -------------------------------------------------------
     A        153     153       0       0       0       0
   -------------------------------------------------------
    Total     153     153      32      32      32       0
   -------------------------------------------------------

  ==> Integral Setup <==

  ==> DiskDFJK: Density-Fitted J/K Matrices <==

    J tasked:                  Yes
    K tasked:                  Yes
    wK tasked:                  No
    OpenMP threads:              4
    Integrals threads:           4
    Memory (MB):              2002
    Algorithm:                Core
    Integral Cache:           NONE
    Schwarz Cutoff:          1E-12
    Fitting Condition:       1E-12

   => Auxiliary Basis Set <=

  Basis Set: (6-31G* AUX)
    Blend: CC-PVDZ-JKFIT
    Number of shells: 297
    Number of basis function: 954
    Number of Cartesian functions: 954
    Spherical Harmonics?: false
    Max angular momentum: 3

  Minimum eigenvalue in the overlap matrix is 4.8846856765E-04.
  Using Symmetric Orthogonalization.

  SCF Guess: Orbitals guess was supplied from a previous computation.

  ==> Iterations <==

                           Total Energy        Delta E     RMS |[F,P]|

   @DF-RKS iter   0:  -381.44288736477074   -3.81443e+02   1.71193e-03 
   @DF-RKS iter   1:  -381.46744004095297   -2.45527e-02   2.59005e-04 
   @DF-RKS iter   2:  -381.46728143215705    1.58609e-04   3.85410e-04 DIIS
   @DF-RKS iter   3:  -381.46769672041722   -4.15288e-04   6.18324e-05 DIIS
   @DF-RKS iter   4:  -381.46770488684905   -8.16643e-06   3.28210e-05 DIIS
   @DF-RKS iter   5:  -381.46770773864029   -2.85179e-06   9.02557e-06 DIIS
   @DF-RKS iter   6:  -381.46770795572854   -2.17088e-07   3.66052e-06 DIIS
   @DF-RKS iter   7:  -381.46770799471057   -3.89820e-08   9.13849e-07 DIIS
   @DF-RKS iter   8:  -381.46770799709395   -2.38339e-09   2.64688e-07 DIIS
   @DF-RKS iter   9:  -381.46770799730200   -2.08047e-10   7.93614e-08 DIIS
   @DF-RKS iter  10:  -381.46770799731632   -1.43245e-11   3.99554e-08 DIIS
   @DF-RKS iter  11:  -381.46770799732104   -4.71800e-12   8.67215e-09 DIIS

  ==> Post-Iterations <==

    Orbital Energies [Eh]
    ---------------------

    Doubly Occupied:                                                      

       1A    -14.568093     2A    -14.564482     3A    -10.495819  
       4A    -10.373483     5A    -10.357964     6A    -10.357392  
       7A    -10.345520     8A    -10.341941     9A    -10.341816  
      10A     -1.180530    11A     -1.087126    12A     -1.014973  
      13A     -0.926659    14A     -0.903381    15A     -0.843392  
      16A     -0.782587    17A     -0.772036    18A     -0.740182  
      19A     -0.731594    20A     -0.687625    21A     -0.670120  
      22A     -0.627174    23A     -0.613879    24A     -0.584647  
      25A     -0.580136    26A     -0.570899    27A     -0.519214  
      28A     -0.506778    29A     -0.499209    30A     -0.470725  
      31A     -0.413632    32A     -0.406994  

    Virtual:                                                              

      33A     -0.223580    34A     -0.158282    35A     -0.127871  
      36A     -0.104988    37A     -0.070562    38A     -0.059153  
      39A     -0.038648    40A     -0.033269    41A      0.006527  
      42A      0.017654    43A      0.020569    44A      0.054517  
      45A      0.060807    46A      0.085936    47A      0.126997  
      48A      0.140290    49A      0.156141    50A      0.158457  
      51A      0.204277    52A      0.240155    53A      0.297674  
      54A      0.353099    55A      0.355687    56A      0.379396  
      57A      0.388309    58A      0.397567    59A      0.420473  
      60A      0.421274    61A      0.440739    62A      0.447290  
      63A      0.453026    64A      0.470206    65A      0.473820  
      66A      0.474800    67A      0.486430    68A      0.512491  
      69A      0.527962    70A      0.532671    71A      0.548935  
      72A      0.589803    73A      0.606391    74A      0.656430  
      75A      0.664641    76A      0.682371    77A      0.692647  
      78A      0.701143    79A      0.714610    80A      0.716115  
      81A      0.731777    82A      0.767637    83A      0.773506  
      84A      0.788918    85A      0.809615    86A      0.818446  
      87A      0.851907    88A      0.941469    89A      0.958128  
      90A      0.991569    91A      1.000566    92A      1.027012  
      93A      1.072289    94A      1.086138    95A      1.111634  
      96A      1.145944    97A      1.212302    98A      1.272363  
      99A      1.279065   100A      1.300900   101A      1.318027  
     102A      1.341399   103A      1.357448   104A      1.362225  
     105A      1.449552   106A      1.473799   107A      1.514949  
     108A      1.604725   109A      1.621571   110A      1.649619  
     111A      1.657047   112A      1.736881   113A      1.750371  
     114A      1.799218   115A      1.822770   116A      1.833570  
     117A      1.898921   118A      1.910244   119A      1.951750  
     120A      1.971839   121A      1.995461   122A      2.008355  
     123A      2.028448   124A      2.057200   125A      2.122243  
     126A      2.129284   127A      2.150624   128A      2.204474  
     129A      2.229558   130A      2.292986   131A      2.347694  
     132A      2.365523   133A      2.445046   134A      2.450540  
     135A      2.486706   136A      2.509778   137A      2.545974  
     138A      2.586246   139A      2.599935   140A      2.628957  
     141A      2.734971   142A      2.865757   143A      2.982672  
     144A      3.256373   145A      3.635769   146A      3.653031  
     147A      3.909708   148A      3.945309   149A      3.962172  
     150A      4.048820   151A      4.171606   152A      4.256019  
     153A      4.545254  

    Final Occupation by Irrep:
              A 
    DOCC [    32 ]

  Energy converged.

  @DF-RKS Final Energy:  -381.46770799732104

   => Energetics <=

    Nuclear Repulsion Energy =            416.6651881363800385
    One-Electron Energy =               -1328.5652960187690041
    Two-Electron Energy =                 574.8394993242633291
    DFT Exchange-Correlation Energy =     -44.3951486391953978
    Empirical Dispersion Energy =          -0.0119508000000000
    VV10 Nonlocal Energy =                  0.0000000000000000
    Total Energy =                       -381.4677079973210425



Properties will be evaluated at   0.000000,   0.000000,   0.000000 [a0]

Properties computed using the SCF density matrix

  Nuclear Dipole Moment: [e a0]
     X:    -0.7074      Y:     0.9720      Z:    -0.2349

  Electronic Dipole Moment: [e a0]
     X:     0.8724      Y:    -1.0699      Z:    -1.9075

  Dipole Moment: [e a0]
     X:     0.1649      Y:    -0.0979      Z:    -2.1424     Total:     2.1509

  Dipole Moment: [D]
     X:     0.4192      Y:    -0.2488      Z:    -5.4454     Total:     5.4671


*** tstop() called on green.prib.upf.edu at Sat Sep 29 20:25:39 2018
Module time:
	user time   =      85.25 seconds =       1.42 minutes
	system time =       0.38 seconds =       0.01 minutes
	total time  =         23 seconds =       0.38 minutes
Total time:
	user time   =     221.37 seconds =       3.69 minutes
	system time =       1.12 seconds =       0.02 minutes
	total time  =         60 seconds =       1.00 minutes

*** tstart() called on green.prib.upf.edu
*** at Sat Sep 29 20:25:39 2018


         ------------------------------------------------------------
                                   SCF GRAD                          
                          Rob Parrish, Justin Turney,                
                       Andy Simmonett, and Alex Sokolov              
         ------------------------------------------------------------

  ==> Geometry <==

    Molecular point group: c1
    Full point group: C1

    Geometry (in Angstrom), charge = 1, multiplicity = 1:

       Center              X                  Y                   Z               Mass       
    ------------   -----------------  -----------------  -----------------  -----------------
         C           -0.028590231765     0.031318162108    -0.179162600472    12.000000000000
         C            0.038583141528     1.242580816842     0.538914807718    12.000000000000
         C            0.057049391673     1.219211304576     1.929507316586    12.000000000000
         C            0.010768849318    -0.003795342486     2.607735726445    12.000000000000
         C           -0.060040483015    -1.207743010067     1.897845618823    12.000000000000
         C           -0.088668308268    -1.196436358981     0.506732336990    12.000000000000
         C           -0.036093960026     0.034962600087    -1.642944326988    12.000000000000
         H            0.030316890273     2.194946058803     0.015745860097     1.007825032070
         H            0.094578635123     2.151233824563     2.484961555654     1.007825032070
         H            0.025896519648    -0.018223853767     3.693449440077     1.007825032070
         H           -0.087081216979    -2.154103621823     2.428568361894     1.007825032070
         H           -0.112442035548    -2.132176222415    -0.045666329443     1.007825032070
         N           -0.681931467562    -0.923389134935    -2.318087400299    14.003074004780
         N            0.689584218074     0.923276821602    -2.313905734602    14.003074004780
         H            0.650376011392     1.006295646987    -3.323706305841     1.007825032070
         H            1.375805445707     1.488051110012    -1.828408371310     1.007825032070
         H           -0.378939625314    -1.233965096772    -3.234830840637     1.007825032070
         H           -1.384484774259    -1.507514704335    -1.842216114692     1.007825032070

  Nuclear repulsion =  416.665188136380038

  ==> Basis Set <==

  Basis Set: 6-31G*
    Blend: 6-31G*
    Number of shells: 72
    Number of basis function: 153
    Number of Cartesian functions: 153
    Spherical Harmonics?: false
    Max angular momentum: 2

  ==> DFJKGrad: Density-Fitted SCF Gradients <==

    Gradient:                    1
    J tasked:                  Yes
    K tasked:                  Yes
    wK tasked:                  No
    OpenMP threads:              4
    Integrals threads:           4
    Memory (MB):              2002
    Schwarz Cutoff:          0E+00
    Fitting Condition:       1E-12

   => Auxiliary Basis Set <=

  Basis Set: (6-31G* AUX)
    Blend: CC-PVDZ-JKFIT
    Number of shells: 297
    Number of basis function: 954
    Number of Cartesian functions: 954
    Spherical Harmonics?: false
    Max angular momentum: 3

  ==> DFT Potential <==

   => Composite Functional: B3LYP-D3ZERO <= 

    B3LYP-d3zero Hyb-GGA Exchange-Correlation Functional

    P. J. Stephens, F. J. Devlin, C. F. Chabalowski, and M. J. Frisch, J. Phys. Chem. 98, 11623 (1994)

    Deriv               =              1
    GGA                 =           TRUE
    Meta                =          FALSE

    Exchange Hybrid     =           TRUE
    MP2 Hybrid          =          FALSE

   => Exchange Functionals <=

    0.0800   Slater exchange
    0.7200         Becke 88

   => Exact (HF) Exchange <=

    0.2000               HF 

   => Correlation Functionals <=

    0.1900   Vosko, Wilk & Nusair (VWN5_RPA)
    0.8100   Lee, Yang & Parr

   => Molecular Quadrature <=

    Radial Scheme       =       TREUTLER
    Pruning Scheme      =           FLAT
    Nuclear Scheme      =       TREUTLER

    BS radius alpha     =              1
    Pruning alpha       =              1
    Radial Points       =             75
    Spherical Points    =            302
    Total Points        =         396963
    Total Blocks        =           3029
    Max Points          =            256
    Max Functions       =            149


  -Total Gradient:
     Atom            X                  Y                   Z
    ------   -----------------  -----------------  -----------------
       1        0.005865617320    -0.004432741456     0.000845151028
       2       -0.000261867829     0.000450425504     0.000173540196
       3       -0.000087378899     0.000151798943     0.000365550139
       4        0.000081833827     0.000411528832     0.000338129291
       5        0.000213588264     0.000072763943     0.000037377728
       6       -0.000027837740    -0.000069762538    -0.001229899445
       7       -0.006476360095     0.011510277910     0.000168345786
       8        0.000005249996     0.000225756563     0.000242936818
       9        0.000005748120     0.000336388592     0.000176671679
      10       -0.000088964228     0.000110372242     0.000154754228
      11       -0.000030231447    -0.000199102979    -0.000069400864
      12       -0.000720279756    -0.000265354559    -0.001284016281
      13        0.008879339571     0.006864082093    -0.008605537916
      14       -0.001025529613    -0.001905439768     0.000706191111
      15        0.000260721867    -0.000047482999    -0.000384862936
      16        0.001243663951    -0.000490954921     0.000305341091
      17        0.003762264841    -0.003988569410     0.001683242496
      18       -0.011599434599    -0.008736077136     0.006354961611


*** tstop() called on green.prib.upf.edu at Sat Sep 29 20:25:46 2018
Module time:
	user time   =      26.64 seconds =       0.44 minutes
	system time =       0.22 seconds =       0.00 minutes
	total time  =          7 seconds =       0.12 minutes
Total time:
	user time   =     248.08 seconds =       4.13 minutes
	system time =       1.35 seconds =       0.02 minutes
	total time  =         67 seconds =       1.12 minutes

			-----------------------------------------
			 OPTKING 2.0: for geometry optimizations 
			  - R.A. King,  Bethel University        
			-----------------------------------------
	At level 1: Red. Int., RFO, no backsteps, dynamic trust

	Previous internal coordinate definitions found.
	---Fragment 1 Geometry and Gradient---
	 C          -0.0540277081        0.0591827494       -0.3385682481
	 C           0.0729115708        2.3481374418        1.0184013955
	 C           0.1078077263        2.3039754638        3.6462403997
	 C           0.0203501760       -0.0071721579        4.9279063499
	 C          -0.1134600698       -2.2823035279        3.5864084621
	 C          -0.1675588193       -2.2609370539        0.9575853396
	 C          -0.0682076995        0.0660697391       -3.1047148296
	 H           0.0572906198        4.1478469276        0.0297553633
	 H           0.1787277184        4.0652427762        4.6958967909
	 H           0.0489373299       -0.0344380927        6.9796079274
	 H          -0.1645596514       -4.0706659071        4.5893290990
	 H          -0.2124846530       -4.0292291274       -0.0862968561
	 N          -1.2886637151       -1.7449525791       -4.3805503387
	 N           1.3031253177        1.7447403377       -4.3726481357
	 H           1.2290325449        1.9016231815       -6.2808946642
	 H           2.5998955045        2.8120090697       -3.4551910809
	 H          -0.7160921127       -2.3318560904       -6.1129443750
	 H          -2.6162970585       -2.8487899325       -3.4812839344
	             0.0058656173       -0.0044327415        0.0008451510
	            -0.0002618678        0.0004504255        0.0001735402
	            -0.0000873789        0.0001517989        0.0003655501
	             0.0000818338        0.0004115288        0.0003381293
	             0.0002135883        0.0000727639        0.0000373777
	            -0.0000278377       -0.0000697625       -0.0012298994
	            -0.0064763601        0.0115102779        0.0001683458
	             0.0000052500        0.0002257566        0.0002429368
	             0.0000057481        0.0003363886        0.0001766717
	            -0.0000889642        0.0001103722        0.0001547542
	            -0.0000302314       -0.0001991030       -0.0000694009
	            -0.0007202798       -0.0002653546       -0.0012840163
	             0.0088793396        0.0068640821       -0.0086055379
	            -0.0010255296       -0.0019054398        0.0007061911
	             0.0002607219       -0.0000474830       -0.0003848629
	             0.0012436640       -0.0004909549        0.0003053411
	             0.0037622648       -0.0039885694        0.0016832425
	            -0.0115994346       -0.0087360771        0.0063549616

	---Fragment 1 Intrafragment Coordinates---
	 - Coordinate -           - BOHR/RAD -       - ANG/DEG -
	 R(1,2)           =         2.663981	       1.409718
	 R(1,6)           =         2.660049	       1.407637
	 R(1,7)           =         2.766191	       1.463805
	 R(2,3)           =         2.628442	       1.390911
	 R(2,8)           =         2.053441	       1.086634
	 R(3,4)           =         2.644186	       1.399243
	 R(3,9)           =         2.051553	       1.085635
	 R(4,5)           =         2.644569	       1.399446
	 R(4,10)          =         2.052082	       1.085915
	 R(5,6)           =         2.629467	       1.391454
	 R(5,11)          =         2.051024	       1.085355
	 R(6,12)          =         2.053915	       1.086885
	 R(7,13)          =         2.529243	       1.338418
	 R(7,14)          =         2.511204	       1.328872
	 R(13,17)         =         1.916633	       1.014239
	 R(13,18)         =         1.946727	       1.030164
	 R(14,15)         =         1.916118	       1.013966
	 R(14,16)         =         1.913741	       1.012708
	 B(1,2,3)         =         2.089156	     119.699835
	 B(1,2,8)         =         2.103017	     120.494009
	 B(1,6,5)         =         2.086741	     119.561461
	 B(1,6,12)        =         2.099255	     120.278444
	 B(1,7,13)        =         2.100313	     120.339079
	 B(1,7,14)        =         2.098751	     120.249560
	 B(2,1,6)         =         2.098157	     120.215530
	 B(2,1,7)         =         2.103046	     120.495683
	 B(2,3,4)         =         2.093063	     119.923688
	 B(2,3,9)         =         2.091577	     119.838520
	 B(3,2,8)         =         2.089983	     119.747219
	 B(3,4,5)         =         2.103360	     120.513649
	 B(3,4,10)        =         2.089522	     119.720790
	 B(4,3,9)         =         2.098465	     120.233196
	 B(4,5,6)         =         2.095771	     120.078860
	 B(4,5,11)        =         2.098262	     120.221551
	 B(5,4,10)        =         2.090295	     119.765100
	 B(5,6,12)        =         2.096209	     120.103937
	 B(6,1,7)         =         2.081982	     119.288782
	 B(6,5,11)        =         2.089136	     119.698648
	 B(7,13,17)       =         2.130638	     122.076594
	 B(7,13,18)       =         2.096789	     120.137188
	 B(7,14,15)       =         2.137023	     122.442420
	 B(7,14,16)       =         2.095291	     120.051306
	 B(13,7,14)       =         2.079977	     119.173894
	 B(15,14,16)      =         2.046514	     117.256639
	 B(17,13,18)      =         2.034916	     116.592118
	 D(1,2,3,4)       =         0.001481	       0.084867
	 D(1,2,3,9)       =        -3.126532	    -179.137095
	 D(1,6,5,4)       =         0.014204	       0.813847
	 D(1,6,5,11)      =        -3.121242	    -178.833966
	*D(1,7,13,17)     =        -2.617994	    -150.000008
	 D(1,7,13,18)     =         0.298190	      17.085024
	 D(1,7,14,15)     =        -3.050998	    -174.809306
	 D(1,7,14,16)     =         0.193560	      11.090154
	 D(2,1,6,5)       =        -0.017604	      -1.008662
	 D(2,1,6,12)      =        -3.111685	    -178.286390
	 D(2,1,7,13)      =        -2.604195	    -149.209395
	 D(2,1,7,14)      =         0.635909	      36.434908
	 D(2,3,4,5)       =        -0.004889	      -0.280098
	 D(2,3,4,10)      =         3.141025	     179.967482
	 D(3,2,1,6)       =         0.009758	       0.559071
	 D(3,2,1,7)       =        -3.131360	    -179.413722
	 D(3,4,5,6)       =        -0.003046	      -0.174501
	 D(3,4,5,11)      =         3.132368	     179.471454
	 D(4,3,2,8)       =         3.094593	     177.307143
	 D(4,5,6,12)      =         3.108369	     178.096398
	 D(5,4,3,9)       =         3.123071	     178.938759
	 D(5,6,1,7)       =         3.123519	     178.964459
	 D(6,1,2,8)       =        -3.082986	    -176.642104
	 D(6,1,7,13)      =         0.537868	      30.817561
	 D(6,1,7,14)      =        -2.505213	    -143.538135
	 D(6,5,4,10)      =         3.134224	     179.577809
	 D(7,1,2,8)       =         0.059081	       3.385103
	 D(7,1,6,12)      =         0.029439	       1.686730
	 D(8,2,3,9)       =        -0.033420	      -1.914819
	 D(9,3,4,10)      =        -0.014201	      -0.813661
	 D(10,4,5,11)     =        -0.013548	      -0.776236
	 D(11,5,6,12)     =        -0.027077	      -1.551414
	 D(13,7,14,15)    =         0.187964	      10.769545
	 D(13,7,14,16)    =        -2.850664	    -163.330995
	 D(14,7,13,17)    =         0.426140	      24.416031
	 D(14,7,13,18)    =        -2.940861	    -168.498938

	Current energy   :      -381.4677079973

	Energy change for the previous step:
		Projected    :        -0.0028239319
		Actual       :        -0.0014709607

	Performing BFGS update.
	Previous computed or guess Hessian on step 1.
	Steps to be used in Hessian update: 1
	Taking RFO optimization step.
	Going to follow RFO solution 1.
	Using RFO vector 1.
	Norm of target step-size    0.17383
	Projected energy change by RFO approximation:        -0.0018869348

	Back-transformation to cartesian coordinates...
	Could not converge backtransformation.
	Using first guess instead.

	Back-transformation to cartesian coordinates to adjust frozen coordinates...
	Successfully converged to displaced geometry.

	--- Internal Coordinate Step in ANG or DEG, aJ/ANG or AJ/DEG ---
	 ---------------------------------------------------------------------------
	   Coordinate                Previous        Force       Change         New 
	   ----------                --------       ------       ------       ------
	    1 R(1,2)          =      1.409718    -0.009161    -0.000752     1.408966
	    2 R(1,6)          =      1.407637     0.010805     0.001274     1.408911
	    3 R(1,7)          =      1.463805     0.001670    -0.000153     1.463653
	    4 R(2,3)          =      1.390911    -0.003780    -0.000506     1.390406
	    5 R(2,8)          =      1.086634    -0.000663    -0.000040     1.086594
	    6 R(3,4)          =      1.399243    -0.002366    -0.000149     1.399094
	    7 R(3,9)          =      1.085635    -0.003132    -0.000431     1.085204
	    8 R(4,5)          =      1.399446    -0.008765    -0.000893     1.398553
	    9 R(4,10)         =      1.085915    -0.001262    -0.000151     1.085764
	   10 R(5,6)          =      1.391454    -0.004489    -0.000450     1.391003
	   11 R(5,11)         =      1.085355    -0.001160    -0.000130     1.085226
	   12 R(6,12)         =      1.086885    -0.007382    -0.001006     1.085878
	   13 R(7,13)         =      1.338418    -0.032771    -0.000848     1.337569
	   14 R(7,14)         =      1.328872     0.013925     0.001082     1.329954
	   15 R(13,17)        =      1.014239    -0.006779    -0.000311     1.013928
	   16 R(13,18)        =      1.030164    -0.130174    -0.015279     1.014885
	   17 R(14,15)        =      1.013966    -0.003033     0.000275     1.014241
	   18 R(14,16)        =      1.012708    -0.005898    -0.000495     1.012213
	   19 B(1,2,3)        =    119.699835     0.000024     0.061824   119.761659
	   20 B(1,2,8)        =    120.494009    -0.000037    -0.126014   120.367994
	   21 B(1,6,5)        =    119.561461     0.000035     0.090708   119.652169
	   22 B(1,6,12)       =    120.278444     0.000057     0.173134   120.451577
	   23 B(1,7,13)       =    120.339079     0.000246     0.703194   121.042273
	   24 B(1,7,14)       =    120.249560    -0.000141    -0.197355   120.052205
	   25 B(2,1,6)        =    120.215530    -0.000066    -0.139485   120.076045
	   26 B(2,1,7)        =    120.495683    -0.000200    -0.387297   120.108386
	   27 B(2,3,4)        =    119.923688     0.000023     0.031132   119.954819
	   28 B(2,3,9)        =    119.838520    -0.000010    -0.004346   119.834174
	   29 B(3,2,8)        =    119.747219     0.000013     0.064699   119.811918
	   30 B(3,4,5)        =    120.513649    -0.000004    -0.010406   120.503243
	   31 B(3,4,10)       =    119.720790     0.000010     0.035688   119.756478
	   32 B(4,3,9)        =    120.233196    -0.000013    -0.026675   120.206521
	   33 B(4,5,6)        =    120.078860    -0.000012    -0.029512   120.049348
	   34 B(4,5,11)       =    120.221551    -0.000006    -0.031680   120.189870
	   35 B(5,4,10)       =    119.765100    -0.000007    -0.024828   119.740272
	   36 B(5,6,12)       =    120.103937    -0.000093    -0.287967   119.815969
	   37 B(6,1,7)        =    119.288782     0.000265     0.520487   119.809269
	   38 B(6,5,11)       =    119.698648     0.000018     0.058784   119.757432
	   39 B(7,13,17)      =    122.076594     0.000060     0.221221   122.297815
	   40 B(7,13,18)      =    120.137188    -0.000104    -1.273543   118.863645
	   41 B(7,14,15)      =    122.442420    -0.000019    -0.081274   122.361147
	   42 B(7,14,16)      =    120.051306     0.000027     0.177891   120.229197
	   43 B(13,7,14)      =    119.173894    -0.000092    -0.291198   118.882696
	   44 B(15,14,16)     =    117.256639    -0.000000     0.048606   117.305245
	   45 B(17,13,18)     =    116.592118     0.000018    -0.247138   116.344980
	   46 D(1,2,3,4)      =      0.084867     0.000000     0.028431     0.113298
	   47 D(1,2,3,9)      =   -179.137095     0.000000     0.019212  -179.117883
	   48 D(1,6,5,4)      =      0.813847    -0.000002    -0.226024     0.587823
	   49 D(1,6,5,11)     =   -178.833966     0.000001     0.086228  -178.747738
	   50 *D(1,7,13,17)   =   -150.000008     0.000000    -0.000000  -150.000008
	   51 D(1,7,13,18)    =     17.085024    -0.000032    -5.661362    11.423663
	   52 D(1,7,14,15)    =   -174.809306     0.000023     2.659567  -172.149739
	   53 D(1,7,14,16)    =     11.090154     0.000003     0.576610    11.666764
	   54 D(2,1,6,5)      =     -1.008662     0.000004     0.421745    -0.586916
	   55 D(2,1,6,12)     =   -178.286390     0.000009     0.963395  -177.322995
	   56 D(2,1,7,13)     =   -149.209395     0.000022     2.554874  -146.654521
	   57 D(2,1,7,14)     =     36.434908    -0.000014    -1.332075    35.102834
	   58 D(2,3,4,5)      =     -0.280098     0.000001     0.167031    -0.113068
	   59 D(2,3,4,10)     =    179.967482    -0.000001    -0.111946   179.855536
	   60 D(3,2,1,6)      =      0.559071    -0.000003    -0.323367     0.235704
	   61 D(3,2,1,7)      =   -179.413722     0.000003     0.564146  -178.849576
	   62 D(3,4,5,6)      =     -0.174501    -0.000000    -0.066987    -0.241487
	   63 D(3,4,5,11)     =    179.471454    -0.000003    -0.380279   179.091175
	   64 D(4,3,2,8)      =    177.307143     0.000000     0.036892   177.344035
	   65 D(4,5,6,12)     =    178.096398    -0.000006    -0.751524   177.344875
	   66 D(5,4,3,9)      =    178.938759     0.000001     0.176462   179.115221
	   67 D(5,6,1,7)      =    178.964459    -0.000002    -0.463346   178.501112
	   68 D(6,1,2,8)      =   -176.642104    -0.000003    -0.337299  -176.979403
	   69 D(6,1,7,13)     =     30.817561     0.000027     3.440187    34.257748
	   70 D(6,1,7,14)     =   -143.538135    -0.000008    -0.446762  -143.984896
	   71 D(6,5,4,10)     =    179.577809     0.000002     0.212094   179.789904
	   72 D(7,1,2,8)      =      3.385103     0.000003     0.550213     3.935317
	   73 D(7,1,6,12)     =      1.686730     0.000003     0.078303     1.765033
	   74 D(8,2,3,9)      =     -1.914819    -0.000000     0.027673    -1.887146
	   75 D(9,3,4,10)     =     -0.813661    -0.000001    -0.102514    -0.916175
	   76 D(10,4,5,11)    =     -0.776236    -0.000001    -0.101199    -0.877434
	   77 D(11,5,6,12)    =     -1.551414    -0.000004    -0.439272    -1.990686
	   78 D(13,7,14,15)   =     10.769545    -0.000016    -1.199719     9.569827
	   79 D(13,7,14,16)   =   -163.330995    -0.000036    -3.282676  -166.613670
	   80 D(14,7,13,17)   =     24.416031     0.000034     3.846765    28.262795
	   81 D(14,7,13,18)   =   -168.498938     0.000002    -1.814597  -170.313534
	 ---------------------------------------------------------------------------
	Successfully symmetrized geometry.

  ==> Convergence Check <==

  Measures of convergence in internal coordinates in au.
  Criteria marked as inactive (o), active & met (*), and active & unmet ( ).
  ---------------------------------------------------------------------------------------------
   Step     Total Energy     Delta E     MAX Force     RMS Force      MAX Disp      RMS Disp   
  ---------------------------------------------------------------------------------------------
    Convergence Criteria    1.00e-06 *    3.00e-04 *             o    1.20e-03 *             o
  ---------------------------------------------------------------------------------------------
      2    -381.46770800   -1.47e-03      1.58e-02      2.04e-03 o    9.88e-02      1.93e-02 o  ~
  ---------------------------------------------------------------------------------------------

	Writing optimization data to binary file.
	Structure for next step:
	Cartesian Geometry (in Angstrom)
	    C    -0.0291811408   0.0144725474  -0.1800032227
	    C     0.0389617294   1.2298220630   0.5295502505
	    C     0.0553021179   1.2173794941   1.9198044563
	    C     0.0065177947   0.0003092307   2.6081526530
	    C    -0.0611687098  -1.2087529288   1.9084828254
	    C    -0.0855506951  -1.2082590574   0.5176932711
	    C    -0.0214304549   0.0173526737  -1.6436325567
	    H     0.0332564823   2.1774150492  -0.0021660150
	    H     0.0932873900   2.1533626042   2.4676735364
	    H     0.0218283426  -0.0057657410   3.6937920538
	    H    -0.0839355692  -2.1505152963   2.4472594690
	    H    -0.0945008558  -2.1502044509  -0.0224831913
	    N    -0.7030813321  -0.8998071013  -2.3388029041
	    N     0.6984532875   0.9197668590  -2.3040811633
	    H     0.6401168428   1.0296986291  -3.3106574213
	    H     1.3757235367   1.4897884058  -1.8132097858
	    H    -0.4034685249  -1.2195312401  -3.2531650116
	    H    -1.3664432413  -1.4920027405  -1.8496742439
			--------------------------
			 OPTKING Finished Execution 
			--------------------------

    Structure for next step:
    Molecular point group: c1
    Full point group: C1

    Geometry (in Angstrom), charge = 1, multiplicity = 1:

    C           -0.029181140802     0.014472547388    -0.180003222749
    C            0.038961729437     1.229822062994     0.529550250524
    C            0.055302117912     1.217379494087     1.919804456325
    C            0.006517794700     0.000309230688     2.608152652980
    C           -0.061168709812    -1.208752928805     1.908482825399
    C           -0.085550695078    -1.208259057367     0.517693271139
    C           -0.021430454901     0.017352673744    -1.643632556670
    H            0.033256482338     2.177415049206    -0.002166014996
    H            0.093287389952     2.153362604217     2.467673536428
    H            0.021828342585    -0.005765740960     3.693792053818
    H           -0.083935569244    -2.150515296320     2.447259469011
    H           -0.094500855765    -2.150204450918    -0.022483191271
    N           -0.703081332116    -0.899807101340    -2.338802904060
    N            0.698453287539     0.919766859021    -2.304081163289
    H            0.640116842808     1.029698629130    -3.310657421301
    H            1.375723536671     1.489788405768    -1.813209785791
    H           -0.403468524906    -1.219531240082    -3.253165011632
    H           -1.366443241316    -1.492002740451    -1.849674243867

gradient() will perform analytic gradient computation.

*** tstart() called on green.prib.upf.edu
*** at Sat Sep 29 20:25:46 2018

   => Loading Basis Set <=

    Name: 6-31G*
    Role: ORBITAL
    Keyword: BASIS
    atoms 1-7         entry C          line   111 file /shared/joao/test_parameterize/miniconda3/share/psi4/basis/6-31gs.gbs 
    atoms 8-12, 15-18 entry H          line    44 file /shared/joao/test_parameterize/miniconda3/share/psi4/basis/6-31gs.gbs 
    atoms 13-14       entry N          line   128 file /shared/joao/test_parameterize/miniconda3/share/psi4/basis/6-31gs.gbs 


         ---------------------------------------------------------
                                   SCF
            by Justin Turney, Rob Parrish, Andy Simmonett
                             and Daniel Smith
                              RKS Reference
                        4 Threads,   2861 MiB Core
         ---------------------------------------------------------

  ==> Geometry <==

    Molecular point group: c1
    Full point group: C1

    Geometry (in Angstrom), charge = 1, multiplicity = 1:

       Center              X                  Y                   Z               Mass       
[...]
	             0.0000045236       -0.0000266079       -0.0000286241
	            -0.0000324630        0.0000377205        0.0000406219
	            -0.0036484617        0.0020395298        0.0010402752
	            -0.0000010307       -0.0000068013       -0.0000038211
	            -0.0000030965        0.0000003347        0.0000040788
	            -0.0000178700        0.0000036674       -0.0000013163
	            -0.0000027569        0.0000019005       -0.0000013367
	             0.0000027960       -0.0000167629       -0.0000052322
	            -0.0025214972        0.0047713757       -0.0035187035
	            -0.0000184358        0.0000756964       -0.0000409654
	             0.0000070468       -0.0000201492       -0.0000012902
	            -0.0000087254       -0.0000151613        0.0000010180
	             0.0030957913       -0.0043201383        0.0024954134
	            -0.0000669231       -0.0000685161        0.0000198949

	---Fragment 1 Intrafragment Coordinates---
	 - Coordinate -           - BOHR/RAD -       - ANG/DEG -
	 R(1,2)           =         2.662123	       1.408735
	 R(1,6)           =         2.661237	       1.408266
	 R(1,7)           =         2.765828	       1.463613
	 R(2,3)           =         2.627725	       1.390532
	 R(2,8)           =         2.053114	       1.086461
	 R(3,4)           =         2.643413	       1.398834
	 R(3,9)           =         2.050590	       1.085125
	 R(4,5)           =         2.642702	       1.398458
	 R(4,10)          =         2.051656	       1.085689
	 R(5,6)           =         2.628540	       1.390964
	 R(5,11)          =         2.050580	       1.085120
	 R(6,12)          =         2.052777	       1.086283
	 R(7,13)          =         2.523708	       1.335489
	 R(7,14)          =         2.513262	       1.329961
	 R(13,17)         =         1.915993	       1.013900
	 R(13,18)         =         1.912768	       1.012193
	 R(14,15)         =         1.915362	       1.013566
	 R(14,16)         =         1.911741	       1.011650
	 B(1,2,3)         =         2.089914	     119.743254
	 B(1,2,8)         =         2.101209	     120.390414
	 B(1,6,5)         =         2.089021	     119.692092
	 B(1,6,12)        =         2.104097	     120.555882
	 B(1,7,13)        =         2.107552	     120.753862
	 B(1,7,14)        =         2.095575	     120.067606
	 B(2,1,6)         =         2.095528	     120.064938
	 B(2,1,7)         =         2.096023	     120.093262
	 B(2,3,4)         =         2.094146	     119.985714
	 B(2,3,9)         =         2.091057	     119.808718
	 B(3,2,8)         =         2.090851	     119.796910
	 B(3,4,5)         =         2.102694	     120.475519
	 B(3,4,10)        =         2.090307	     119.765768
	 B(4,3,9)         =         2.097910	     120.201373
	 B(4,5,6)         =         2.095016	     120.035591
	 B(4,5,11)        =         2.097982	     120.205486
	 B(5,4,10)        =         2.090183	     119.758646
	 B(5,6,12)        =         2.088730	     119.675442
	 B(6,1,7)         =         2.091605	     119.840131
	 B(6,5,11)        =         2.090146	     119.756554
	 B(7,13,17)       =         2.127819	     121.915026
	 B(7,13,18)       =         2.074468	     118.858257
	 B(7,14,15)       =         2.135820	     122.373490
	 B(7,14,16)       =         2.098459	     120.232861
	 B(13,7,14)       =         2.079788	     119.163064
	 B(15,14,16)      =         2.048519	     117.371478
	 B(17,13,18)      =         2.023568	     115.941933
	 D(1,2,3,4)       =         0.004410	       0.252687
	 D(1,2,3,9)       =        -3.124207	    -179.003862
	 D(1,6,5,4)       =         0.010178	       0.583145
	 D(1,6,5,11)      =        -3.121662	    -178.858034
	*D(1,7,13,17)     =        -2.617994	    -150.000008
	 D(1,7,13,18)     =         0.151753	       8.694819
	 D(1,7,14,15)     =        -3.004521	    -172.146360
	 D(1,7,14,16)     =         0.167761	       9.612024
	 D(2,1,6,5)       =        -0.009659	      -0.553434
	 D(2,1,6,12)      =        -3.095534	    -177.361009
	 D(2,1,7,13)      =        -2.530515	    -144.987811
	 D(2,1,7,14)      =         0.636255	      36.454743
	 D(2,3,4,5)       =        -0.003918	      -0.224482
	 D(2,3,4,10)      =         3.139321	     179.869854
	 D(3,2,1,6)       =         0.002348	       0.134555
	 D(3,2,1,7)       =        -3.131029	    -179.394730
	 D(3,4,5,6)       =        -0.003454	      -0.197890
	 D(3,4,5,11)      =         3.128341	     179.240757
	 D(4,3,2,8)       =         3.093335	     177.235018
	 D(4,5,6,12)      =         3.096547	     177.419078
	 D(5,4,3,9)       =         3.124648	     179.029120
	 D(5,6,1,7)       =         3.123739	     178.977048
	 D(6,1,2,8)       =        -3.086259	    -176.829589
	 D(6,1,7,13)      =         0.619275	      35.481841
	 D(6,1,7,14)      =        -2.497140	    -143.075604
	 D(6,5,4,10)      =         3.136492	     179.707781
	 D(7,1,2,8)       =         0.063550	       3.641126
	 D(7,1,6,12)      =         0.037864	       2.169473
	 D(8,2,3,9)       =        -0.035282	      -2.021531
	 D(9,3,4,10)      =        -0.015299	      -0.876544
	 D(10,4,5,11)     =        -0.014898	      -0.853572
	 D(11,5,6,12)     =        -0.035292	      -2.022100
	 D(13,7,14,15)    =         0.161849	       9.273286
	 D(13,7,14,16)    =        -2.949054	    -168.968329
	 D(14,7,13,17)    =         0.498646	      28.570328
	 D(14,7,13,18)    =        -3.014792	    -172.734845

	Current energy   :      -381.4685321527

	Energy change for the previous step:
		Projected    :        -0.0000031385
		Actual       :        -0.0000009792

	Performing BFGS update.
	Previous computed or guess Hessian on step 1.
	Steps to be used in Hessian update: 5 4
	Taking RFO optimization step.
	Going to follow RFO solution 1.
	Rejecting RFO root 1 because normalization gives large value.
	Using RFO vector 2.
	Norm of target step-size    0.00231
	Projected energy change by RFO approximation:         0.0000002766

	Back-transformation to cartesian coordinates...
	Successfully converged to displaced geometry.

	Back-transformation to cartesian coordinates to adjust frozen coordinates...
	Successfully converged to displaced geometry.

	--- Internal Coordinate Step in ANG or DEG, aJ/ANG or AJ/DEG ---
	 ---------------------------------------------------------------------------
	   Coordinate                Previous        Force       Change         New 
	   ----------                --------       ------       ------       ------
	    1 R(1,2)          =      1.408735    -0.000407    -0.000064     1.408671
	    2 R(1,6)          =      1.408266    -0.000054    -0.000021     1.408245
	    3 R(1,7)          =      1.463613     0.000060     0.000042     1.463655
	    4 R(2,3)          =      1.390532     0.000004     0.000003     1.390536
	    5 R(2,8)          =      1.086461     0.000040     0.000009     1.086470
	    6 R(3,4)          =      1.398834     0.000123     0.000015     1.398849
	    7 R(3,9)          =      1.085125    -0.000026    -0.000004     1.085121
	    8 R(4,5)          =      1.398458    -0.000169    -0.000024     1.398433
	    9 R(4,10)         =      1.085689    -0.000001    -0.000001     1.085689
	   10 R(5,6)          =      1.390964     0.000077     0.000015     1.390979
	   11 R(5,11)         =      1.085120     0.000012     0.000002     1.085122
	   12 R(6,12)         =      1.086283    -0.000134    -0.000022     1.086261
	   13 R(7,13)         =      1.335489     0.000103     0.000004     1.335493
	   14 R(7,14)         =      1.329961    -0.000278    -0.000046     1.329915
	   15 R(13,17)        =      1.013900    -0.000195    -0.000020     1.013880
	   16 R(13,18)        =      1.012193    -0.000774    -0.000102     1.012092
	   17 R(14,15)        =      1.013566     0.000025     0.000008     1.013573
	   18 R(14,16)        =      1.011650     0.000109     0.000013     1.011663
	   19 B(1,2,3)        =    119.743254    -0.000001    -0.005396   119.737859
	   20 B(1,2,8)        =    120.390414     0.000001     0.005404   120.395817
	   21 B(1,6,5)        =    119.692092    -0.000001    -0.004706   119.687386
	   22 B(1,6,12)       =    120.555882     0.000000     0.000971   120.556852
	   23 B(1,7,13)       =    120.753862    -0.000001    -0.006084   120.747779
	   24 B(1,7,14)       =    120.067606    -0.000002    -0.004425   120.063182
	   25 B(2,1,6)        =    120.064938     0.000003     0.009060   120.073998
	   26 B(2,1,7)        =    120.093262    -0.000001    -0.002711   120.090551
	   27 B(2,3,4)        =    119.985714     0.000000     0.000546   119.986260
	   28 B(2,3,9)        =    119.808718    -0.000000    -0.002212   119.806506
	   29 B(3,2,8)        =    119.796910     0.000000    -0.000563   119.796346
	   30 B(3,4,5)        =    120.475519     0.000000     0.001346   120.476865
	   31 B(3,4,10)       =    119.765768     0.000000     0.000504   119.766272
	   32 B(4,3,9)        =    120.201373     0.000000     0.001831   120.203204
	   33 B(4,5,6)        =    120.035591    -0.000000    -0.000726   120.034864
	   34 B(4,5,11)       =    120.205486     0.000000     0.001299   120.206785
	   35 B(5,4,10)       =    119.758646    -0.000000    -0.001812   119.756834
	   36 B(5,6,12)       =    119.675442     0.000001     0.004564   119.680006
	   37 B(6,1,7)        =    119.840131    -0.000002    -0.006615   119.833516
	   38 B(6,5,11)       =    119.756554     0.000000    -0.000654   119.755899
	   39 B(7,13,17)      =    121.915026     0.000002     0.010254   121.925280
	   40 B(7,13,18)      =    118.858257    -0.000003    -0.016248   118.842009
	   41 B(7,14,15)      =    122.373490     0.000000     0.005113   122.378604
	   42 B(7,14,16)      =    120.232861     0.000001     0.001282   120.234142
	   43 B(13,7,14)      =    119.163064     0.000003     0.010514   119.173578
	   44 B(15,14,16)     =    117.371478    -0.000001    -0.004348   117.367129
	   45 B(17,13,18)     =    115.941933     0.000001     0.000044   115.941977
	   46 D(1,2,3,4)      =      0.252687     0.000000     0.016183     0.268870
	   47 D(1,2,3,9)      =   -179.003862    -0.000000     0.001474  -179.002388
	   48 D(1,6,5,4)      =      0.583145    -0.000000    -0.010331     0.572814
	   49 D(1,6,5,11)     =   -178.858034     0.000000    -0.000782  -178.858816
	   50 *D(1,7,13,17)   =   -150.000008     0.000000     0.000000  -150.000008
	   51 D(1,7,13,18)    =      8.694819     0.000000    -0.018725     8.676094
	   52 D(1,7,14,15)    =   -172.146360     0.000000     0.048793  -172.097567
	   53 D(1,7,14,16)    =      9.612024    -0.000000    -0.034247     9.577777
	   54 D(2,1,6,5)      =     -0.553434     0.000000     0.028762    -0.524672
	   55 D(2,1,6,12)     =   -177.361009     0.000000     0.011304  -177.349705
	   56 D(2,1,7,13)     =   -144.987811    -0.000000    -0.006492  -144.994303
	   57 D(2,1,7,14)     =     36.454743     0.000000    -0.006915    36.447828
	   58 D(2,3,4,5)      =     -0.224482     0.000000     0.002274    -0.222208
	   59 D(2,3,4,10)     =    179.869854    -0.000000    -0.029727   179.840127
	   60 D(3,2,1,6)      =      0.134555    -0.000000    -0.031712     0.102843
	   61 D(3,2,1,7)      =   -179.394730     0.000000     0.004417  -179.390313
	   62 D(3,4,5,6)      =     -0.197890    -0.000000    -0.005258    -0.203148
	   63 D(3,4,5,11)     =    179.240757    -0.000000    -0.014860   179.225897
	   64 D(4,3,2,8)      =    177.235018     0.000000     0.004319   177.239337
	   65 D(4,5,6,12)     =    177.419078     0.000000     0.006860   177.425938
	   66 D(5,4,3,9)      =    179.029120     0.000000     0.017011   179.046130
	   67 D(5,6,1,7)      =    178.977048    -0.000000    -0.007256   178.969793
	   68 D(6,1,2,8)      =   -176.829589    -0.000000    -0.019590  -176.849180
	   69 D(6,1,7,13)     =     35.481841    -0.000000     0.029476    35.511317
	   70 D(6,1,7,14)     =   -143.075604     0.000000     0.029053  -143.046552
	   71 D(6,5,4,10)     =    179.707781     0.000000     0.026742   179.734523
	   72 D(7,1,2,8)      =      3.641126     0.000000     0.016539     3.657665
	   73 D(7,1,6,12)     =      2.169473    -0.000000    -0.024713     2.144760
	   74 D(8,2,3,9)      =     -2.021531    -0.000000    -0.010390    -2.031921
	   75 D(9,3,4,10)     =     -0.876544    -0.000000    -0.014990    -0.891535
	   76 D(10,4,5,11)    =     -0.853572     0.000000     0.017140    -0.836433
	   77 D(11,5,6,12)    =     -2.022100     0.000000     0.016408    -2.005692
	   78 D(13,7,14,15)   =      9.273286     0.000000     0.048611     9.321897
	   79 D(13,7,14,16)   =   -168.968329     0.000000    -0.034428  -169.002758
	   80 D(14,7,13,17)   =     28.570328    -0.000000     0.000209    28.570537
	   81 D(14,7,13,18)   =   -172.734845    -0.000000    -0.018517  -172.753361
	 ---------------------------------------------------------------------------
	Successfully symmetrized geometry.

  ==> Convergence Check <==

  Measures of convergence in internal coordinates in au.
  Criteria marked as inactive (o), active & met (*), and active & unmet ( ).
  ---------------------------------------------------------------------------------------------
   Step     Total Energy     Delta E     MAX Force     RMS Force      MAX Disp      RMS Disp   
  ---------------------------------------------------------------------------------------------
    Convergence Criteria    1.00e-06 *    3.00e-04 *             o    1.20e-03 *             o
  ---------------------------------------------------------------------------------------------
      6    -381.46853215   -9.79e-07 *    9.39e-05 *    1.78e-05 o    8.52e-04 *    2.56e-04 o  ~
  ---------------------------------------------------------------------------------------------


  **** Optimization is complete! (in 6 steps) ****

  ==> Optimization Summary <==

  Measures of convergence in internal coordinates in au.
  --------------------------------------------------------------------------------------------------------------- ~
   Step         Total Energy             Delta E       MAX Force       RMS Force        MAX Disp        RMS Disp  ~
  --------------------------------------------------------------------------------------------------------------- ~
      1    -381.466237036591   -381.466237036591      0.00750370      0.00185829      0.24444969      0.04092470  ~
      2    -381.467707997321     -0.001470960730      0.01580027      0.00203610      0.09880940      0.01931240  ~
      3    -381.468460510092     -0.000752512771      0.00256395      0.00047368      0.04295846      0.00860152  ~
      4    -381.468523272711     -0.000062762619      0.00090083      0.00016788      0.01207396      0.00253404  ~
      5    -381.468531173502     -0.000007900791      0.00025688      0.00004971      0.00539812      0.00115845  ~
      6    -381.468532152695     -0.000000979193      0.00009393      0.00001779      0.00085159      0.00025622  ~
  --------------------------------------------------------------------------------------------------------------- ~

	Writing optimization data to binary file.
	Final energy is   -381.4685321526948
	Final (previous) structure:
	Cartesian Geometry (in Angstrom)
	    C    -0.0212968703   0.0139560710  -0.1819790139
	    C     0.0394044468   1.2292288870   0.5279236140
	    C     0.0486692342   1.2162229713   1.9183642691
	    C     0.0031497111  -0.0008264733   2.6064443973
	    C    -0.0565500235  -1.2097735055   1.9060396013
	    C    -0.0752111037  -1.2084372895   0.5152018947
	    C    -0.0180963771   0.0180664915  -1.6455826966
	    H     0.0293670807   2.1770373831  -0.0030714486
	    H     0.0790475598   2.1523094378   2.4663757798
	    H     0.0126947411  -0.0069068036   3.6920747968
	    H    -0.0792899209  -2.1518524541   2.4440506210
	    H    -0.0791466469  -2.1517245019  -0.0235039190
	    N    -0.7222298024  -0.8851385559  -2.3325669635
	    N     0.7136522166   0.9095706197  -2.3078222547
	    H     0.6538681774   1.0212417483  -3.3134419645
	    H     1.3790429648   1.4900516851  -1.8141299897
	    H    -0.4297406588  -1.2098448674  -3.2474486517
	    H    -1.3626477288  -1.4886518437  -1.8323950717
	Saving final (previous) structure.
	Removing binary optimization data file.
			--------------------------
			 OPTKING Finished Execution 
			--------------------------

    Final optimized geometry and variables:
    Molecular point group: c1
    Full point group: C1

    Geometry (in Angstrom), charge = 1, multiplicity = 1:

    C           -0.021296870260     0.013956070962    -0.181979013916
    C            0.039404446775     1.229228887028     0.527923613992
    C            0.048669234234     1.216222971267     1.918364269131
    C            0.003149711096    -0.000826473271     2.606444397303
    C           -0.056550023492    -1.209773505545     1.906039601315
    C           -0.075211103740    -1.208437289465     0.515201894670
    C           -0.018096377090     0.018066491508    -1.645582696646
    H            0.029367080710     2.177037383131    -0.003071448619
    H            0.079047559751     2.152309437784     2.466375779775
    H            0.012694741087    -0.006906803574     3.692074796787
    H           -0.079289920915    -2.151852454150     2.444050620979
    H           -0.079146646938    -2.151724501939    -0.023503918951
    N           -0.722229802435    -0.885138555859    -2.332566963503
    N            0.713652216592     0.909570619681    -2.307822254719
    H            0.653868177426     1.021241748332    -3.313441964528
    H            1.379042964791     1.490051685135    -1.814129989684
    H           -0.429740658777    -1.209844867374    -3.247448651666
    H           -1.362647728815    -1.488651843650    -1.832395071720

	Removing binary optimization data file.
	Cleaning optimization helper files.


Properties will be evaluated at   0.000000,   0.000000,   0.000000 [a0]
OEProp: No title given, name of density matrix used for the following properties is 'SCF density'
  Nuclear Dipole Moment: [e a0]
     X:    -0.6358      Y:     0.6677      Z:    -0.4455

  Electronic Dipole Moment: [e a0]
     X:     0.8211      Y:    -0.7648      Z:    -1.6770

  Dipole Moment: [e a0]
     X:     0.1854      Y:    -0.0972      Z:    -2.1225     Total:     2.1328

  Dipole Moment: [D]
     X:     0.4712      Y:    -0.2470      Z:    -5.3948     Total:     5.4209

  Quadrupole Moment: [D A]
    XX:   -50.0982     YY:   -36.9265     ZZ:   -14.3988
    XY:     6.2197     XZ:    -1.6559     YZ:     0.9451

  Traceless Quadrupole Moment: [D A]
    XX:   -16.2904     YY:    -3.1187     ZZ:    19.4090
    XY:     6.2197     XZ:    -1.6559     YZ:     0.9451

  Mulliken Charges: (a.u.)
   Center  Symbol    Alpha    Beta     Spin     Total
       1     C     2.95399  2.95399  0.00000  0.09201
       2     C     3.08163  3.08163  0.00000 -0.16327
       3     C     3.06235  3.06235  0.00000 -0.12469
       4     C     3.05099  3.05099  0.00000 -0.10198
       5     C     3.06241  3.06241  0.00000 -0.12481
       6     C     3.08093  3.08093  0.00000 -0.16185
       7     C     2.72985  2.72985  0.00000  0.54029
       8     H     0.41338  0.41338  0.00000  0.17325
       9     H     0.40487  0.40487  0.00000  0.19027
      10     H     0.40321  0.40321  0.00000  0.19359
      11     H     0.40501  0.40501  0.00000  0.18997
      12     H     0.41594  0.41594  0.00000  0.16811
      13     N     3.86360  3.86360  0.00000 -0.72720
      14     N     3.85994  3.85994  0.00000 -0.71987
      15     H     0.30438  0.30438  0.00000  0.39124
      16     H     0.30017  0.30017  0.00000  0.39965
      17     H     0.30545  0.30545  0.00000  0.38911
      18     H     0.30191  0.30191  0.00000  0.39618

   Total alpha = 32.00000, Total beta = 32.00000, Total charge =  1.00000


    Psi4 stopped on: Saturday, 29 September 2018 08:27PM
    Psi4 wall time for execution: 0:02:54.87

*** Psi4 exiting successfully. Buy a developer a beer!
