
    -----------------------------------------------------------------------
          Psi4: An Open-Source Ab Initio Electronic Structure Package
                               Psi4 1.2.1 release

                         Git: Rev {HEAD} 406f4de 


    R. M. Parrish, L. A. Burns, D. G. A. Smith, A. C. Simmonett,
    A. E. DePrince III, E. G. Hohenstein, U. Bozkaya, A. Yu. Sokolov,
    R. Di Remigio, R. M. Richard, J. F. Gonthier, A. M. James,
    H. R. McAlexander, A. Kumar, M. Saitow, X. Wang, B. P. Pritchard,
    P. Verma, H. F. Schaefer III, K. Patkowski, R. A. King, E. F. Valeev,
    F. A. Evangelista, J. M. Turney, T. D. Crawford, and C. D. Sherrill,
    J. Chem. Theory Comput. 13(7) pp 3185--3197 (2017).
    (doi: 10.1021/acs.jctc.7b00174)


                         Additional Contributions by
    P. Kraus, H. Kruse, M. H. Lechner, M. C. Schieber, and R. A. Shaw

    -----------------------------------------------------------------------


    Psi4 started on: Saturday, 29 September 2018 08:27PM

    Process ID: 28505
    Host:       arancio.prib.upf.edu
    PSIDATADIR: /shared/joao/test_parameterize/miniconda3/share/psi4
    Memory:     500.0 MiB
    Threads:    1
    
  ==> Input File <==

--------------------------------------------------------------------------
set_num_threads(4)
set_memory('3000 MB')

set { scf_mem_safety_factor 0.7 }

set { reference rks }
set { basis 6-31G* }

molecule MOL {
    1 1
    noreorient
    nocom
    symmetry c1
    C   -0.000000  -0.000000  -0.177864
    C    0.036678   1.219374   0.524165
    C    0.031765   1.213120   1.915444
    C    0.000000   0.000000   2.610107
    C   -0.031765  -1.213120   1.915444
    C   -0.036678  -1.219375   0.524165
    C   -0.000000   0.000000  -1.644734
    H    0.018170   2.164705  -0.010854
    H    0.042402   2.152895   2.457886
    H    0.000000   0.000000   3.695756
    H   -0.042402  -2.152895   2.457886
    H   -0.018170  -2.164705  -0.010853
    N   -0.712590  -0.905950  -2.308461
    N    0.712590   0.905950  -2.308460
    H    0.673432   1.006470  -3.315997
    H    1.377190   1.485970  -1.813316
    H   -0.520928  -1.890856  -2.179969
    H   -1.497951  -0.662281  -2.900575
}

set optking { frozen_dihedral = (" 1 7 13 17 ") }

set optking { dynamic_level = 1 
 geom_maxiter = 250
 print_trajectory_xyz_file = True }

energy, wfn = optimize('B3LYP-D3', return_wfn=True)

import os
os.chdir(os.environ['HTMD_PSI4_WORKDIR'])

oeprop(wfn, 'DIPOLE', 'QUADRUPOLE', 'MULLIKEN_CHARGES')

with open('psi4out.xyz', 'w') as f:
    f.write('18 ' )
    f.write('%.12f\n' % energy)
    f.write(MOL.save_string_xyz())
--------------------------------------------------------------------------
  Threads set to 4 by Python driver.

  Memory set to   2.794 GiB by Python driver.
gradient() will perform analytic gradient computation.

*** tstart() called on arancio.prib.upf.edu
*** at Sat Sep 29 20:27:15 2018

   => Loading Basis Set <=

    Name: 6-31G*
    Role: ORBITAL
    Keyword: BASIS
    atoms 1-7         entry C          line   111 file /shared/joao/test_parameterize/miniconda3/share/psi4/basis/6-31gs.gbs 
    atoms 8-12, 15-18 entry H          line    44 file /shared/joao/test_parameterize/miniconda3/share/psi4/basis/6-31gs.gbs 
    atoms 13-14       entry N          line   128 file /shared/joao/test_parameterize/miniconda3/share/psi4/basis/6-31gs.gbs 


         ---------------------------------------------------------
                                   SCF
            by Justin Turney, Rob Parrish, Andy Simmonett
                             and Daniel Smith
                              RKS Reference
                        4 Threads,   2861 MiB Core
         ---------------------------------------------------------

  ==> Geometry <==

    Molecular point group: c1
    Full point group: C1

    Geometry (in Angstrom), charge = 1, multiplicity = 1:

       Center              X                  Y                   Z               Mass       
    ------------   -----------------  -----------------  -----------------  -----------------
         C            0.000000000000     0.000000000000    -0.177864000000    12.000000000000
         C            0.036678000000     1.219374000000     0.524165000000    12.000000000000
         C            0.031765000000     1.213120000000     1.915444000000    12.000000000000
         C            0.000000000000     0.000000000000     2.610107000000    12.000000000000
         C           -0.031765000000    -1.213120000000     1.915444000000    12.000000000000
         C           -0.036678000000    -1.219375000000     0.524165000000    12.000000000000
         C            0.000000000000     0.000000000000    -1.644734000000    12.000000000000
         H            0.018170000000     2.164705000000    -0.010854000000     1.007825032070
         H            0.042402000000     2.152895000000     2.457886000000     1.007825032070
         H            0.000000000000     0.000000000000     3.695756000000     1.007825032070
         H           -0.042402000000    -2.152895000000     2.457886000000     1.007825032070
         H           -0.018170000000    -2.164705000000    -0.010853000000     1.007825032070
         N           -0.712590000000    -0.905950000000    -2.308461000000    14.003074004780
         N            0.712590000000     0.905950000000    -2.308460000000    14.003074004780
         H            0.673432000000     1.006470000000    -3.315997000000     1.007825032070
         H            1.377190000000     1.485970000000    -1.813316000000     1.007825032070
         H           -0.520928000000    -1.890856000000    -2.179969000000     1.007825032070
         H           -1.497951000000    -0.662281000000    -2.900575000000     1.007825032070

  Running in c1 symmetry.

  Rotational constants: A =      0.12106  B =      0.03963  C =      0.03133 [cm^-1]
  Rotational constants: A =   3629.18973  B =   1188.04312  C =    939.26986 [MHz]
  Nuclear repulsion =  416.755931027955739

  Charge       = 1
  Multiplicity = 1
  Electrons    = 64
  Nalpha       = 32
  Nbeta        = 32

  ==> Algorithm <==

  SCF Algorithm Type is DF.
  DIIS enabled.
  MOM disabled.
  Fractional occupation disabled.
  Guess Type is SAD.
  Energy threshold   = 1.00e-08
  Density threshold  = 1.00e-08
  Integral threshold = 0.00e+00

  ==> Primary Basis <==

  Basis Set: 6-31G*
    Blend: 6-31G*
    Number of shells: 72
    Number of basis function: 153
    Number of Cartesian functions: 153
    Spherical Harmonics?: false
    Max angular momentum: 2

  ==> DFT Potential <==

   => Composite Functional: B3LYP-D3ZERO <= 

    B3LYP-d3zero Hyb-GGA Exchange-Correlation Functional

    P. J. Stephens, F. J. Devlin, C. F. Chabalowski, and M. J. Frisch, J. Phys. Chem. 98, 11623 (1994)

    Deriv               =              1
    GGA                 =           TRUE
    Meta                =          FALSE

    Exchange Hybrid     =           TRUE
    MP2 Hybrid          =          FALSE

   => Exchange Functionals <=

    0.0800   Slater exchange
    0.7200         Becke 88

   => Exact (HF) Exchange <=

    0.2000               HF 

   => Correlation Functionals <=

    0.1900   Vosko, Wilk & Nusair (VWN5_RPA)
    0.8100   Lee, Yang & Parr

   => Molecular Quadrature <=

    Radial Scheme       =       TREUTLER
    Pruning Scheme      =           FLAT
    Nuclear Scheme      =       TREUTLER

    BS radius alpha     =              1
    Pruning alpha       =              1
    Radial Points       =             75
    Spherical Points    =            302
    Total Points        =         397009
    Total Blocks        =           3011
    Max Points          =            256
    Max Functions       =            149

   => -D3ZERO: Empirical Dispersion <=

    Grimme's -D3 (zero-damping) Dispersion Correction
    Grimme S.; Antony J.; Ehrlich S.; Krieg H. (2010), J. Chem. Phys., 132: 154104

        S6 =   1.000000E+00
        S8 =   1.703000E+00
       SR6 =   1.261000E+00
       SR8 =   1.000000E+00
    ALPHA6 =   1.400000E+01

   => Loading Basis Set <=

    Name: (6-31G* AUX)
    Role: JKFIT
    Keyword: DF_BASIS_SCF
    atoms 1-7         entry C          line   121 file /shared/joao/test_parameterize/miniconda3/share/psi4/basis/cc-pvdz-jkfit.gbs 
    atoms 8-12, 15-18 entry H          line    51 file /shared/joao/test_parameterize/miniconda3/share/psi4/basis/cc-pvdz-jkfit.gbs 
    atoms 13-14       entry N          line   171 file /shared/joao/test_parameterize/miniconda3/share/psi4/basis/cc-pvdz-jkfit.gbs 

  ==> Pre-Iterations <==

   -------------------------------------------------------
    Irrep   Nso     Nmo     Nalpha   Nbeta   Ndocc  Nsocc
   -------------------------------------------------------
     A        153     153       0       0       0       0
   -------------------------------------------------------
    Total     153     153      32      32      32       0
   -------------------------------------------------------

  ==> Integral Setup <==

  ==> DiskDFJK: Density-Fitted J/K Matrices <==

    J tasked:                  Yes
    K tasked:                  Yes
    wK tasked:                  No
    OpenMP threads:              4
    Integrals threads:           4
    Memory (MB):              2002
    Algorithm:                Core
    Integral Cache:           NONE
    Schwarz Cutoff:          1E-12
    Fitting Condition:       1E-12

   => Auxiliary Basis Set <=

  Basis Set: (6-31G* AUX)
    Blend: CC-PVDZ-JKFIT
    Number of shells: 297
    Number of basis function: 954
    Number of Cartesian functions: 954
    Spherical Harmonics?: false
    Max angular momentum: 3

  Minimum eigenvalue in the overlap matrix is 4.8550853672E-04.
  Using Symmetric Orthogonalization.

  SCF Guess: Superposition of Atomic Densities via on-the-fly atomic UHF.

  ==> Iterations <==

                           Total Energy        Delta E     RMS |[F,P]|

   @DF-RKS iter   0:  -379.61677849338218   -3.79617e+02   6.81863e-02 
   @DF-RKS iter   1:  -380.98550493098327   -1.36873e+00   1.20861e-02 
   @DF-RKS iter   2:  -380.82945859088215    1.56046e-01   1.41401e-02 DIIS
   @DF-RKS iter   3:  -381.41652859969264   -5.87070e-01   2.40168e-03 DIIS
   @DF-RKS iter   4:  -381.43083443547903   -1.43058e-02   8.59481e-04 DIIS
   @DF-RKS iter   5:  -381.43259936008258   -1.76492e-03   3.15219e-04 DIIS
   @DF-RKS iter   6:  -381.43285151159398   -2.52152e-04   9.38373e-05 DIIS
   @DF-RKS iter   7:  -381.43287520450758   -2.36929e-05   2.20142e-05 DIIS
   @DF-RKS iter   8:  -381.43287653781232   -1.33330e-06   7.19287e-06 DIIS
   @DF-RKS iter   9:  -381.43287667804952   -1.40237e-07   3.19851e-06 DIIS
   @DF-RKS iter  10:  -381.43287671020903   -3.21595e-08   7.11687e-07 DIIS
   @DF-RKS iter  11:  -381.43287671170646   -1.49743e-09   1.90432e-07 DIIS
   @DF-RKS iter  12:  -381.43287671178467   -7.82165e-11   1.15931e-07 DIIS
   @DF-RKS iter  13:  -381.43287671183276   -4.80895e-11   2.32224e-08 DIIS
   @DF-RKS iter  14:  -381.43287671183435   -1.59162e-12   6.77074e-09 DIIS

  ==> Post-Iterations <==

    Orbital Energies [Eh]
    ---------------------

    Doubly Occupied:                                                      

       1A    -14.582750     2A    -14.529894     3A    -10.502187  
       4A    -10.373156     5A    -10.358512     6A    -10.357649  
       7A    -10.344899     8A    -10.341749     9A    -10.341660  
      10A     -1.180530    11A     -1.084779    12A     -1.014999  
      13A     -0.925883    14A     -0.903531    15A     -0.843463  
      16A     -0.779693    17A     -0.771683    18A     -0.741797  
      19A     -0.725465    20A     -0.701479    21A     -0.673888  
      22A     -0.630689    23A     -0.606453    24A     -0.588102  
      25A     -0.577883    26A     -0.561729    27A     -0.516874  
      28A     -0.508842    29A     -0.499584    30A     -0.450858  
      31A     -0.409236    32A     -0.405410  

    Virtual:                                                              

      33A     -0.247329    34A     -0.156320    35A     -0.145057  
      36A     -0.103142    37A     -0.077410    38A     -0.049368  
      39A     -0.038064    40A     -0.020795    41A      0.005945  
      42A      0.016965    43A      0.028800    44A      0.058846  
      45A      0.074111    46A      0.091849    47A      0.128140  
      48A      0.141193    49A      0.155957    50A      0.167247  
      51A      0.209495    52A      0.238197    53A      0.299593  
      54A      0.351763    55A      0.360532    56A      0.381232  
      57A      0.393540    58A      0.401855    59A      0.414493  
      60A      0.421587    61A      0.438325    62A      0.448826  
      63A      0.456786    64A      0.470013    65A      0.472601  
      66A      0.481167    67A      0.487628    68A      0.503452  
      69A      0.519197    70A      0.538085    71A      0.562413  
      72A      0.582617    73A      0.611400    74A      0.645341  
      75A      0.664039    76A      0.678194    77A      0.688990  
      78A      0.701801    79A      0.713892    80A      0.724570  
      81A      0.748649    82A      0.754655    83A      0.770771  
      84A      0.775939    85A      0.809001    86A      0.831660  
      87A      0.851591    88A      0.888477    89A      0.955759  
      90A      0.962797    91A      0.977457    92A      1.016620  
      93A      1.034942    94A      1.089496    95A      1.140060  
      96A      1.154341    97A      1.255470    98A      1.274120  
      99A      1.283113   100A      1.304423   101A      1.325242  
     102A      1.340657   103A      1.360293   104A      1.375622  
     105A      1.420046   106A      1.455344   107A      1.529639  
     108A      1.588904   109A      1.628480   110A      1.667648  
     111A      1.700351   112A      1.729260   113A      1.753418  
     114A      1.793813   115A      1.805333   116A      1.832628  
     117A      1.894487   118A      1.944233   119A      1.953822  
     120A      1.982345   121A      1.996109   122A      2.004983  
     123A      2.014961   124A      2.050869   125A      2.124907  
     126A      2.125456   127A      2.152050   128A      2.192476  
     129A      2.205218   130A      2.312000   131A      2.355690  
     132A      2.427616   133A      2.446566   134A      2.454779  
     135A      2.486905   136A      2.518539   137A      2.550210  
     138A      2.589487   139A      2.596391   140A      2.626396  
     141A      2.730107   142A      2.842803   143A      2.978057  
     144A      3.257162   145A      3.618430   146A      3.685710  
     147A      3.911976   148A      3.945377   149A      3.963230  
     150A      4.041799   151A      4.172795   152A      4.250078  
     153A      4.544332  

    Final Occupation by Irrep:
              A 
    DOCC [    32 ]

  Energy converged.

  @DF-RKS Final Energy:  -381.43287671183435

   => Energetics <=

    Nuclear Repulsion Energy =            416.7559310279557394
    One-Electron Energy =               -1328.7560836033562737
    Two-Electron Energy =                 574.9893940601117492
    DFT Exchange-Correlation Energy =     -44.4101734665455083
    Empirical Dispersion Energy =          -0.0119447300000000
    VV10 Nonlocal Energy =                  0.0000000000000000
    Total Energy =                       -381.4328767118342967



Properties will be evaluated at   0.000000,   0.000000,   0.000000 [a0]

Properties computed using the SCF density matrix

  Nuclear Dipole Moment: [e a0]
     X:     0.0600      Y:    -0.1147      Z:     0.1169

  Electronic Dipole Moment: [e a0]
     X:     0.0991      Y:     0.2982      Z:    -2.2167

  Dipole Moment: [e a0]
     X:     0.1590      Y:     0.1835      Z:    -2.0997     Total:     2.1137

  Dipole Moment: [D]
     X:     0.4043      Y:     0.4665      Z:    -5.3370     Total:     5.3725


*** tstop() called on arancio.prib.upf.edu at Sat Sep 29 20:27:40 2018
Module time:
	user time   =      88.71 seconds =       1.48 minutes
	system time =       0.63 seconds =       0.01 minutes
	total time  =         25 seconds =       0.42 minutes
Total time:
	user time   =      88.71 seconds =       1.48 minutes
	system time =       0.63 seconds =       0.01 minutes
	total time  =         25 seconds =       0.42 minutes

*** tstart() called on arancio.prib.upf.edu
*** at Sat Sep 29 20:27:40 2018


         ------------------------------------------------------------
                                   SCF GRAD                          
                          Rob Parrish, Justin Turney,                
                       Andy Simmonett, and Alex Sokolov              
         ------------------------------------------------------------

  ==> Geometry <==

    Molecular point group: c1
    Full point group: C1

    Geometry (in Angstrom), charge = 1, multiplicity = 1:

       Center              X                  Y                   Z               Mass       
    ------------   -----------------  -----------------  -----------------  -----------------
         C            0.000000000000     0.000000000000    -0.177864000000    12.000000000000
         C            0.036678000000     1.219374000000     0.524165000000    12.000000000000
         C            0.031765000000     1.213120000000     1.915444000000    12.000000000000
         C            0.000000000000     0.000000000000     2.610107000000    12.000000000000
         C           -0.031765000000    -1.213120000000     1.915444000000    12.000000000000
         C           -0.036678000000    -1.219375000000     0.524165000000    12.000000000000
         C            0.000000000000     0.000000000000    -1.644734000000    12.000000000000
         H            0.018170000000     2.164705000000    -0.010854000000     1.007825032070
         H            0.042402000000     2.152895000000     2.457886000000     1.007825032070
         H            0.000000000000     0.000000000000     3.695756000000     1.007825032070
         H           -0.042402000000    -2.152895000000     2.457886000000     1.007825032070
         H           -0.018170000000    -2.164705000000    -0.010853000000     1.007825032070
         N           -0.712590000000    -0.905950000000    -2.308461000000    14.003074004780
         N            0.712590000000     0.905950000000    -2.308460000000    14.003074004780
         H            0.673432000000     1.006470000000    -3.315997000000     1.007825032070
         H            1.377190000000     1.485970000000    -1.813316000000     1.007825032070
         H           -0.520928000000    -1.890856000000    -2.179969000000     1.007825032070
         H           -1.497951000000    -0.662281000000    -2.900575000000     1.007825032070

  Nuclear repulsion =  416.755931027955739

  ==> Basis Set <==

  Basis Set: 6-31G*
    Blend: 6-31G*
    Number of shells: 72
    Number of basis function: 153
    Number of Cartesian functions: 153
    Spherical Harmonics?: false
    Max angular momentum: 2

  ==> DFJKGrad: Density-Fitted SCF Gradients <==

    Gradient:                    1
    J tasked:                  Yes
    K tasked:                  Yes
    wK tasked:                  No
    OpenMP threads:              4
    Integrals threads:           4
    Memory (MB):              2002
    Schwarz Cutoff:          0E+00
    Fitting Condition:       1E-12

   => Auxiliary Basis Set <=

  Basis Set: (6-31G* AUX)
    Blend: CC-PVDZ-JKFIT
    Number of shells: 297
    Number of basis function: 954
    Number of Cartesian functions: 954
    Spherical Harmonics?: false
    Max angular momentum: 3

  ==> DFT Potential <==

   => Composite Functional: B3LYP-D3ZERO <= 

    B3LYP-d3zero Hyb-GGA Exchange-Correlation Functional

    P. J. Stephens, F. J. Devlin, C. F. Chabalowski, and M. J. Frisch, J. Phys. Chem. 98, 11623 (1994)

    Deriv               =              1
    GGA                 =           TRUE
    Meta                =          FALSE

    Exchange Hybrid     =           TRUE
    MP2 Hybrid          =          FALSE

   => Exchange Functionals <=

    0.0800   Slater exchange
    0.7200         Becke 88

   => Exact (HF) Exchange <=

    0.2000               HF 

   => Correlation Functionals <=

    0.1900   Vosko, Wilk & Nusair (VWN5_RPA)
    0.8100   Lee, Yang & Parr

   => Molecular Quadrature <=

    Radial Scheme       =       TREUTLER
    Pruning Scheme      =           FLAT
    Nuclear Scheme      =       TREUTLER

    BS radius alpha     =              1
    Pruning alpha       =              1
    Radial Points       =             75
    Spherical Points    =            302
    Total Points        =         397009
    Total Blocks        =           3011
    Max Points          =            256
    Max Functions       =            149


  -Total Gradient:
     Atom            X                  Y                   Z
    ------   -----------------  -----------------  -----------------
       1       -0.012048464093     0.002668107507     0.003034309281
       2       -0.003242375124    -0.001243607431    -0.001390677437
       3        0.001348723306    -0.000045529955    -0.000192083325
       4       -0.000184457618    -0.001250421261    -0.000353454710
       5       -0.000724979629     0.001576859620     0.002560189117
       6        0.001173295809     0.000029903432    -0.003144706490
       7       -0.022895177256    -0.021807524510    -0.018039817475
       8       -0.000220619048    -0.000096564136    -0.000143724994
       9        0.000376608723    -0.000056143282     0.000012731153
      10        0.000106467890    -0.000013946556     0.000013160187
      11       -0.000054207923    -0.000017029667    -0.000034265928
      12        0.001684547992     0.000017004896    -0.001247496914
      13        0.018046713198     0.022154523976     0.027970396664
      14        0.010613665863     0.000427950233    -0.007840032701
      15        0.000262386246     0.004214824979     0.001999273863
      16        0.003256148747    -0.006520946045    -0.001620408896
      17        0.009877061559     0.000202642380    -0.008660946127
      18       -0.007373719007    -0.000236389877     0.007074923609


*** tstop() called on arancio.prib.upf.edu at Sat Sep 29 20:27:49 2018
Module time:
	user time   =      29.09 seconds =       0.48 minutes
	system time =       0.33 seconds =       0.01 minutes
	total time  =          9 seconds =       0.15 minutes
Total time:
	user time   =     117.88 seconds =       1.96 minutes
	system time =       0.97 seconds =       0.02 minutes
	total time  =         34 seconds =       0.57 minutes

			-----------------------------------------
			 OPTKING 2.0: for geometry optimizations 
			  - R.A. King,  Bethel University        
			-----------------------------------------
	At level 1: Red. Int., RFO, no backsteps, dynamic trust

	Internal coordinates to be generated automatically.
	Detected frag 1 with atoms:  1 2 3 4 5 6 7 8 9 10 11 12 13 14 15 16 17 18
	---Fragment 1 Bond Connectivity---
	 1 : 2 6 7
	 2 : 1 3 8
	 3 : 2 4 9
	 4 : 3 5 10
	 5 : 4 6 11
	 6 : 1 5 12
	 7 : 1 13 14
	 8 : 2
	 9 : 3
	 10 : 4
	 11 : 5
	 12 : 6
	 13 : 7 17 18
	 14 : 7 15 16
	 15 : 14
	 16 : 14
	 17 : 13
	 18 : 13

	Assuming in current code that numbering for constraints corresponds to unified fragment.
	Frozen dihedral atom list: 
	     1     7    13    17
	---Fragment 1 Geometry and Gradient---
	 C           0.0000000000        0.0000000000       -0.3361142489
	 C           0.0693113751        2.3042829136        0.9905282984
	 C           0.0600271506        2.2924645663        3.6196645829
	 C           0.0000000000        0.0000000000        4.9323874075
	 C          -0.0600271506       -2.2924645663        3.6196645829
	 C          -0.0693113751       -2.3042848033        0.9905282984
	 C           0.0000000000        0.0000000000       -3.1080968214
	 H           0.0343363238        4.0906996085       -0.0205110874
	 H           0.0801281675        4.0683819429        4.6447314059
	 H           0.0000000000        0.0000000000        6.9839666940
	 H          -0.0801281675       -4.0683819429        4.6447314059
	 H          -0.0343363238       -4.0906996085       -0.0205091977
	 N          -1.3465999450       -1.7119973901       -4.3623590784
	 N           1.3465999450        1.7119973901       -4.3623571887
	 H           1.2726020491        1.9019526610       -6.2663261875
	 H           2.6025119329        2.8080763417       -3.4266706324
	 H          -0.9844112550       -3.5731999967       -4.1195443882
	 H          -2.8307171505       -1.2515297130       -5.4812923779
	            -0.0120484641        0.0026681075        0.0030343093
	            -0.0032423751       -0.0012436074       -0.0013906774
	             0.0013487233       -0.0000455300       -0.0001920833
	            -0.0001844576       -0.0012504213       -0.0003534547
	            -0.0007249796        0.0015768596        0.0025601891
	             0.0011732958        0.0000299034       -0.0031447065
	            -0.0228951773       -0.0218075245       -0.0180398175
	            -0.0002206190       -0.0000965641       -0.0001437250
	             0.0003766087       -0.0000561433        0.0000127312
	             0.0001064679       -0.0000139466        0.0000131602
	            -0.0000542079       -0.0000170297       -0.0000342659
	             0.0016845480        0.0000170049       -0.0012474969
	             0.0180467132        0.0221545240        0.0279703967
	             0.0106136659        0.0004279502       -0.0078400327
	             0.0002623862        0.0042148250        0.0019992739
	             0.0032561487       -0.0065209460       -0.0016204089
	             0.0098770616        0.0002026424       -0.0086609461
	            -0.0073737190       -0.0002363899        0.0070749236

	Previous optimization step data not found.  Starting new optimization.

	---Fragment 1 Intrafragment Coordinates---
	 - Coordinate -           - BOHR/RAD -       - ANG/DEG -
	 R(1,2)           =         2.659794	       1.407502
	 R(1,6)           =         2.659796	       1.407503
	 R(1,7)           =         2.771983	       1.466870
	 R(2,3)           =         2.629179	       1.391302
	 R(2,8)           =         2.052976	       1.086388
	 R(3,4)           =         2.642393	       1.398294
	 R(3,9)           =         2.050622	       1.085142
	 R(4,5)           =         2.642393	       1.398294
	 R(4,10)          =         2.051579	       1.085649
	 R(5,6)           =         2.629179	       1.391302
	 R(5,11)          =         2.050622	       1.085142
	 R(6,12)          =         2.052973	       1.086386
	 R(7,13)          =         2.513452	       1.330061
	 R(7,14)          =         2.513451	       1.330061
	 R(13,17)         =         1.911600	       1.011575
	 R(13,18)         =         1.914849	       1.013294
	 R(14,15)         =         1.914852	       1.013296
	 R(14,16)         =         1.911600	       1.011575
	 B(1,2,3)         =         2.088380	     119.655376
	 B(1,2,8)         =         2.103396	     120.515689
	 B(1,6,5)         =         2.088379	     119.655315
	 B(1,6,12)        =         2.103396	     120.515729
	 B(1,7,13)        =         2.093264	     119.935172
	 B(1,7,14)        =         2.093263	     119.935135
	 B(2,1,6)         =         2.097220	     120.161857
	 B(2,1,7)         =         2.092983	     119.919082
	 B(2,3,4)         =         2.095279	     120.050636
	 B(2,3,9)         =         2.089719	     119.732108
	 B(3,2,8)         =         2.090149	     119.756722
	 B(3,4,5)         =         2.101793	     120.423859
	 B(3,4,10)        =         2.090696	     119.788070
	 B(4,3,9)         =         2.098135	     120.214297
	 B(4,5,6)         =         2.095280	     120.050677
	 B(4,5,11)        =         2.098135	     120.214297
	 B(5,4,10)        =         2.090696	     119.788070
	 B(5,6,12)        =         2.090149	     119.756743
	 B(6,1,7)         =         2.092982	     119.919061
	 B(6,5,11)        =         2.089719	     119.732067
	 B(7,13,17)       =         2.092411	     119.886328
	 B(7,13,18)       =         2.144860	     122.891420
	 B(7,14,15)       =         2.144860	     122.891405
	 B(7,14,16)       =         2.092412	     119.886393
	 B(13,7,14)       =         2.096659	     120.129694
	 B(15,14,16)      =         2.043399	     117.078146
	 B(17,13,18)      =         2.043400	     117.078190
	 D(1,2,3,4)       =         0.007799	       0.446825
	 D(1,2,3,9)       =        -3.122896	    -178.928735
	 D(1,6,5,4)       =         0.007799	       0.446822
	 D(1,6,5,11)      =        -3.122896	    -178.928737
	*D(1,7,13,17)     =        -1.047198	     -60.000007
	 D(1,7,13,18)     =         2.015978	     115.507010
	 D(1,7,14,15)     =        -3.032165	    -173.730230
	 D(1,7,14,16)     =         0.187844	      10.762681
	 D(2,1,6,5)       =        -0.003906	      -0.223802
	 D(2,1,6,12)      =        -3.091437	    -177.126283
	 D(2,1,7,13)      =        -2.505167	    -143.535494
	 D(2,1,7,14)      =         0.636426	      36.464506
	 D(2,3,4,5)       =        -0.003942	      -0.225875
	 D(2,3,4,10)      =         3.137650	     179.774125
	 D(3,2,1,6)       =        -0.003906	      -0.223806
	 D(3,2,1,7)       =         3.137687	     179.776196
	 D(3,4,5,6)       =        -0.003942	      -0.225874
	 D(3,4,5,11)      =         3.126699	     179.146646
	 D(4,3,2,8)       =         3.095744	     177.373058
	 D(4,5,6,12)      =         3.095744	     177.373055
	 D(5,4,3,9)       =         3.126699	     179.146646
	 D(5,6,1,7)       =         3.137687	     179.776197
	 D(6,1,2,8)       =        -3.091437	    -177.126287
	 D(6,1,7,13)      =         0.636426	      36.464508
	 D(6,1,7,14)      =        -2.505167	    -143.535492
	 D(6,5,4,10)      =         3.137650	     179.774126
	 D(7,1,2,8)       =         0.050156	       2.873714
	 D(7,1,6,12)      =         0.050156	       2.873716
	 D(8,2,3,9)       =        -0.034950	      -2.002503
	 D(9,3,4,10)      =        -0.014894	      -0.853354
	 D(10,4,5,11)     =        -0.014894	      -0.853354
	 D(11,5,6,12)     =        -0.034950	      -2.002504
	 D(13,7,14,15)    =         0.109428	       6.269770
	 D(13,7,14,16)    =        -2.953748	    -169.237319
	 D(14,7,13,17)    =         2.094395	     119.999993
	 D(14,7,13,18)    =        -1.125615	     -64.492990

	Current energy   :      -381.4328767118

	Generating empirical Hessian (Schlegel '84) for each fragment.
	Taking RFO optimization step.
	Going to follow RFO solution 1.
	Using RFO vector 1.

	Determining step-restricting scale parameter for RS-RFO.
	Maximum step size allowed    0.50000

	 Iter      |step|        alpha        rfo_root  
	------------------------------------------------
	    0     0.57066       1.00000           1
	    1     0.51126       1.37331           1
	    2     0.50037       1.45710           1
	    3     0.50000       1.46003           1
	------------------------------------------------
	Norm of target step-size    0.50000
	Projected energy change by RFO approximation:        -0.0157900683

	Back-transformation to cartesian coordinates...
	Could not converge backtransformation.
	Using first guess instead.

	Back-transformation to cartesian coordinates to adjust frozen coordinates...
	Successfully converged to displaced geometry.

	--- Internal Coordinate Step in ANG or DEG, aJ/ANG or AJ/DEG ---
	 ---------------------------------------------------------------------------
	   Coordinate                Previous        Force       Change         New 
	   ----------                --------       ------       ------       ------
	    1 R(1,2)          =      1.407502     0.019090     0.003545     1.411048
	    2 R(1,6)          =      1.407503     0.016135     0.003747     1.411250
	    3 R(1,7)          =      1.466870     0.007286     0.001284     1.468154
	    4 R(2,3)          =      1.391302    -0.001355     0.000349     1.391651
	    5 R(2,8)          =      1.086388     0.000081     0.000907     1.087295
	    6 R(3,4)          =      1.398294    -0.004193     0.000392     1.398686
	    7 R(3,9)          =      1.085142     0.000320     0.000429     1.085571
	    8 R(4,5)          =      1.398294     0.009081     0.001732     1.400026
	    9 R(4,10)         =      1.085649    -0.000110     0.000271     1.085920
	   10 R(5,6)          =      1.391302    -0.015186    -0.001805     1.389497
	   11 R(5,11)         =      1.085142     0.000012     0.001115     1.086257
	   12 R(6,12)         =      1.086386    -0.005178     0.000875     1.087261
	   13 R(7,13)         =      1.330061     0.323318     0.034975     1.365036
	   14 R(7,14)         =      1.330061    -0.082513    -0.000785     1.329276
	   15 R(13,17)        =      1.011575    -0.004726     0.000154     1.011729
	   16 R(13,18)        =      1.013294    -0.012557     0.008737     1.022031
	   17 R(14,15)        =      1.013296     0.013020     0.002031     1.015326
	   18 R(14,16)        =      1.011575     0.019712     0.019077     1.030652
	   19 B(1,2,3)        =    119.655376     0.000045     0.101459   119.756836
	   20 B(1,2,8)        =    120.515689    -0.000010    -0.003316   120.512373
	   21 B(1,6,5)        =    119.655315     0.000051     0.140620   119.795935
	   22 B(1,6,12)       =    120.515729     0.000062     0.374022   120.889751
	   23 B(1,7,13)       =    119.935172     0.001004     2.749127   122.684299
	   24 B(1,7,14)       =    119.935135    -0.000504    -1.625444   118.309690
	   25 B(2,1,6)        =    120.161857    -0.000123    -0.287204   119.874653
	   26 B(2,1,7)        =    119.919082    -0.000130    -0.385233   119.533849
	   27 B(2,3,4)        =    120.050636    -0.000005    -0.004513   120.046123
	   28 B(2,3,9)        =    119.732108    -0.000000    -0.034073   119.698034
	   29 B(3,2,8)        =    119.756722    -0.000037    -0.138643   119.618079
	   30 B(3,4,5)        =    120.423859     0.000007     0.006478   120.430338
	   31 B(3,4,10)       =    119.788070    -0.000004     0.016669   119.804740
	   32 B(4,3,9)        =    120.214297     0.000005     0.040687   120.254984
	   33 B(4,5,6)        =    120.050677     0.000025     0.024396   120.075073
	   34 B(4,5,11)       =    120.214297    -0.000015    -0.000644   120.213653
	   35 B(5,4,10)       =    119.788070    -0.000003    -0.024177   119.763893
	   36 B(5,6,12)       =    119.756743    -0.000111    -0.476132   119.280611
	   37 B(6,1,7)        =    119.919061     0.000253     0.667630   120.586692
	   38 B(6,5,11)       =    119.732067    -0.000009    -0.021132   119.710935
	   39 B(7,13,17)      =    119.886328     0.000151     0.805580   120.691908
	   40 B(7,13,18)      =    122.891420    -0.000040    -0.127807   122.763613
	   41 B(7,14,15)      =    122.891405    -0.000366    -1.586620   121.304785
	   42 B(7,14,16)      =    119.886393     0.000249     1.669907   121.556300
	   43 B(13,7,14)      =    120.129694    -0.000500    -1.545183   118.584511
	   44 B(15,14,16)     =    117.078146     0.000133     0.058815   117.136960
	   45 B(17,13,18)     =    117.078190    -0.000083    -0.617591   116.460600
	   46 D(1,2,3,4)      =      0.446825     0.000012     1.040385     1.487210
	   47 D(1,2,3,9)      =   -178.928735     0.000009     0.752123  -178.176613
	   48 D(1,6,5,4)      =      0.446822     0.000009     0.763423     1.210245
	   49 D(1,6,5,11)     =   -178.928737    -0.000001    -0.072610  -179.001348
	   50 *D(1,7,13,17)   =    -60.000007     0.000000     0.000000   -60.000007
	   51 D(1,7,13,18)    =    115.507010     0.000100     7.942466   123.449475
	   52 D(1,7,14,15)    =   -173.730230     0.000003     0.553504  -173.176726
	   53 D(1,7,14,16)    =     10.762681    -0.000058    -4.462582     6.300099
	   54 D(2,1,6,5)      =     -0.223802    -0.000004    -0.334258    -0.558059
	   55 D(2,1,6,12)     =   -177.126283    -0.000014    -1.305010  -178.431292
	   56 D(2,1,7,13)     =   -143.535494    -0.000003    -1.502000  -145.037494
	   57 D(2,1,7,14)     =     36.464506    -0.000087    -9.065461    27.399045
	   58 D(2,3,4,5)      =     -0.225875    -0.000007    -0.616391    -0.842266
	   59 D(2,3,4,10)     =    179.774125    -0.000003    -0.246360   179.527764
	   60 D(3,2,1,6)      =     -0.223806    -0.000007    -0.569724    -0.793530
	   61 D(3,2,1,7)      =    179.776196    -0.000015    -1.362481   178.413715
	   62 D(3,4,5,6)      =     -0.225874    -0.000003    -0.294927    -0.520801
	   63 D(3,4,5,11)     =    179.146646     0.000006     0.545219   179.691865
	   64 D(4,3,2,8)      =    177.373058     0.000003     0.274778   177.647836
	   65 D(4,5,6,12)     =    177.373055     0.000020     1.744765   179.117821
	   66 D(5,4,3,9)      =    179.146646    -0.000004    -0.326981   178.819665
	   67 D(5,6,1,7)      =    179.776197     0.000004     0.466976   180.243173
	   68 D(6,1,2,8)      =   -177.126287     0.000002     0.207032  -176.919255
	   69 D(6,1,7,13)     =     36.464508    -0.000011    -2.300520    34.163988
	   70 D(6,1,7,14)     =   -143.535492    -0.000095    -9.863980  -153.399473
	   71 D(6,5,4,10)     =    179.774126    -0.000008    -0.664806   179.109319
	   72 D(7,1,2,8)      =      2.873714    -0.000006    -0.585725     2.287989
	   73 D(7,1,6,12)     =      2.873716    -0.000006    -0.503776     2.369940
	   74 D(8,2,3,9)      =     -2.002503     0.000000    -0.013484    -2.015986
	   75 D(9,3,4,10)     =     -0.853354     0.000001     0.043050    -0.810304
	   76 D(10,4,5,11)    =     -0.853354     0.000002     0.175339    -0.678014
	   77 D(11,5,6,12)    =     -2.002504     0.000011     0.908731    -1.093773
	   78 D(13,7,14,15)   =      6.269770    -0.000082    -6.694248    -0.424478
	   79 D(13,7,14,16)   =   -169.237319    -0.000143   -11.710334  -180.947653
	   80 D(14,7,13,17)   =    119.999993     0.000085     7.583256   127.583249
	   81 D(14,7,13,18)   =    -64.492990     0.000185    15.525722   -48.967268
	 ---------------------------------------------------------------------------
	Successfully symmetrized geometry.

  ==> Convergence Check <==

  Measures of convergence in internal coordinates in au.
  Criteria marked as inactive (o), active & met (*), and active & unmet ( ).
  --------------------------------------------------------------------------------------------- ~
   Step     Total Energy     Delta E     MAX Force     RMS Force      MAX Disp      RMS Disp    ~
  --------------------------------------------------------------------------------------------- ~
    Convergence Criteria    1.00e-06 *    3.00e-04 *             o    1.20e-03 *             o  ~
  --------------------------------------------------------------------------------------------- ~
      1    -381.43287671   -3.81e+02      3.92e-02      5.35e-03 o    2.71e-01      5.50e-02 o  ~
  ---------------------------------------------------------------------------------------------

	Writing optimization data to binary file.
	Structure for next step:
	Cartesian Geometry (in Angstrom)
	    C     0.0371381496  -0.0373939523  -0.1661446837
	    C     0.1168112359   1.1935294898   0.5190817797
	    C     0.0858921657   1.2128740125   1.9102545648
	    C     0.0075600561   0.0136013446   2.6257481114
	    C    -0.0579896657  -1.2115070706   1.9512961682
	    C    -0.0564741496  -1.2425718677   0.5621472322
	    C     0.0349271864  -0.0496033736  -1.6342463969
	    H     0.1389840544   2.1311442203  -0.0310065137
	    H     0.1173087314   2.1622535035   2.4357593473
	    H    -0.0085753593   0.0328476227   3.7113780430
	    H    -0.1136964738  -2.1410796859   2.5105334990
	    H    -0.0932176439  -2.2018367077   0.0516598415
	    N    -0.6834932775  -0.9531477433  -2.3628093926
	    N     0.6379633266   0.9475000376  -2.2738616057
	    H     0.5770486394   1.0402385043  -3.2831072116
	    H     1.1800163882   1.6633171195  -1.7678701743
	    H    -0.5128374675  -1.9458198161  -2.2675472984
	    H    -1.3756228963  -0.6750436375  -3.0614953100
			--------------------------
			 OPTKING Finished Execution 
			--------------------------

    Structure for next step:
    Molecular point group: c1
    Full point group: C1

    Geometry (in Angstrom), charge = 1, multiplicity = 1:

    C            0.037138149569    -0.037393952263    -0.166144683707
    C            0.116811235858     1.193529489779     0.519081779684
    C            0.085892165688     1.212874012487     1.910254564804
    C            0.007560056079     0.013601344588     2.625748111352
    C           -0.057989665735    -1.211507070597     1.951296168241
    C           -0.056474149616    -1.242571867663     0.562147232163
    C            0.034927186365    -0.049603373640    -1.634246396911
    H            0.138984054373     2.131144220303    -0.031006513670
    H            0.117308731441     2.162253503470     2.435759347286
    H           -0.008575359326     0.032847622661     3.711378042961
    H           -0.113696473814    -2.141079685916     2.510533498976
    H           -0.093217643927    -2.201836707735     0.051659841541
    N           -0.683493277476    -0.953147743288    -2.362809392633
    N            0.637963326629     0.947500037621    -2.273861605711
    H            0.577048639422     1.040238504312    -3.283107211642
    H            1.180016388224     1.663317119522    -1.767870174337
    H           -0.512837467454    -1.945819816142    -2.267547298406
    H           -1.375622896299    -0.675043637500    -3.061495309989

gradient() will perform analytic gradient computation.

*** tstart() called on arancio.prib.upf.edu
*** at Sat Sep 29 20:27:50 2018

   => Loading Basis Set <=

    Name: 6-31G*
    Role: ORBITAL
    Keyword: BASIS
    atoms 1-7         entry C          line   111 file /shared/joao/test_parameterize/miniconda3/share/psi4/basis/6-31gs.gbs 
    atoms 8-12, 15-18 entry H          line    44 file /shared/joao/test_parameterize/miniconda3/share/psi4/basis/6-31gs.gbs 
    atoms 13-14       entry N          line   128 file /shared/joao/test_parameterize/miniconda3/share/psi4/basis/6-31gs.gbs 


         ---------------------------------------------------------
                                   SCF
            by Justin Turney, Rob Parrish, Andy Simmonett
                             and Daniel Smith
                              RKS Reference
                        4 Threads,   2861 MiB Core
         ---------------------------------------------------------

  ==> Geometry <==

    Molecular point group: c1
    Full point group: C1

    Geometry (in Angstrom), charge = 1, multiplicity = 1:

       Center              X                  Y                   Z               Mass       
    ------------   -----------------  -----------------  -----------------  -----------------
         C            0.037138149569    -0.037393952263    -0.166144683707    12.000000000000
         C            0.116811235858     1.193529489779     0.519081779684    12.000000000000
         C            0.085892165688     1.212874012487     1.910254564804    12.000000000000
         C            0.007560056079     0.013601344588     2.625748111352    12.000000000000
         C           -0.057989665735    -1.211507070597     1.951296168241    12.000000000000
         C           -0.056474149616    -1.242571867663     0.562147232163    12.000000000000
         C            0.034927186365    -0.049603373640    -1.634246396911    12.000000000000
         H            0.138984054373     2.131144220303    -0.031006513670     1.007825032070
         H            0.117308731441     2.162253503470     2.435759347286     1.007825032070
         H           -0.008575359326     0.032847622661     3.711378042961     1.007825032070
         H           -0.113696473814    -2.141079685916     2.510533498976     1.007825032070
         H           -0.093217643927    -2.201836707735     0.051659841541     1.007825032070
         N           -0.683493277476    -0.953147743288    -2.362809392633    14.003074004780
         N            0.637963326629     0.947500037621    -2.273861605711    14.003074004780
         H            0.577048639422     1.040238504312    -3.283107211642     1.007825032070
         H            1.180016388224     1.663317119522    -1.767870174337     1.007825032070
         H           -0.512837467454    -1.945819816142    -2.267547298406     1.007825032070
         H           -1.375622896299    -0.675043637500    -3.061495309989     1.007825032070

  Running in c1 symmetry.

  Rotational constants: A =      0.12067  B =      0.03949  C =      0.03082 [cm^-1]
  Rotational constants: A =   3617.62234  B =   1183.88417  C =    923.85382 [MHz]
  Nuclear repulsion =  415.249742975701508

  Charge       = 1
  Multiplicity = 1
  Electrons    = 64
  Nalpha       = 32
  Nbeta        = 32

  ==> Algorithm <==

  SCF Algorithm Type is DF.
  DIIS enabled.
  MOM disabled.
  Fractional occupation disabled.
  Guess Type is READ.
  Energy threshold   = 1.00e-08
  Density threshold  = 1.00e-08
  Integral threshold = 0.00e+00

  ==> Primary Basis <==

  Basis Set: 6-31G*
    Blend: 6-31G*
    Number of shells: 72
    Number of basis function: 153
    Number of Cartesian functions: 153
    Spherical Harmonics?: false
    Max angular momentum: 2

  ==> DFT Potential <==

   => Composite Functional: B3LYP-D3ZERO <= 

    B3LYP-d3zero Hyb-GGA Exchange-Correlation Functional

    P. J. Stephens, F. J. Devlin, C. F. Chabalowski, and M. J. Frisch, J. Phys. Chem. 98, 11623 (1994)

    Deriv               =              1
    GGA                 =           TRUE
    Meta                =          FALSE

    Exchange Hybrid     =           TRUE
    MP2 Hybrid          =          FALSE

   => Exchange Functionals <=

    0.0800   Slater exchange
    0.7200         Becke 88

   => Exact (HF) Exchange <=

    0.2000               HF 

   => Correlation Functionals <=

    0.1900   Vosko, Wilk & Nusair (VWN5_RPA)
    0.8100   Lee, Yang & Parr

   => Molecular Quadrature <=

    Radial Scheme       =       TREUTLER
    Pruning Scheme      =           FLAT
    Nuclear Scheme      =       TREUTLER

    BS radius alpha     =              1
    Pruning alpha       =              1
    Radial Points       =             75
    Spherical Points    =            302
    Total Points        =         396926
    Total Blocks        =           3019
    Max Points          =            256
    Max Functions       =            149

   => -D3ZERO: Empirical Dispersion <=

    Grimme's -D3 (zero-damping) Dispersion Correction
    Grimme S.; Antony J.; Ehrlich S.; Krieg H. (2010), J. Chem. Phys., 132: 154104

        S6 =   1.000000E+00
        S8 =   1.703000E+00
       SR6 =   1.261000E+00
       SR8 =   1.000000E+00
    ALPHA6 =   1.400000E+01

   => Loading Basis Set <=

    Name: (6-31G* AUX)
    Role: JKFIT
    Keyword: DF_BASIS_SCF
    atoms 1-7         entry C          line   121 file /shared/joao/test_parameterize/miniconda3/share/psi4/basis/cc-pvdz-jkfit.gbs 
    atoms 8-12, 15-18 entry H          line    51 file /shared/joao/test_parameterize/miniconda3/share/psi4/basis/cc-pvdz-jkfit.gbs 
    atoms 13-14       entry N          line   171 file /shared/joao/test_parameterize/miniconda3/share/psi4/basis/cc-pvdz-jkfit.gbs 

  Reading orbitals from file 180, no projection.

  ==> Pre-Iterations <==

   -------------------------------------------------------
    Irrep   Nso     Nmo     Nalpha   Nbeta   Ndocc  Nsocc
   -------------------------------------------------------
     A        153     153       0       0       0       0
   -------------------------------------------------------
    Total     153     153      32      32      32       0
   -------------------------------------------------------

  ==> Integral Setup <==

  ==> DiskDFJK: Density-Fitted J/K Matrices <==

    J tasked:                  Yes
    K tasked:                  Yes
    wK tasked:                  No
    OpenMP threads:              4
    Integrals threads:           4
    Memory (MB):              2002
    Algorithm:                Core
    Integral Cache:           NONE
    Schwarz Cutoff:          1E-12
    Fitting Condition:       1E-12

   => Auxiliary Basis Set <=

  Basis Set: (6-31G* AUX)
    Blend: CC-PVDZ-JKFIT
    Number of shells: 297
    Number of basis function: 954
    Number of Cartesian functions: 954
    Spherical Harmonics?: false
    Max angular momentum: 3

  Minimum eigenvalue in the overlap matrix is 4.8853592751E-04.
  Using Symmetric Orthogonalization.

  SCF Guess: Orbitals guess was supplied from a previous computation.

  ==> Iterations <==

                           Total Energy        Delta E     RMS |[F,P]|

   @DF-RKS iter   0:  -381.38010536009028   -3.81380e+02   3.03340e-03 
   @DF-RKS iter   1:  -381.44001092311424   -5.99056e-02   5.06854e-04 
   @DF-RKS iter   2:  -381.43912569113542    8.85232e-04   7.71649e-04 DIIS
   @DF-RKS iter   3:  -381.44095034008143   -1.82465e-03   1.17188e-04 DIIS
   @DF-RKS iter   4:  -381.44098269002581   -3.23499e-05   5.09646e-05 DIIS
   @DF-RKS iter   5:  -381.44099016564803   -7.47562e-06   1.88993e-05 DIIS
   @DF-RKS iter   6:  -381.44099128234376   -1.11670e-06   6.62863e-06 DIIS
   @DF-RKS iter   7:  -381.44099139863357   -1.16290e-07   2.01959e-06 DIIS
   @DF-RKS iter   8:  -381.44099141128743   -1.26539e-08   5.79924e-07 DIIS
   @DF-RKS iter   9:  -381.44099141211046   -8.23036e-10   2.09912e-07 DIIS
   @DF-RKS iter  10:  -381.44099141223666   -1.26192e-10   8.04658e-08 DIIS
   @DF-RKS iter  11:  -381.44099141225695   -2.02931e-11   2.92248e-08 DIIS
   @DF-RKS iter  12:  -381.44099141226053   -3.58114e-12   5.56709e-09 DIIS

  ==> Post-Iterations <==

    Orbital Energies [Eh]
    ---------------------

    Doubly Occupied:                                                      

       1A    -14.581285     2A    -14.539719     3A    -10.503117  
       4A    -10.375677     5A    -10.360844     6A    -10.357789  
       7A    -10.345811     8A    -10.342955     9A    -10.341616  
      10A     -1.175264    11A     -1.077045    12A     -1.014894  
      13A     -0.926277    14A     -0.904089    15A     -0.842850  
      16A     -0.778962    17A     -0.770058    18A     -0.736929  
      19A     -0.724559    20A     -0.696099    21A     -0.669550  
      22A     -0.631442    23A     -0.606168    24A     -0.586804  
      25A     -0.578430    26A     -0.566903    27A     -0.515531  
      28A     -0.509551    29A     -0.499911    30A     -0.455359  
      31A     -0.409774    32A     -0.406431  

    Virtual:                                                              

      33A     -0.243252    34A     -0.156314    35A     -0.141993  
      36A     -0.108409    37A     -0.078856    38A     -0.059608  
      39A     -0.037528    40A     -0.022525    41A      0.007057  
      42A      0.020445    43A      0.026673    44A      0.061188  
      45A      0.067807    46A      0.086205    47A      0.121985  
      48A      0.131004    49A      0.154769    50A      0.171723  
      51A      0.208111    52A      0.231196    53A      0.297912  
      54A      0.351026    55A      0.361086    56A      0.380097  
      57A      0.390668    58A      0.400473    59A      0.413921  
      60A      0.420132    61A      0.436509    62A      0.448242  
      63A      0.456984    64A      0.469641    65A      0.472181  
      66A      0.478076    67A      0.484346    68A      0.497814  
      69A      0.518095    70A      0.551187    71A      0.557452  
      72A      0.584304    73A      0.612578    74A      0.639988  
      75A      0.661041    76A      0.677774    77A      0.690626  
      78A      0.701807    79A      0.715117    80A      0.728073  
      81A      0.742578    82A      0.757453    83A      0.773314  
      84A      0.785840    85A      0.814676    86A      0.835124  
      87A      0.852874    88A      0.910497    89A      0.962617  
      90A      0.964614    91A      0.987421    92A      1.021895  
      93A      1.041459    94A      1.084386    95A      1.129597  
      96A      1.143951    97A      1.244323    98A      1.272517  
      99A      1.283103   100A      1.304517   101A      1.321105  
     102A      1.337892   103A      1.357654   104A      1.360613  
     105A      1.418486   106A      1.451928   107A      1.521576  
     108A      1.587559   109A      1.621537   110A      1.651886  
     111A      1.717596   112A      1.725989   113A      1.743844  
     114A      1.788693   115A      1.800752   116A      1.826252  
     117A      1.891811   118A      1.930099   119A      1.945775  
     120A      1.974143   121A      1.990415   122A      1.997951  
     123A      2.013989   124A      2.034461   125A      2.115380  
     126A      2.123169   127A      2.151017   128A      2.182735  
     129A      2.197500   130A      2.305323   131A      2.330047  
     132A      2.403721   133A      2.440877   134A      2.452910  
     135A      2.481186   136A      2.514075   137A      2.535668  
     138A      2.589802   139A      2.597214   140A      2.621171  
     141A      2.729523   142A      2.823447   143A      2.977516  
     144A      3.251524   145A      3.616091   146A      3.658045  
     147A      3.906913   148A      3.943743   149A      3.961920  
     150A      4.039222   151A      4.169909   152A      4.249804  
     153A      4.541877  

    Final Occupation by Irrep:
              A 
    DOCC [    32 ]

  Energy converged.

  @DF-RKS Final Energy:  -381.44099141226053

   => Energetics <=

    Nuclear Repulsion Energy =            415.2497429757015084
    One-Electron Energy =               -1325.7894751597500544
    Two-Electron Energy =                 573.4885993482291724
    DFT Exchange-Correlation Energy =     -44.3781143664411957
    Empirical Dispersion Energy =          -0.0117442100000000
    VV10 Nonlocal Energy =                  0.0000000000000000
    Total Energy =                       -381.4409914122605301



Properties will be evaluated at   0.000000,   0.000000,   0.000000 [a0]

Properties computed using the SCF density matrix

  Nuclear Dipole Moment: [e a0]
     X:     1.1298      Y:    -1.3227      Z:     0.8512

  Electronic Dipole Moment: [e a0]
     X:    -1.0335      Y:     1.5093      Z:    -2.9794

  Dipole Moment: [e a0]
     X:     0.0964      Y:     0.1866      Z:    -2.1282     Total:     2.1386

  Dipole Moment: [D]
     X:     0.2450      Y:     0.4744      Z:    -5.4094     Total:     5.4357


*** tstop() called on arancio.prib.upf.edu at Sat Sep 29 20:28:11 2018
Module time:
	user time   =      76.63 seconds =       1.28 minutes
	system time =       0.51 seconds =       0.01 minutes
	total time  =         21 seconds =       0.35 minutes
Total time:
	user time   =     195.53 seconds =       3.26 minutes
	system time =       1.55 seconds =       0.03 minutes
	total time  =         56 seconds =       0.93 minutes

*** tstart() called on arancio.prib.upf.edu
*** at Sat Sep 29 20:28:11 2018


         ------------------------------------------------------------
                                   SCF GRAD                          
                          Rob Parrish, Justin Turney,                
                       Andy Simmonett, and Alex Sokolov              
         ------------------------------------------------------------

  ==> Geometry <==

    Molecular point group: c1
    Full point group: C1

    Geometry (in Angstrom), charge = 1, multiplicity = 1:

       Center              X                  Y                   Z               Mass       
    ------------   -----------------  -----------------  -----------------  -----------------
         C            0.037138149569    -0.037393952263    -0.166144683707    12.000000000000
         C            0.116811235858     1.193529489779     0.519081779684    12.000000000000
         C            0.085892165688     1.212874012487     1.910254564804    12.000000000000
         C            0.007560056079     0.013601344588     2.625748111352    12.000000000000
         C           -0.057989665735    -1.211507070597     1.951296168241    12.000000000000
         C           -0.056474149616    -1.242571867663     0.562147232163    12.000000000000
         C            0.034927186365    -0.049603373640    -1.634246396911    12.000000000000
         H            0.138984054373     2.131144220303    -0.031006513670     1.007825032070
         H            0.117308731441     2.162253503470     2.435759347286     1.007825032070
         H           -0.008575359326     0.032847622661     3.711378042961     1.007825032070
         H           -0.113696473814    -2.141079685916     2.510533498976     1.007825032070
         H           -0.093217643927    -2.201836707735     0.051659841541     1.007825032070
         N           -0.683493277476    -0.953147743288    -2.362809392633    14.003074004780
         N            0.637963326629     0.947500037621    -2.273861605711    14.003074004780
         H            0.577048639422     1.040238504312    -3.283107211642     1.007825032070
         H            1.180016388224     1.663317119522    -1.767870174337     1.007825032070
         H           -0.512837467454    -1.945819816142    -2.267547298406     1.007825032070
         H           -1.375622896299    -0.675043637500    -3.061495309989     1.007825032070

  Nuclear repulsion =  415.249742975701508

  ==> Basis Set <==

  Basis Set: 6-31G*
    Blend: 6-31G*
    Number of shells: 72
    Number of basis function: 153
    Number of Cartesian functions: 153
    Spherical Harmonics?: false
    Max angular momentum: 2

  ==> DFJKGrad: Density-Fitted SCF Gradients <==

    Gradient:                    1
    J tasked:                  Yes
    K tasked:                  Yes
    wK tasked:                  No
    OpenMP threads:              4
    Integrals threads:           4
    Memory (MB):              2002
    Schwarz Cutoff:          0E+00
    Fitting Condition:       1E-12

   => Auxiliary Basis Set <=

  Basis Set: (6-31G* AUX)
    Blend: CC-PVDZ-JKFIT
    Number of shells: 297
    Number of basis function: 954
    Number of Cartesian functions: 954
    Spherical Harmonics?: false
    Max angular momentum: 3

  ==> DFT Potential <==

   => Composite Functional: B3LYP-D3ZERO <= 

    B3LYP-d3zero Hyb-GGA Exchange-Correlation Functional

    P. J. Stephens, F. J. Devlin, C. F. Chabalowski, and M. J. Frisch, J. Phys. Chem. 98, 11623 (1994)

    Deriv               =              1
    GGA                 =           TRUE
    Meta                =          FALSE

    Exchange Hybrid     =           TRUE
    MP2 Hybrid          =          FALSE

   => Exchange Functionals <=

    0.0800   Slater exchange
    0.7200         Becke 88

   => Exact (HF) Exchange <=

    0.2000               HF 

   => Correlation Functionals <=

    0.1900   Vosko, Wilk & Nusair (VWN5_RPA)
    0.8100   Lee, Yang & Parr

   => Molecular Quadrature <=

    Radial Scheme       =       TREUTLER
    Pruning Scheme      =           FLAT
    Nuclear Scheme      =       TREUTLER

    BS radius alpha     =              1
    Pruning alpha       =              1
    Radial Points       =             75
    Spherical Points    =            302
    Total Points        =         396926
    Total Blocks        =           3019
    Max Points          =            256
    Max Functions       =            149


  -Total Gradient:
     Atom            X                  Y                   Z
    ------   -----------------  -----------------  -----------------
       1       -0.008752391284     0.010733737086     0.001704079405
       2       -0.001149050279     0.001301913278    -0.001015102447
       3       -0.000035987294     0.000006060717     0.000869907588
       4       -0.000012364177     0.000267640099     0.000248512585
       5        0.000059697979     0.000190028676    -0.000338401023
       6        0.000709282675    -0.001339673051     0.000829838633
       7        0.005189955033    -0.013492435825     0.000752104468
       8        0.000655045482     0.000020526297    -0.002214257933
       9        0.000161638487     0.000251816689     0.000178042668
      10        0.000027422867    -0.000080675756     0.000217205532
      11       -0.000127188082    -0.000772387852     0.000283217466
      12        0.000993784605    -0.001280857372     0.000029657587
      13       -0.001554444130     0.000197528530     0.004620067338
      14        0.001504255710    -0.006477394423    -0.004661168637
      15       -0.001510120826     0.001571498903    -0.000353414981
      16        0.009744364669     0.009365128863     0.007118697537
      17        0.008283368202    -0.000201818189    -0.008675718760
      18       -0.014181114278    -0.000254103494     0.000418961769


*** tstop() called on arancio.prib.upf.edu at Sat Sep 29 20:28:18 2018
Module time:
	user time   =      28.38 seconds =       0.47 minutes
	system time =       0.23 seconds =       0.00 minutes
	total time  =          7 seconds =       0.12 minutes
Total time:
	user time   =     223.99 seconds =       3.73 minutes
	system time =       1.78 seconds =       0.03 minutes
	total time  =         63 seconds =       1.05 minutes

			-----------------------------------------
			 OPTKING 2.0: for geometry optimizations 
			  - R.A. King,  Bethel University        
			-----------------------------------------
	At level 1: Red. Int., RFO, no backsteps, dynamic trust

	Previous internal coordinate definitions found.
	---Fragment 1 Geometry and Gradient---
	 C           0.0701809318       -0.0706643288       -0.3139679506
	 C           0.2207412450        2.2554438672        0.9809224042
	 C           0.1623126701        2.2919997173        3.6098579716
	 C           0.0142864355        0.0257028163        4.9619448244
	 C          -0.1095845868       -2.2894165715        3.6874153621
	 C          -0.1067206764       -2.3481205303        1.0623043151
	 C           0.0660028168       -0.0937367914       -3.0882781238
	 H           0.2626417996        4.0272789261       -0.0585938192
	 H           0.2216813754        4.0860669514        4.6029180920
	 H          -0.0162050806        0.0620730109        7.0134880768
	 H          -0.2148551978       -4.0460542351        4.7442207605
	 H          -0.1761558178       -4.1608683670        0.0976229526
	 N          -1.2916151081       -1.8011881990       -4.4650626563
	 N           1.2055759702        1.7905155820       -4.2969756989
	 H           1.0904638939        1.9657658860       -6.2041734949
	 H           2.2299078061        3.1432138280       -3.3407904680
	 H          -0.9691223642       -3.6770665565       -4.2850433874
	 H          -2.5995505361       -1.2756476026       -5.7853876930
	            -0.0087523913        0.0107337371        0.0017040794
	            -0.0011490503        0.0013019133       -0.0010151024
	            -0.0000359873        0.0000060607        0.0008699076
	            -0.0000123642        0.0002676401        0.0002485126
	             0.0000596980        0.0001900287       -0.0003384010
	             0.0007092827       -0.0013396731        0.0008298386
	             0.0051899550       -0.0134924358        0.0007521045
	             0.0006550455        0.0000205263       -0.0022142579
	             0.0001616385        0.0002518167        0.0001780427
	             0.0000274229       -0.0000806758        0.0002172055
	            -0.0001271881       -0.0007723879        0.0002832175
	             0.0009937846       -0.0012808574        0.0000296576
	            -0.0015544441        0.0001975285        0.0046200673
	             0.0015042557       -0.0064773944       -0.0046611686
	            -0.0015101208        0.0015714989       -0.0003534150
	             0.0097443647        0.0093651289        0.0071186975
	             0.0082833682       -0.0002018182       -0.0086757188
	            -0.0141811143       -0.0002541035        0.0004189618

	---Fragment 1 Intrafragment Coordinates---
	 - Coordinate -           - BOHR/RAD -       - ANG/DEG -
	 R(1,2)           =         2.666494	       1.411048
	 R(1,6)           =         2.666876	       1.411250
	 R(1,7)           =         2.774409	       1.468154
	 R(2,3)           =         2.629839	       1.391651
	 R(2,8)           =         2.054690	       1.087295
	 R(3,4)           =         2.643133	       1.398686
	 R(3,9)           =         2.051431	       1.085571
	 R(4,5)           =         2.645666	       1.400026
	 R(4,10)          =         2.052092	       1.085920
	 R(5,6)           =         2.625769	       1.389497
	 R(5,11)          =         2.052729	       1.086257
	 R(6,12)          =         2.054626	       1.087261
	 R(7,13)          =         2.579545	       1.365036
	 R(7,14)          =         2.511968	       1.329276
	 R(13,17)         =         1.911891	       1.011729
	 R(13,18)         =         1.931359	       1.022031
	 R(14,15)         =         1.918689	       1.015326
	 R(14,16)         =         1.947649	       1.030652
	 B(1,2,3)         =         2.090151	     119.756836
	 B(1,2,8)         =         2.103338	     120.512373
	 B(1,6,5)         =         2.090833	     119.795935
	 B(1,6,12)        =         2.109924	     120.889751
	 B(1,7,13)        =         2.141245	     122.684299
	 B(1,7,14)        =         2.064894	     118.309690
	 B(2,1,6)         =         2.092207	     119.874653
	 B(2,1,7)         =         2.086259	     119.533849
	 B(2,3,4)         =         2.095200	     120.046123
	 B(2,3,9)         =         2.089125	     119.698034
	 B(3,2,8)         =         2.087729	     119.618079
	 B(3,4,5)         =         2.101906	     120.430338
	 B(3,4,10)        =         2.090987	     119.804740
	 B(4,3,9)         =         2.098845	     120.254984
	 B(4,5,6)         =         2.095705	     120.075073
	 B(4,5,11)        =         2.098124	     120.213653
	 B(5,4,10)        =         2.090274	     119.763893
	 B(5,6,12)        =         2.081839	     119.280611
	 B(6,1,7)         =         2.104635	     120.586692
	 B(6,5,11)        =         2.089350	     119.710935
	 B(7,13,17)       =         2.106471	     120.691908
	 B(7,13,18)       =         2.142629	     122.763613
	 B(7,14,15)       =         2.117168	     121.304785
	 B(7,14,16)       =         2.121558	     121.556300
	 B(13,7,14)       =         2.069690	     118.584511
	 B(15,14,16)      =         2.044426	     117.136960
	 B(17,13,18)      =         2.032621	     116.460600
	 D(1,2,3,4)       =         0.025957	       1.487210
	 D(1,2,3,9)       =        -3.109769	    -178.176613
	 D(1,6,5,4)       =         0.021123	       1.210245
	 D(1,6,5,11)      =        -3.124163	    -179.001348
	*D(1,7,13,17)     =        -1.047198	     -60.000007
	 D(1,7,13,18)     =         2.154600	     123.449475
	 D(1,7,14,15)     =        -3.022504	    -173.176726
	 D(1,7,14,16)     =         0.109957	       6.300099
	 D(2,1,6,5)       =        -0.009740	      -0.558059
	 D(2,1,6,12)      =        -3.114214	    -178.431292
	 D(2,1,7,13)      =        -2.531382	    -145.037494
	 D(2,1,7,14)      =         0.478204	      27.399045
	 D(2,3,4,5)       =        -0.014700	      -0.842266
	 D(2,3,4,10)      =         3.133351	     179.527764
	 D(3,2,1,6)       =        -0.013850	      -0.793530
	 D(3,2,1,7)       =         3.113907	     178.413715
	 D(3,4,5,6)       =        -0.009090	      -0.520801
	 D(3,4,5,11)      =         3.136215	     179.691865
	 D(4,3,2,8)       =         3.100540	     177.647836
	 D(4,5,6,12)      =         3.126196	     179.117821
	 D(5,4,3,9)       =         3.120992	     178.819665
	 D(5,6,1,7)       =        -3.137348	    -179.756827
	 D(6,1,2,8)       =        -3.087824	    -176.919255
	 D(6,1,7,13)      =         0.596274	      34.163988
	 D(6,1,7,14)      =        -2.677326	    -153.399473
	 D(6,5,4,10)      =         3.126047	     179.109319
	 D(7,1,2,8)       =         0.039933	       2.287989
	 D(7,1,6,12)      =         0.041363	       2.369940
	 D(8,2,3,9)       =        -0.035186	      -2.015986
	 D(9,3,4,10)      =        -0.014142	      -0.810304
	 D(10,4,5,11)     =        -0.011834	      -0.678014
	 D(11,5,6,12)     =        -0.019090	      -1.093773
	 D(13,7,14,15)    =        -0.007409	      -0.424478
	 D(13,7,14,16)    =         3.125053	     179.052347
	 D(14,7,13,17)    =         2.226748	     127.583249
	 D(14,7,13,18)    =        -0.854640	     -48.967268

	Current energy   :      -381.4409914123

	Energy change for the previous step:
		Projected    :        -0.0157900683
		Actual       :        -0.0081147004

	Performing BFGS update.
	Previous computed or guess Hessian on step 1.
	Steps to be used in Hessian update: 1
	Taking RFO optimization step.
	Going to follow RFO solution 1.
	Using RFO vector 1.

	Determining step-restricting scale parameter for RS-RFO.
	Maximum step size allowed    0.50000

	 Iter      |step|        alpha        rfo_root  
	------------------------------------------------
	    0     0.59376       1.00000           1
	    1     0.51843       1.50899           1
	    2     0.50096       1.66281           1
	    3     0.50000       1.67177           1
	------------------------------------------------
	Norm of target step-size    0.50000
	Projected energy change by RFO approximation:        -0.0029140459

	Back-transformation to cartesian coordinates...
	Could not converge backtransformation.
	Using first guess instead.

	Back-transformation to cartesian coordinates to adjust frozen coordinates...
	Successfully converged to displaced geometry.

	--- Internal Coordinate Step in ANG or DEG, aJ/ANG or AJ/DEG ---
	 ---------------------------------------------------------------------------
	   Coordinate                Previous        Force       Change         New 
	   ----------                --------       ------       ------       ------
	    1 R(1,2)          =      1.411048     0.004542     0.002510     1.413558
	    2 R(1,6)          =      1.411250    -0.017907    -0.000482     1.410768
	    3 R(1,7)          =      1.468154    -0.007013    -0.000776     1.467378
	    4 R(2,3)          =      1.391651    -0.009494    -0.001113     1.390538
	    5 R(2,8)          =      1.087295    -0.009486    -0.000982     1.086313
	    6 R(3,4)          =      1.398686    -0.007818    -0.000449     1.398237
	    7 R(3,9)          =      1.085571    -0.002559    -0.000083     1.085488
	    8 R(4,5)          =      1.400026    -0.010194    -0.000215     1.399811
	    9 R(4,10)         =      1.085920    -0.001768    -0.000174     1.085746
	   10 R(5,6)          =      1.389497    -0.002510    -0.000937     1.388560
	   11 R(5,11)         =      1.086257    -0.006699    -0.000137     1.086121
	   12 R(6,12)         =      1.087261    -0.008923     0.000080     1.087341
	   13 R(7,13)         =      1.365036    -0.049741     0.007385     1.372422
	   14 R(7,14)         =      1.329276    -0.055605    -0.002465     1.326812
	   15 R(13,17)        =      1.011729    -0.006416    -0.000687     1.011042
	   16 R(13,18)        =      1.022031    -0.076198     0.020498     1.042529
	   17 R(14,15)        =      1.015326    -0.004831     0.002775     1.018101
	   18 R(14,16)        =      1.030652    -0.124592    -0.002348     1.028304
	   19 B(1,2,3)        =    119.756836     0.000035     0.133925   119.890761
	   20 B(1,2,8)        =    120.512373     0.000129     0.637142   121.149516
	   21 B(1,6,5)        =    119.795935     0.000094     0.339436   120.135371
	   22 B(1,6,12)       =    120.889751    -0.000092    -0.186170   120.703581
	   23 B(1,7,13)       =    122.684299    -0.000337    -0.125809   122.558490
	   24 B(1,7,14)       =    118.309690     0.000827     1.948899   120.258589
	   25 B(2,1,6)        =    119.874653    -0.000107    -0.416021   119.458632
	   26 B(2,1,7)        =    119.533849     0.000408     1.131884   120.665733
	   27 B(2,3,4)        =    120.046123     0.000027     0.093894   120.140017
	   28 B(2,3,9)        =    119.698034    -0.000015    -0.084060   119.613974
	   29 B(3,2,8)        =    119.618079    -0.000165    -0.814652   118.803427
	   30 B(3,4,5)        =    120.430338    -0.000037    -0.104501   120.325836
	   31 B(3,4,10)       =    119.804740     0.000012     0.036618   119.841357
	   32 B(4,3,9)        =    120.254984    -0.000011    -0.011202   120.243782
	   33 B(4,5,6)        =    120.075073    -0.000011    -0.058912   120.016161
	   34 B(4,5,11)       =    120.213653    -0.000007     0.000828   120.214480
	   35 B(5,4,10)       =    119.763893     0.000025     0.063140   119.827033
	   36 B(5,6,12)       =    119.280611    -0.000001    -0.130858   119.149753
	   37 B(6,1,7)        =    120.586692    -0.000301    -0.737338   119.849353
	   38 B(6,5,11)       =    119.710935     0.000018     0.055588   119.766522
	   39 B(7,13,17)      =    120.691908     0.000128     0.655368   121.347276
	   40 B(7,13,18)      =    122.763613    -0.000290    -2.529193   120.234420
	   41 B(7,14,15)      =    121.304785    -0.000035    -0.901025   120.403760
	   42 B(7,14,16)      =    121.556300     0.000008     0.773631   122.329931
	   43 B(13,7,14)      =    118.584511    -0.000495    -2.103331   116.481180
	   44 B(15,14,16)     =    117.136960     0.000027     0.109269   117.246230
	   45 B(17,13,18)     =    116.460600     0.000130    -0.788602   115.671998
	   46 D(1,2,3,4)      =      1.487210    -0.000001     0.090438     1.577647
	   47 D(1,2,3,9)      =   -178.176613     0.000001     0.295703  -177.880910
	   48 D(1,6,5,4)      =      1.210245     0.000002     0.433997     1.644242
	   49 D(1,6,5,11)     =   -179.001348     0.000000     0.034325  -178.967022
	   50 *D(1,7,13,17)   =    -60.000007     0.000000    -0.000000   -60.000007
	   51 D(1,7,13,18)    =    123.449475     0.000150    16.135039   139.584515
	   52 D(1,7,14,15)    =   -173.176726    -0.000022    -2.411820  -175.588546
	   53 D(1,7,14,16)    =      6.300099    -0.000023    -3.564001     2.736098
	   54 D(2,1,6,5)      =     -0.558059    -0.000005    -0.775730    -1.333789
	   55 D(2,1,6,12)     =   -178.431292    -0.000012    -1.669603  -180.100895
	   56 D(2,1,7,13)     =   -145.037494    -0.000012    -2.722869  -147.760363
	   57 D(2,1,7,14)     =     27.399045    -0.000030    -5.099772    22.299273
	   58 D(2,3,4,5)      =     -0.842266    -0.000002    -0.437179    -1.279445
	   59 D(2,3,4,10)     =    179.527764     0.000001     0.068331   179.596096
	   60 D(3,2,1,6)      =     -0.793530     0.000005     0.512527    -0.281002
	   61 D(3,2,1,7)      =    178.413715    -0.000004    -0.562215   177.851499
	   62 D(3,4,5,6)      =     -0.520801     0.000002     0.177084    -0.343717
	   63 D(3,4,5,11)     =    179.691865     0.000004     0.578447   180.270312
	   64 D(4,3,2,8)      =    177.647836    -0.000004    -0.561256   177.086580
	   65 D(4,5,6,12)     =    179.117821     0.000009     1.312630   180.430451
	   66 D(5,4,3,9)      =    178.819665    -0.000005    -0.643991   178.175675
	   67 D(5,6,1,7)      =   -179.756827     0.000002     0.275072  -179.481755
	   68 D(6,1,2,8)      =   -176.919255     0.000011     1.236903  -175.682353
	   69 D(6,1,7,13)     =     34.163988    -0.000020    -3.799116    30.364871
	   70 D(6,1,7,14)     =   -153.399473    -0.000038    -6.176019  -159.575492
	   71 D(6,5,4,10)     =    179.109319    -0.000002    -0.328452   178.780868
	   72 D(7,1,2,8)      =      2.287989     0.000003     0.162160     2.450149
	   73 D(7,1,6,12)     =      2.369940    -0.000005    -0.618801     1.751139
	   74 D(8,2,3,9)      =     -2.015986    -0.000002    -0.355991    -2.371977
	   75 D(9,3,4,10)     =     -0.810304    -0.000001    -0.138481    -0.948785
	   76 D(10,4,5,11)    =     -0.678014     0.000000     0.072911    -0.605103
	   77 D(11,5,6,12)    =     -1.093773     0.000007     0.912959    -0.180814
	   78 D(13,7,14,15)   =     -0.424478    -0.000038    -4.518918    -4.943396
	   79 D(13,7,14,16)   =    179.052347    -0.000039    -5.671099   173.381248
	   80 D(14,7,13,17)   =    127.583249    -0.000004     2.005925   129.589174
	   81 D(14,7,13,18)   =    -48.967268     0.000146    18.140965   -30.826304
	 ---------------------------------------------------------------------------
	Successfully symmetrized geometry.

  ==> Convergence Check <==

  Measures of convergence in internal coordinates in au.
  Criteria marked as inactive (o), active & met (*), and active & unmet ( ).
  ---------------------------------------------------------------------------------------------
   Step     Total Energy     Delta E     MAX Force     RMS Force      MAX Disp      RMS Disp   
  ---------------------------------------------------------------------------------------------
    Convergence Criteria    1.00e-06 *    3.00e-04 *             o    1.20e-03 *             o
  ---------------------------------------------------------------------------------------------
      2    -381.44099141   -8.11e-03      1.51e-02      3.21e-03 o    3.17e-01      5.44e-02 o  ~
  ---------------------------------------------------------------------------------------------

	Writing optimization data to binary file.
	Structure for next step:
	Cartesian Geometry (in Angstrom)
	    C     0.0544237334  -0.0241619772  -0.1510895772
	    C     0.1660602826   1.1982659241   0.5498760039
	    C     0.1304230452   1.2057501976   1.9399367028
	    C     0.0176090655   0.0040624100   2.6458310836
	    C    -0.0870937785  -1.2115519394   1.9596898405
	    C    -0.0864550667  -1.2277735633   0.5712244184
	    C     0.0428228621  -0.0472274802  -1.6182401667
	    H     0.2058052694   2.1469860560   0.0222152546
	    H     0.1817866046   2.1500777469   2.4727512807
	    H    -0.0031567082   0.0150165203   3.7313236322
	    H    -0.1790513820  -2.1435313387   2.5097957881
	    H    -0.1756009161  -2.1793094414   0.0526267800
	    N    -0.6629692552  -0.9795446612  -2.3366994582
	    N     0.5631155284   0.9604889753  -2.3068852235
	    H     0.4968507354   0.9789566804  -3.3226600365
	    H     1.0221134940   1.7594862262  -1.8504501512
	    H    -0.4758642793  -1.9685800524  -2.2417923522
	    H    -1.1790762345  -0.6981082830  -3.1976838191
			--------------------------
			 OPTKING Finished Execution 
			--------------------------

    Structure for next step:
    Molecular point group: c1
    Full point group: C1

    Geometry (in Angstrom), charge = 1, multiplicity = 1:

    C            0.054423733428    -0.024161977165    -0.151089577231
    C            0.166060282637     1.198265924128     0.549876003883
    C            0.130423045156     1.205750197576     1.939936702778
    C            0.017609065482     0.004062409973     2.645831083569
    C           -0.087093778534    -1.211551939388     1.959689840523
    C           -0.086455066668    -1.227773563299     0.571224418351
    C            0.042822862141    -0.047227480212    -1.618240166711
    H            0.205805269382     2.146986056029     0.022215254592
    H            0.181786604564     2.150077746856     2.472751280698
    H           -0.003156708187     0.015016520301     3.731323632150
    H           -0.179051382038    -2.143531338737     2.509795788136
    H           -0.175600916104    -2.179309441423     0.052626779997
    N           -0.662969255247    -0.979544661156    -2.336699458229
    N            0.563115528391     0.960488975303    -2.306885223546
    H            0.496850735401     0.978956680369    -3.322660036469
    H            1.022113494009     1.759486226235    -1.850450151190
    H           -0.475864279326    -1.968580052380    -2.241792352163
    H           -1.179076234487    -0.698108283011    -3.197683819137

gradient() will perform analytic gradient computation.

*** tstart() called on arancio.prib.upf.edu
*** at Sat Sep 29 20:28:18 2018

   => Loading Basis Set <=

    Name: 6-31G*
    Role: ORBITAL
    Keyword: BASIS
[...]
       9        0.000074384772     0.000015445900     0.000012466688
      10       -0.000028207025     0.000016735777     0.000019011080
      11       -0.000036599569    -0.000075506564     0.000035186845
      12       -0.000026070190    -0.000097449704    -0.000027823738
      13       -0.013074633878    -0.007190399094     0.012329666718
      14        0.000059603802    -0.000070971569    -0.000082727812
      15        0.000001751980     0.000007497818    -0.000022492172
      16       -0.000033985494     0.000146687282     0.000044318852
      17        0.006268139655     0.005299166958    -0.009326486278
      18        0.000008553535    -0.000032690760     0.000015879676


*** tstop() called on arancio.prib.upf.edu at Sat Sep 29 20:51:43 2018
Module time:
	user time   =      27.53 seconds =       0.46 minutes
	system time =       0.21 seconds =       0.00 minutes
	total time  =          7 seconds =       0.12 minutes
Total time:
	user time   =    5375.04 seconds =      89.58 minutes
	system time =      35.01 seconds =       0.58 minutes
	total time  =       1468 seconds =      24.47 minutes

			-----------------------------------------
			 OPTKING 2.0: for geometry optimizations 
			  - R.A. King,  Bethel University        
			-----------------------------------------
	At level 5: XYZ, RFO, backsteps, medium trust.

	Previous internal coordinate definitions found.
	---Fragment 1 Geometry and Gradient---
	 C           0.0586914637       -0.0125385233       -0.2811121434
	 C           1.0378501751        2.0541263737        1.0919067520
	 C           1.0009589843        2.0109391484        3.7158671703
	 C          -0.0007253104       -0.0827594579        4.9867457207
	 C          -0.9563842541       -2.1443213596        3.6361180584
	 C          -0.9215248689       -2.1283628893        1.0089599328
	 C           0.0443565796        0.0186460682       -3.0331049084
	 H           1.9086360868        3.6371005762        0.1151190865
	 H           1.7747498465        3.5871386173        4.7750866242
	 H          -0.0308589216       -0.1071516210        7.0382863915
	 H          -1.7433967264       -3.7542589305        4.6334448286
	 H          -1.7186166597       -3.6930918557       -0.0491838795
	 N          -0.0093756348       -2.1952273523       -4.3246047199
	 N          -0.2898040929        2.1768123567       -4.2693803047
	 H          -0.1686689663        2.2988563884       -6.1775775550
	 H          -0.7850049450        3.7699079372       -3.3293529605
	 H           1.4490799555       -3.4107945289       -4.0328963662
	 H          -0.4401534752       -2.0880095288       -6.1951933055
	            -0.0087552039        0.0001522536       -0.0000586508
	            -0.0001997288        0.0001675829        0.0000429071
	             0.0000393765        0.0000853481       -0.0000624082
	             0.0000651761       -0.0000497804        0.0000777557
	            -0.0000433481       -0.0000248404       -0.0000490650
	            -0.0000300232       -0.0000206826        0.0000723221
	             0.0156024841        0.0016699017       -0.0030451969
	             0.0000983557       -0.0000017415        0.0000105809
	             0.0000743848        0.0000154459        0.0000124667
	            -0.0000282070        0.0000167358        0.0000190111
	            -0.0000365996       -0.0000755066        0.0000351868
	            -0.0000260702       -0.0000974497       -0.0000278237
	            -0.0130746339       -0.0071903991        0.0123296667
	             0.0000596038       -0.0000709716       -0.0000827278
	             0.0000017520        0.0000074978       -0.0000224922
	            -0.0000339855        0.0001466873        0.0000443189
	             0.0062681397        0.0052991670       -0.0093264863
	             0.0000085535       -0.0000326908        0.0000158797

	---Fragment 1 Intrafragment Coordinates---
	 - Coordinate -           - BOHR/RAD -       - ANG/DEG -
	 R(1,X)           =         0.058691	       0.031058
	 R(1,Y)           =        -0.012539	      -0.006635
	 R(1,Z)           =        -0.281112	      -0.148758
	 R(2,X)           =         1.037850	       0.549207
	 R(2,Y)           =         2.054126	       1.086997
	 R(2,Z)           =         1.091907	       0.577812
	 R(3,X)           =         1.000959	       0.529685
	 R(3,Y)           =         2.010939	       1.064143
	 R(3,Z)           =         3.715867	       1.966352
	 R(4,X)           =        -0.000725	      -0.000384
	 R(4,Y)           =        -0.082759	      -0.043794
	 R(4,Z)           =         4.986746	       2.638872
	 R(5,X)           =        -0.956384	      -0.506097
	 R(5,Y)           =        -2.144321	      -1.134726
	 R(5,Z)           =         3.636118	       1.924151
	 R(6,X)           =        -0.921525	      -0.487650
	 R(6,Y)           =        -2.128363	      -1.126281
	 R(6,Z)           =         1.008960	       0.533919
	 R(7,X)           =         0.044357	       0.023472
	 R(7,Y)           =         0.018646	       0.009867
	 R(7,Z)           =        -3.033105	      -1.605050
	 R(8,X)           =         1.908636	       1.010007
	 R(8,Y)           =         3.637101	       1.924671
	 R(8,Z)           =         0.115119	       0.060918
	 R(9,X)           =         1.774750	       0.939157
	 R(9,Y)           =         3.587139	       1.898232
	 R(9,Z)           =         4.775087	       2.526867
	 R(10,X)          =        -0.030859	      -0.016330
	 R(10,Y)          =        -0.107152	      -0.056702
	 R(10,Z)          =         7.038286	       3.724501
	 R(11,X)          =        -1.743397	      -0.922566
	 R(11,Y)          =        -3.754259	      -1.986668
	 R(11,Z)          =         4.633445	       2.451913
	 R(12,X)          =        -1.718617	      -0.909453
	 R(12,Y)          =        -3.693092	      -1.954300
	 R(12,Z)          =        -0.049184	      -0.026027
	 R(13,X)          =        -0.009376	      -0.004961
	 R(13,Y)          =        -2.195227	      -1.161664
	 R(13,Z)          =        -4.324605	      -2.288482
	 R(14,X)          =        -0.289804	      -0.153358
	 R(14,Y)          =         2.176812	       1.151919
	 R(14,Z)          =        -4.269380	      -2.259259
	 R(15,X)          =        -0.168669	      -0.089256
	 R(15,Y)          =         2.298856	       1.216502
	 R(15,Z)          =        -6.177578	      -3.269033
	 R(16,X)          =        -0.785005	      -0.415407
	 R(16,Y)          =         3.769908	       1.994949
	 R(16,Z)          =        -3.329353	      -1.761818
	 R(17,X)          =         1.449080	       0.766820
	 R(17,Y)          =        -3.410795	      -1.804915
	 R(17,Z)          =        -4.032896	      -2.134117
	 R(18,X)          =        -0.440153	      -0.232919
	 R(18,Y)          =        -2.088010	      -1.104927
	 R(18,Z)          =        -6.195193	      -3.278355
	*D(1,7,13,17)     =        -1.047198	     -60.000007

	Current energy   :      -381.4616147927

	Energy change for the previous step:
		Projected    :        -0.0005007410
		Actual       :        -0.0000001738

	Performing BFGS update.
	Previous computed or guess Hessian on step 1.
	Steps to be used in Hessian update: 1
	Taking RFO optimization step.
	Going to follow RFO solution 1.
	Rejecting RFO root 1 because normalization gives large value.
	Rejecting RFO root 2 because normalization gives large value.
	Rejecting RFO root 3 because normalization gives large value.
	Using RFO vector 4.

	Determining step-restricting scale parameter for RS-RFO.
	Maximum step size allowed    0.20000

	 Iter      |step|        alpha        rfo_root  
	------------------------------------------------
	    0   137.60652       1.00000           4
	    1    68.82775       1.99780           4
	    2    34.43845       3.98684           4
	    3    17.24398       7.93879           4
	    4     8.64710      15.73922           4
	    5     4.34937      30.93476           4
	    6     2.20192      59.77057           4
	    7     1.13100     111.71409           4
	    8     0.60103     196.14004           4
	    9     0.34640     308.41988           4
	   10     0.23665     410.20493           4
	   11     0.20372     455.59909           4
	   12     0.20005     461.31087           4
	   13     0.20000     461.38527           4
	------------------------------------------------
	Norm of target step-size    0.20000
	Projected energy change by RFO approximation:         0.0051513868

	Back-transformation to cartesian coordinates...
	Successfully converged to displaced geometry.

	Back-transformation to cartesian coordinates to adjust frozen coordinates...
	Successfully converged to displaced geometry.

	--- Internal Coordinate Step in ANG or DEG, aJ/ANG or AJ/DEG ---
	 ---------------------------------------------------------------------------
	   Coordinate                Previous        Force       Change         New 
	   ----------                --------       ------       ------       ------
	    1 R(1,X)          =      0.031058    -0.000618     0.038636     0.069694
	    2 R(1,Y)          =     -0.006635     0.000280    -0.020144    -0.026779
	    3 R(1,Z)          =     -0.148758     0.000880    -0.001980    -0.150738
	    4 R(2,X)          =      0.549207     0.001646     0.028679     0.577885
	    5 R(2,Y)          =      1.086997    -0.001381    -0.016102     1.070895
	    6 R(2,Z)          =      0.577812    -0.000353    -0.001238     0.576574
	    7 R(3,X)          =      0.529685    -0.000324     0.016620     0.546305
	    8 R(3,Y)          =      1.064143    -0.000703    -0.010894     1.053249
	    9 R(3,Z)          =      1.966352     0.000514    -0.001306     1.965047
	   10 R(4,X)          =     -0.000384    -0.000537     0.010661     0.010277
	   11 R(4,Y)          =     -0.043794     0.000410    -0.007921    -0.051715
	   12 R(4,Z)          =      2.638872    -0.000641    -0.002010     2.636862
	   13 R(5,X)          =     -0.506097     0.000357     0.016057    -0.490040
	   14 R(5,Y)          =     -1.134726     0.000205    -0.009762    -1.144488
	   15 R(5,Z)          =      1.924151     0.000404    -0.002676     1.921475
	   16 R(6,X)          =     -0.487650     0.000247     0.029658    -0.457991
	   17 R(6,Y)          =     -1.126281     0.000170    -0.015850    -1.142131
	   18 R(6,Z)          =      0.533919    -0.000596    -0.002606     0.531312
	   19 R(7,X)          =      0.023472     0.000273     0.026723     0.050195
	   20 R(7,Y)          =      0.009867    -0.001370    -0.011475    -0.001608
	   21 R(7,Z)          =     -1.605050    -0.001506    -0.001796    -1.606846
	   22 R(8,X)          =      1.010007    -0.000810     0.025399     1.035405
	   23 R(8,Y)          =      1.924671     0.000014    -0.013958     1.910713
	   24 R(8,Z)          =      0.060918    -0.000087    -0.000641     0.060277
	   25 R(9,X)          =      0.939157    -0.000613     0.008871     0.948029
	   26 R(9,Y)          =      1.898232    -0.000127    -0.007540     1.890692
	   27 R(9,Z)          =      2.526867    -0.000103    -0.000669     2.526198
	   28 R(10,X)         =     -0.016330     0.000232    -0.001354    -0.017684
	   29 R(10,Y)         =     -0.056702    -0.000138    -0.002616    -0.059319
	   30 R(10,Z)         =      3.724501    -0.000157    -0.002124     3.722376
	   31 R(11,X)         =     -0.922566     0.000302     0.006859    -0.915707
	   32 R(11,Y)         =     -1.986668     0.000622    -0.005119    -1.991787
	   33 R(11,Z)         =      2.451913    -0.000290    -0.003294     2.448620
	   34 R(12,X)         =     -0.909453     0.000215     0.027263    -0.882190
	   35 R(12,Y)         =     -1.954300     0.000803    -0.013824    -1.968124
	   36 R(12,Z)         =     -0.026027     0.000229    -0.003302    -0.029329
	   37 R(13,X)         =     -0.004961     0.000272     0.021329     0.016368
	   38 R(13,Y)         =     -1.161664     0.002003    -0.004193    -1.165857
	   39 R(13,Z)         =     -2.288482     0.001004    -0.011349    -2.299831
	   40 R(14,X)         =     -0.153358    -0.000491     0.017416    -0.135942
	   41 R(14,Y)         =      1.151919     0.000585    -0.006507     1.145413
	   42 R(14,Z)         =     -2.259259     0.000682     0.008793    -2.250466
	   43 R(15,X)         =     -0.089256    -0.000014     0.007227    -0.082029
	   44 R(15,Y)         =      1.216502    -0.000062     0.001462     1.217964
	   45 R(15,Z)         =     -3.269033     0.000185     0.008651    -3.260382
	   46 R(16,X)         =     -0.415407     0.000280     0.018375    -0.397031
	   47 R(16,Y)         =      1.994949    -0.001209    -0.011631     1.983319
	   48 R(16,Z)         =     -1.761818    -0.000365     0.017475    -1.744343
	   49 R(17,X)         =      0.766820    -0.000263     0.022919     0.789739
	   50 R(17,Y)         =     -1.804915    -0.000345    -0.005757    -1.810672
	   51 R(17,Z)         =     -2.134117     0.000453    -0.023386    -2.157503
	   52 R(18,X)         =     -0.232919    -0.000070     0.011878    -0.221041
	   53 R(18,Y)         =     -1.104927     0.000269     0.004318    -1.100609
	   54 R(18,Z)         =     -3.278355    -0.000131    -0.008702    -3.287057
	   55 *D(1,7,13,17)   =    -60.000007    -0.000000     0.000000   -60.000007
	 ---------------------------------------------------------------------------
	Successfully symmetrized geometry.

  ==> Convergence Check <==

  Measures of convergence in internal coordinates in au.
  Criteria marked as inactive (o), active & met (*), and active & unmet ( ).
  ---------------------------------------------------------------------------------------------
   Step     Total Energy     Delta E     MAX Force     RMS Force      MAX Disp      RMS Disp   
  ---------------------------------------------------------------------------------------------
    Convergence Criteria    1.00e-06 *    3.00e-04 *             o    1.20e-03 *             o
  ---------------------------------------------------------------------------------------------
      2    -381.46161479   -1.74e-07 *    2.43e-04 *    7.94e-05 o    7.30e-02      2.70e-02 o  ~
  ---------------------------------------------------------------------------------------------


  **** Optimization is complete! (in 2 steps) ****

  ==> Optimization Summary <==

  Measures of convergence in internal coordinates in au.
  --------------------------------------------------------------------------------------------------------------- ~
   Step         Total Energy             Delta E       MAX Force       RMS Force        MAX Disp        RMS Disp  ~
  --------------------------------------------------------------------------------------------------------------- ~
      1    -381.461614618919   -381.461614618919      0.00038696      0.00010844      0.07734482      0.02696805  ~
      2    -381.461614792710     -0.000000173791      0.00024314      0.00007936      0.07301176      0.02696799  ~
  --------------------------------------------------------------------------------------------------------------- ~

	Writing optimization data to binary file.
	Final energy is   -381.4616147927103
	Final (previous) structure:
	Cartesian Geometry (in Angstrom)
	    C     0.0310581849  -0.0066351007  -0.1487581393
	    C     0.5492066586   1.0869968605   0.5778121671
	    C     0.5296846812   1.0641431652   1.9663522167
	    C    -0.0003838178  -0.0437944189   2.6388721804
	    C    -0.5060967499  -1.1347259914   1.9241508043
	    C    -0.4876499578  -1.1262811326   0.5339186008
	    C     0.0234724910   0.0098670743  -1.6050499888
	    H     1.0100067166   1.9246707303   0.0609183969
	    H     0.9391571697   1.8982320003   2.5268670106
	    H    -0.0163298380  -0.0567021957   3.7245007459
	    H    -0.9225658131  -1.9866682612   2.4519134006
	    H    -0.9094527666  -1.9543000393  -0.0260269881
	    N    -0.0049613722  -1.1616642825  -2.2884822539
	    N    -0.1533577209   1.1519194865  -2.2592587520
	    H    -0.0892557728   1.2165024066  -3.2690332464
	    H    -0.4154067255   1.9949493589  -1.7618177061
	    H     0.7668200859  -1.8049147279  -2.1341168416
	    H    -0.2329191874  -1.1049270540  -3.2783551001
	Saving final (previous) structure.
	Removing binary optimization data file.
			--------------------------
			 OPTKING Finished Execution 
			--------------------------

    Final optimized geometry and variables:
    Molecular point group: c1
    Full point group: C1

    Geometry (in Angstrom), charge = 1, multiplicity = 1:

    C            0.031058184910    -0.006635100739    -0.148758139338
    C            0.549206658607     1.086996860513     0.577812167088
    C            0.529684681232     1.064143165206     1.966352216654
    C           -0.000383817751    -0.043794418924     2.638872180438
    C           -0.506096749912    -1.134725991403     1.924150804264
    C           -0.487649957762    -1.126281132621     0.533918600795
    C            0.023472490962     0.009867074340    -1.605049988779
    H            1.010006716626     1.924670730253     0.060918396869
    H            0.939157169696     1.898232000332     2.526867010576
    H           -0.016329838013    -0.056702195705     3.724500745929
    H           -0.922565813139    -1.986668261186     2.451913400572
    H           -0.909452766627    -1.954300039267    -0.026026988077
    N           -0.004961372228    -1.161664282509    -2.288482253937
    N           -0.153357720945     1.151919486541    -2.259258752025
    H           -0.089255772756     1.216502406585    -3.269033246387
    H           -0.415406725532     1.994949358869    -1.761817706060
    H            0.766820085874    -1.804914727878    -2.134116841596
    H           -0.232919187362    -1.104927053954    -3.278355100069

	Removing binary optimization data file.
	Cleaning optimization helper files.


Properties will be evaluated at   0.000000,   0.000000,   0.000000 [a0]
OEProp: No title given, name of density matrix used for the following properties is 'SCF density'
  Nuclear Dipole Moment: [e a0]
     X:    -0.2692      Y:    -1.5948      Z:     3.3721

  Electronic Dipole Moment: [e a0]
     X:     0.4543      Y:     1.8534      Z:    -5.5626

  Dipole Moment: [e a0]
     X:     0.1852      Y:     0.2586      Z:    -2.1905     Total:     2.2135

  Dipole Moment: [D]
     X:     0.4707      Y:     0.6573      Z:    -5.5677     Total:     5.6261

  Quadrupole Moment: [D A]
    XX:   -51.5233     YY:   -36.5160     ZZ:   -12.7461
    XY:     0.5357     XZ:    -0.6958     YZ:    -1.0675

  Traceless Quadrupole Moment: [D A]
    XX:   -17.9282     YY:    -2.9209     ZZ:    20.8490
    XY:     0.5357     XZ:    -0.6958     YZ:    -1.0675

  Mulliken Charges: (a.u.)
   Center  Symbol    Alpha    Beta     Spin     Total
       1     C     2.95334  2.95334  0.00000  0.09332
       2     C     3.08453  3.08453  0.00000 -0.16905
       3     C     3.06273  3.06273  0.00000 -0.12545
       4     C     3.05016  3.05016  0.00000 -0.10033
       5     C     3.06263  3.06263  0.00000 -0.12527
       6     C     3.07343  3.07343  0.00000 -0.14687
       7     C     2.74936  2.74936  0.00000  0.50129
       8     H     0.41519  0.41519  0.00000  0.16962
       9     H     0.40514  0.40514  0.00000  0.18973
      10     H     0.40294  0.40294  0.00000  0.19411
      11     H     0.40470  0.40470  0.00000  0.19060
      12     H     0.40612  0.40612  0.00000  0.18775
      13     N     3.85780  3.85780  0.00000 -0.71560
      14     N     3.85174  3.85174  0.00000 -0.70349
      15     H     0.30496  0.30496  0.00000  0.39009
      16     H     0.29925  0.29925  0.00000  0.40150
      17     H     0.30204  0.30204  0.00000  0.39593
      18     H     0.31394  0.31394  0.00000  0.37212

   Total alpha = 32.00000, Total beta = 32.00000, Total charge =  1.00000


    Psi4 stopped on: Saturday, 29 September 2018 08:51PM
    Psi4 wall time for execution: 0:24:28.70

*** Psi4 exiting successfully. Buy a developer a beer!
