
    -----------------------------------------------------------------------
          Psi4: An Open-Source Ab Initio Electronic Structure Package
                               Psi4 1.2.1 release

                         Git: Rev {HEAD} 406f4de 


    R. M. Parrish, L. A. Burns, D. G. A. Smith, A. C. Simmonett,
    A. E. DePrince III, E. G. Hohenstein, U. Bozkaya, A. Yu. Sokolov,
    R. Di Remigio, R. M. Richard, J. F. Gonthier, A. M. James,
    H. R. McAlexander, A. Kumar, M. Saitow, X. Wang, B. P. Pritchard,
    P. Verma, H. F. Schaefer III, K. Patkowski, R. A. King, E. F. Valeev,
    F. A. Evangelista, J. M. Turney, T. D. Crawford, and C. D. Sherrill,
    J. Chem. Theory Comput. 13(7) pp 3185--3197 (2017).
    (doi: 10.1021/acs.jctc.7b00174)


                         Additional Contributions by
    P. Kraus, H. Kruse, M. H. Lechner, M. C. Schieber, and R. A. Shaw

    -----------------------------------------------------------------------


    Psi4 started on: Saturday, 29 September 2018 04:49PM

    Process ID: 4677
    Host:       loro.prib.upf.edu
    PSIDATADIR: /shared/joao/test_parameterize/miniconda3/share/psi4
    Memory:     500.0 MiB
    Threads:    1
    
  ==> Input File <==

--------------------------------------------------------------------------
set_num_threads(1)
set_memory('5348 MB')

set { scf_mem_safety_factor 0.7 }

set { reference rks }
set { basis cc-pVDZ }

molecule MOL {
    0 1
    noreorient
    nocom
    symmetry c1
    O    1.141000   0.017000   0.083000
    C    2.558000   0.086000  -0.005000
    C    3.192000  -0.789000   1.067000
    O    3.393450  -2.105326   0.566927
    H    0.789000   0.590000  -0.620000
    H    2.874000   1.128000   0.115000
    H    2.871000  -0.243000  -1.001000
    H    2.549361  -0.835719   1.951743
    H    4.156990  -0.373250   1.378166
    H    3.797923  -2.618066   1.288304
}

set optking { frozen_dihedral = (" 1 2 3 4 ") }

energy, wfn = energy('B3LYP-D3', return_wfn=True)

import os
os.chdir(os.environ['HTMD_PSI4_WORKDIR'])

oeprop(wfn, 'DIPOLE', 'QUADRUPOLE', 'MULLIKEN_CHARGES')

with open('psi4out.xyz', 'w') as f:
    f.write('10 ' )
    f.write('%.12f\n' % energy)
    f.write(MOL.save_string_xyz())
--------------------------------------------------------------------------
  Threads set to 1 by Python driver.

  Memory set to   4.981 GiB by Python driver.

*** tstart() called on loro.prib.upf.edu
*** at Sat Sep 29 16:49:50 2018

   => Loading Basis Set <=

    Name: CC-PVDZ
    Role: ORBITAL
    Keyword: BASIS
    atoms 1, 4 entry O          line   198 file /shared/joao/test_parameterize/miniconda3/share/psi4/basis/cc-pvdz.gbs 
    atoms 2-3  entry C          line   138 file /shared/joao/test_parameterize/miniconda3/share/psi4/basis/cc-pvdz.gbs 
    atoms 5-10 entry H          line    22 file /shared/joao/test_parameterize/miniconda3/share/psi4/basis/cc-pvdz.gbs 


         ---------------------------------------------------------
                                   SCF
            by Justin Turney, Rob Parrish, Andy Simmonett
                             and Daniel Smith
                              RKS Reference
                        1 Threads,   5100 MiB Core
         ---------------------------------------------------------

  ==> Geometry <==

    Molecular point group: c1
    Full point group: C1

    Geometry (in Angstrom), charge = 0, multiplicity = 1:

       Center              X                  Y                   Z               Mass       
    ------------   -----------------  -----------------  -----------------  -----------------
         O            1.141000000000     0.017000000000     0.083000000000    15.994914619560
         C            2.558000000000     0.086000000000    -0.005000000000    12.000000000000
         C            3.192000000000    -0.789000000000     1.067000000000    12.000000000000
         O            3.393450000000    -2.105326000000     0.566927000000    15.994914619560
         H            0.789000000000     0.590000000000    -0.620000000000     1.007825032070
         H            2.874000000000     1.128000000000     0.115000000000     1.007825032070
         H            2.871000000000    -0.243000000000    -1.001000000000     1.007825032070
         H            2.549361000000    -0.835719000000     1.951743000000     1.007825032070
         H            4.156990000000    -0.373250000000     1.378166000000     1.007825032070
         H            3.797923000000    -2.618066000000     1.288304000000     1.007825032070

  Running in c1 symmetry.

  Rotational constants: A =      0.37810  B =      0.03106  C =      0.02973 [cm^-1]
  Rotational constants: A =  11335.25594  B =    931.00811  C =    891.29401 [MHz]
  Nuclear repulsion =  130.845130225835106

  Charge       = 0
  Multiplicity = 1
  Electrons    = 34
  Nalpha       = 17
  Nbeta        = 17

  ==> Algorithm <==

  SCF Algorithm Type is DF.
  DIIS enabled.
  MOM disabled.
  Fractional occupation disabled.
  Guess Type is SAD.
  Energy threshold   = 1.00e-06
  Density threshold  = 1.00e-06
  Integral threshold = 0.00e+00

  ==> Primary Basis <==

  Basis Set: CC-PVDZ
    Blend: CC-PVDZ
    Number of shells: 42
    Number of basis function: 86
    Number of Cartesian functions: 90
    Spherical Harmonics?: true
    Max angular momentum: 2

  ==> DFT Potential <==

   => Composite Functional: B3LYP-D3ZERO <= 

    B3LYP-d3zero Hyb-GGA Exchange-Correlation Functional

    P. J. Stephens, F. J. Devlin, C. F. Chabalowski, and M. J. Frisch, J. Phys. Chem. 98, 11623 (1994)

    Deriv               =              1
    GGA                 =           TRUE
    Meta                =          FALSE

    Exchange Hybrid     =           TRUE
    MP2 Hybrid          =          FALSE

   => Exchange Functionals <=

    0.0800   Slater exchange
    0.7200         Becke 88

   => Exact (HF) Exchange <=

    0.2000               HF 

   => Correlation Functionals <=

    0.1900   Vosko, Wilk & Nusair (VWN5_RPA)
    0.8100   Lee, Yang & Parr

   => Molecular Quadrature <=

    Radial Scheme       =       TREUTLER
    Pruning Scheme      =           FLAT
    Nuclear Scheme      =       TREUTLER

    BS radius alpha     =              1
    Pruning alpha       =              1
    Radial Points       =             75
    Spherical Points    =            302
    Total Points        =         222567
    Total Blocks        =           1725
    Max Points          =            256
    Max Functions       =             86

   => -D3ZERO: Empirical Dispersion <=

    Grimme's -D3 (zero-damping) Dispersion Correction
    Grimme S.; Antony J.; Ehrlich S.; Krieg H. (2010), J. Chem. Phys., 132: 154104

        S6 =   1.000000E+00
        S8 =   1.703000E+00
       SR6 =   1.261000E+00
       SR8 =   1.000000E+00
    ALPHA6 =   1.400000E+01

   => Loading Basis Set <=

    Name: (CC-PVDZ AUX)
    Role: JKFIT
    Keyword: DF_BASIS_SCF
    atoms 1, 4 entry O          line   221 file /shared/joao/test_parameterize/miniconda3/share/psi4/basis/cc-pvdz-jkfit.gbs 
    atoms 2-3  entry C          line   121 file /shared/joao/test_parameterize/miniconda3/share/psi4/basis/cc-pvdz-jkfit.gbs 
    atoms 5-10 entry H          line    51 file /shared/joao/test_parameterize/miniconda3/share/psi4/basis/cc-pvdz-jkfit.gbs 

  ==> Pre-Iterations <==

   -------------------------------------------------------
    Irrep   Nso     Nmo     Nalpha   Nbeta   Ndocc  Nsocc
   -------------------------------------------------------
     A         86      86       0       0       0       0
   -------------------------------------------------------
    Total      86      86      17      17      17       0
   -------------------------------------------------------

  ==> Integral Setup <==

  DFHelper Memory: AOs need 0.030 [GiB]; user supplied 3.486 [GiB]. Using in-core AOs.

  ==> MemDFJK: Density-Fitted J/K Matrices <==

    J tasked:                   Yes
    K tasked:                   Yes
    wK tasked:                   No
    OpenMP threads:               1
    Memory (MB):               3570
    Algorithm:                 Core
    Schwarz Cutoff:           1E-12
    Mask sparsity (%):       0.0000
    Fitting Condition:        1E-12

   => Auxiliary Basis Set <=

  Basis Set: (CC-PVDZ AUX)
    Blend: CC-PVDZ-JKFIT
    Number of shells: 150
    Number of basis function: 418
    Number of Cartesian functions: 474
    Spherical Harmonics?: true
    Max angular momentum: 3

  Minimum eigenvalue in the overlap matrix is 5.0851844800E-03.
  Using Symmetric Orthogonalization.

  SCF Guess: Superposition of Atomic Densities via on-the-fly atomic UHF.

  ==> Iterations <==

                           Total Energy        Delta E     RMS |[F,P]|

   @DF-RKS iter   0:  -230.80504775854641   -2.30805e+02   3.91463e-02 
   @DF-RKS iter   1:  -230.13898015218149    6.66068e-01   6.20945e-03 
   @DF-RKS iter   2:  -230.03744235069496    1.01538e-01   8.79650e-03 DIIS
   @DF-RKS iter   3:  -230.25397248164452   -2.16530e-01   6.84283e-04 DIIS
   @DF-RKS iter   4:  -230.25515509001320   -1.18261e-03   3.26617e-04 DIIS
   @DF-RKS iter   5:  -230.25552137817829   -3.66288e-04   5.29149e-05 DIIS
   @DF-RKS iter   6:  -230.25553093641415   -9.55824e-06   6.98891e-06 DIIS
   @DF-RKS iter   7:  -230.25553106589356   -1.29479e-07   3.29785e-06 DIIS
   @DF-RKS iter   8:  -230.25553109346421   -2.75706e-08   1.01651e-06 DIIS
   @DF-RKS iter   9:  -230.25553109625332   -2.78911e-09   2.04365e-07 DIIS

  ==> Post-Iterations <==

    Orbital Energies [Eh]
    ---------------------

    Doubly Occupied:                                                      

       1A    -19.126329     2A    -19.126282     3A    -10.226445  
       4A    -10.226249     5A     -1.016623     6A     -1.002137  
       7A     -0.733314     8A     -0.603019     9A     -0.513275  
      10A     -0.512955    11A     -0.424139    12A     -0.422502  
      13A     -0.408674    14A     -0.344141    15A     -0.318577  
      16A     -0.266931    17A     -0.254396  

    Virtual:                                                              

      18A      0.049243    19A      0.061859    20A      0.104345  
      21A      0.123996    22A      0.130820    23A      0.144649  
      24A      0.192424    25A      0.227494    26A      0.229626  
      27A      0.469054    28A      0.489151    29A      0.499100  
      30A      0.503295    31A      0.539741    32A      0.576070  
      33A      0.604646    34A      0.622911    35A      0.640597  
      36A      0.646727    37A      0.683039    38A      0.692828  
      39A      0.863452    40A      0.886099    41A      0.919123  
      42A      0.990381    43A      0.991546    44A      1.051100  
      45A      1.061592    46A      1.175261    47A      1.232930  
      48A      1.237801    49A      1.283067    50A      1.307862  
      51A      1.350930    52A      1.357906    53A      1.493829  
      54A      1.521077    55A      1.565604    56A      1.591292  
      57A      1.616643    58A      1.619146    59A      1.665613  
      60A      1.696035    61A      1.740726    62A      1.786904  
      63A      1.895411    64A      1.895533    65A      1.945237  
      66A      1.977720    67A      2.008352    68A      2.048310  
      69A      2.109678    70A      2.169955    71A      2.210827  
      72A      2.304453    73A      2.411112    74A      2.415668  
      75A      2.487878    76A      2.522537    77A      2.929935  
      78A      2.938630    79A      2.966949    80A      3.063642  
      81A      3.096969    82A      3.122589    83A      3.180312  
      84A      3.217865    85A      3.669959    86A      3.716097  

    Final Occupation by Irrep:
              A 
    DOCC [    17 ]

  Energy converged.

  @DF-RKS Final Energy:  -230.25553109625332

   => Energetics <=

    Nuclear Repulsion Energy =            130.8451302258351063
    One-Electron Energy =                -573.5168108275439636
    Two-Electron Energy =                 236.9593726051981832
    DFT Exchange-Correlation Energy =     -24.5389007397426511
    Empirical Dispersion Energy =          -0.0043223600000000
    VV10 Nonlocal Energy =                  0.0000000000000000
    Total Energy =                       -230.2555310962533497



Properties will be evaluated at   0.000000,   0.000000,   0.000000 [a0]

Properties computed using the SCF density matrix

  Nuclear Dipole Moment: [e a0]
     X:   165.9442      Y:   -43.9865      Z:    27.7480

  Electronic Dipole Moment: [e a0]
     X:  -165.5315      Y:    44.4583      Z:   -27.6078

  Dipole Moment: [e a0]
     X:     0.4127      Y:     0.4719      Z:     0.1402     Total:     0.6423

  Dipole Moment: [D]
     X:     1.0489      Y:     1.1993      Z:     0.3563     Total:     1.6326


*** tstop() called on loro.prib.upf.edu at Sat Sep 29 16:50:07 2018
Module time:
	user time   =      13.88 seconds =       0.23 minutes
	system time =       0.20 seconds =       0.00 minutes
	total time  =         17 seconds =       0.28 minutes
Total time:
	user time   =      13.88 seconds =       0.23 minutes
	system time =       0.20 seconds =       0.00 minutes
	total time  =         17 seconds =       0.28 minutes


Properties will be evaluated at   0.000000,   0.000000,   0.000000 [a0]
OEProp: No title given, name of density matrix used for the following properties is 'SCF density'
  Nuclear Dipole Moment: [e a0]
     X:   165.9442      Y:   -43.9865      Z:    27.7480

  Electronic Dipole Moment: [e a0]
     X:  -165.5315      Y:    44.4583      Z:   -27.6078

  Dipole Moment: [e a0]
     X:     0.4127      Y:     0.4719      Z:     0.1402     Total:     0.6423

  Dipole Moment: [D]
     X:     1.0489      Y:     1.1993      Z:     0.3563     Total:     1.6326

  Quadrupole Moment: [D A]
    XX:   -19.0332     YY:   -24.0558     ZZ:   -21.2527
    XY:    -0.0040     XZ:     5.1943     YZ:    -4.3610

  Traceless Quadrupole Moment: [D A]
    XX:     2.4141     YY:    -2.6086     ZZ:     0.1945
    XY:    -0.0040     XZ:     5.1943     YZ:    -4.3610

  Mulliken Charges: (a.u.)
   Center  Symbol    Alpha    Beta     Spin     Total
       1     O     4.13799  4.13799  0.00000 -0.27598
       2     C     2.93139  2.93139  0.00000  0.13723
       3     C     2.93153  2.93153  0.00000  0.13695
       4     O     4.13821  4.13821  0.00000 -0.27642
       5     H     0.43099  0.43099  0.00000  0.13801
       6     H     0.50420  0.50420  0.00000 -0.00841
       7     H     0.49537  0.49537  0.00000  0.00926
       8     H     0.49528  0.49528  0.00000  0.00943
       9     H     0.50410  0.50410  0.00000 -0.00820
      10     H     0.43094  0.43094  0.00000  0.13812

   Total alpha = 17.00000, Total beta = 17.00000, Total charge = -0.00000


    Psi4 stopped on: Saturday, 29 September 2018 04:50PM
    Psi4 wall time for execution: 0:00:17.04

*** Psi4 exiting successfully. Buy a developer a beer!
