
    -----------------------------------------------------------------------
          Psi4: An Open-Source Ab Initio Electronic Structure Package
                               Psi4 1.2.1 release

                         Git: Rev {HEAD} 406f4de 


    R. M. Parrish, L. A. Burns, D. G. A. Smith, A. C. Simmonett,
    A. E. DePrince III, E. G. Hohenstein, U. Bozkaya, A. Yu. Sokolov,
    R. Di Remigio, R. M. Richard, J. F. Gonthier, A. M. James,
    H. R. McAlexander, A. Kumar, M. Saitow, X. Wang, B. P. Pritchard,
    P. Verma, H. F. Schaefer III, K. Patkowski, R. A. King, E. F. Valeev,
    F. A. Evangelista, J. M. Turney, T. D. Crawford, and C. D. Sherrill,
    J. Chem. Theory Comput. 13(7) pp 3185--3197 (2017).
    (doi: 10.1021/acs.jctc.7b00174)


                         Additional Contributions by
    P. Kraus, H. Kruse, M. H. Lechner, M. C. Schieber, and R. A. Shaw

    -----------------------------------------------------------------------


    Psi4 started on: Saturday, 29 September 2018 08:24PM

    Process ID: 15764
    Host:       green.prib.upf.edu
    PSIDATADIR: /shared/joao/test_parameterize/miniconda3/share/psi4
    Memory:     500.0 MiB
    Threads:    1
    
  ==> Input File <==

--------------------------------------------------------------------------
set_num_threads(4)
set_memory('3000 MB')

set { scf_mem_safety_factor 0.7 }

set { reference rks }
set { basis 6-31G* }

molecule MOL {
    1 1
    noreorient
    nocom
    symmetry c1
    C   -0.000000  -0.000000  -0.177864
    C    0.036678   1.219374   0.524165
    C    0.031765   1.213120   1.915444
    C    0.000000   0.000000   2.610107
    C   -0.031765  -1.213120   1.915444
    C   -0.036678  -1.219375   0.524165
    C   -0.000000   0.000000  -1.644734
    H    0.018170   2.164705  -0.010854
    H    0.042402   2.152895   2.457886
    H    0.000000   0.000000   3.695756
    H   -0.042402  -2.152895   2.457886
    H   -0.018170  -2.164705  -0.010853
    N   -0.712590  -0.905950  -2.308461
    N    0.712590   0.905950  -2.308460
    H    0.673432   1.006470  -3.315997
    H    1.377190   1.485970  -1.813316
    H   -0.332251  -1.334288  -3.142219
    H   -1.609514  -1.246906  -1.982819
}

set optking { frozen_dihedral = (" 1 7 13 17 ") }

set optking { dynamic_level = 1 
 geom_maxiter = 250
 print_trajectory_xyz_file = True }

energy, wfn = optimize('B3LYP-D3', return_wfn=True)

import os
os.chdir(os.environ['HTMD_PSI4_WORKDIR'])

oeprop(wfn, 'DIPOLE', 'QUADRUPOLE', 'MULLIKEN_CHARGES')

with open('psi4out.xyz', 'w') as f:
    f.write('18 ' )
    f.write('%.12f\n' % energy)
    f.write(MOL.save_string_xyz())
--------------------------------------------------------------------------
  Threads set to 4 by Python driver.

  Memory set to   2.794 GiB by Python driver.
gradient() will perform analytic gradient computation.

*** tstart() called on green.prib.upf.edu
*** at Sat Sep 29 20:24:39 2018

   => Loading Basis Set <=

    Name: 6-31G*
    Role: ORBITAL
    Keyword: BASIS
    atoms 1-7         entry C          line   111 file /shared/joao/test_parameterize/miniconda3/share/psi4/basis/6-31gs.gbs 
    atoms 8-12, 15-18 entry H          line    44 file /shared/joao/test_parameterize/miniconda3/share/psi4/basis/6-31gs.gbs 
    atoms 13-14       entry N          line   128 file /shared/joao/test_parameterize/miniconda3/share/psi4/basis/6-31gs.gbs 


         ---------------------------------------------------------
                                   SCF
            by Justin Turney, Rob Parrish, Andy Simmonett
                             and Daniel Smith
                              RKS Reference
                        4 Threads,   2861 MiB Core
         ---------------------------------------------------------

  ==> Geometry <==

    Molecular point group: c1
    Full point group: C1

    Geometry (in Angstrom), charge = 1, multiplicity = 1:

       Center              X                  Y                   Z               Mass       
    ------------   -----------------  -----------------  -----------------  -----------------
         C            0.000000000000     0.000000000000    -0.177864000000    12.000000000000
         C            0.036678000000     1.219374000000     0.524165000000    12.000000000000
         C            0.031765000000     1.213120000000     1.915444000000    12.000000000000
         C            0.000000000000     0.000000000000     2.610107000000    12.000000000000
         C           -0.031765000000    -1.213120000000     1.915444000000    12.000000000000
         C           -0.036678000000    -1.219375000000     0.524165000000    12.000000000000
         C            0.000000000000     0.000000000000    -1.644734000000    12.000000000000
         H            0.018170000000     2.164705000000    -0.010854000000     1.007825032070
         H            0.042402000000     2.152895000000     2.457886000000     1.007825032070
         H            0.000000000000     0.000000000000     3.695756000000     1.007825032070
         H           -0.042402000000    -2.152895000000     2.457886000000     1.007825032070
         H           -0.018170000000    -2.164705000000    -0.010853000000     1.007825032070
         N           -0.712590000000    -0.905950000000    -2.308461000000    14.003074004780
         N            0.712590000000     0.905950000000    -2.308460000000    14.003074004780
         H            0.673432000000     1.006470000000    -3.315997000000     1.007825032070
         H            1.377190000000     1.485970000000    -1.813316000000     1.007825032070
         H           -0.332251000000    -1.334288000000    -3.142219000000     1.007825032070
         H           -1.609514000000    -1.246906000000    -1.982819000000     1.007825032070

  Running in c1 symmetry.

  Rotational constants: A =      0.12149  B =      0.03958  C =      0.03132 [cm^-1]
  Rotational constants: A =   3642.20013  B =   1186.45014  C =    938.88370 [MHz]
  Nuclear repulsion =  416.764693895143296

  Charge       = 1
  Multiplicity = 1
  Electrons    = 64
  Nalpha       = 32
  Nbeta        = 32

  ==> Algorithm <==

  SCF Algorithm Type is DF.
  DIIS enabled.
  MOM disabled.
  Fractional occupation disabled.
  Guess Type is SAD.
  Energy threshold   = 1.00e-08
  Density threshold  = 1.00e-08
  Integral threshold = 0.00e+00

  ==> Primary Basis <==

  Basis Set: 6-31G*
    Blend: 6-31G*
    Number of shells: 72
    Number of basis function: 153
    Number of Cartesian functions: 153
    Spherical Harmonics?: false
    Max angular momentum: 2

  ==> DFT Potential <==

   => Composite Functional: B3LYP-D3ZERO <= 

    B3LYP-d3zero Hyb-GGA Exchange-Correlation Functional

    P. J. Stephens, F. J. Devlin, C. F. Chabalowski, and M. J. Frisch, J. Phys. Chem. 98, 11623 (1994)

    Deriv               =              1
    GGA                 =           TRUE
    Meta                =          FALSE

    Exchange Hybrid     =           TRUE
    MP2 Hybrid          =          FALSE

   => Exchange Functionals <=

    0.0800   Slater exchange
    0.7200         Becke 88

   => Exact (HF) Exchange <=

    0.2000               HF 

   => Correlation Functionals <=

    0.1900   Vosko, Wilk & Nusair (VWN5_RPA)
    0.8100   Lee, Yang & Parr

   => Molecular Quadrature <=

    Radial Scheme       =       TREUTLER
    Pruning Scheme      =           FLAT
    Nuclear Scheme      =       TREUTLER

    BS radius alpha     =              1
    Pruning alpha       =              1
    Radial Points       =             75
    Spherical Points    =            302
    Total Points        =         397042
    Total Blocks        =           3005
    Max Points          =            256
    Max Functions       =            149

   => -D3ZERO: Empirical Dispersion <=

    Grimme's -D3 (zero-damping) Dispersion Correction
    Grimme S.; Antony J.; Ehrlich S.; Krieg H. (2010), J. Chem. Phys., 132: 154104

        S6 =   1.000000E+00
        S8 =   1.703000E+00
       SR6 =   1.261000E+00
       SR8 =   1.000000E+00
    ALPHA6 =   1.400000E+01

   => Loading Basis Set <=

    Name: (6-31G* AUX)
    Role: JKFIT
    Keyword: DF_BASIS_SCF
    atoms 1-7         entry C          line   121 file /shared/joao/test_parameterize/miniconda3/share/psi4/basis/cc-pvdz-jkfit.gbs 
    atoms 8-12, 15-18 entry H          line    51 file /shared/joao/test_parameterize/miniconda3/share/psi4/basis/cc-pvdz-jkfit.gbs 
    atoms 13-14       entry N          line   171 file /shared/joao/test_parameterize/miniconda3/share/psi4/basis/cc-pvdz-jkfit.gbs 

  ==> Pre-Iterations <==

   -------------------------------------------------------
    Irrep   Nso     Nmo     Nalpha   Nbeta   Ndocc  Nsocc
   -------------------------------------------------------
     A        153     153       0       0       0       0
   -------------------------------------------------------
    Total     153     153      32      32      32       0
   -------------------------------------------------------

  ==> Integral Setup <==

  ==> DiskDFJK: Density-Fitted J/K Matrices <==

    J tasked:                  Yes
    K tasked:                  Yes
    wK tasked:                  No
    OpenMP threads:              4
    Integrals threads:           4
    Memory (MB):              2002
    Algorithm:                Core
    Integral Cache:           NONE
    Schwarz Cutoff:          1E-12
    Fitting Condition:       1E-12

   => Auxiliary Basis Set <=

  Basis Set: (6-31G* AUX)
    Blend: CC-PVDZ-JKFIT
    Number of shells: 297
    Number of basis function: 954
    Number of Cartesian functions: 954
    Spherical Harmonics?: false
    Max angular momentum: 3

  Minimum eigenvalue in the overlap matrix is 4.8719066282E-04.
  Using Symmetric Orthogonalization.

  SCF Guess: Superposition of Atomic Densities via on-the-fly atomic UHF.

  ==> Iterations <==

                           Total Energy        Delta E     RMS |[F,P]|

   @DF-RKS iter   0:  -379.61478363462197   -3.79615e+02   6.73083e-02 
   @DF-RKS iter   1:  -381.02958163079040   -1.41480e+00   1.19852e-02 
   @DF-RKS iter   2:  -380.91956896497436    1.10013e-01   1.34424e-02 DIIS
   @DF-RKS iter   3:  -381.44978525970527   -5.30216e-01   2.01451e-03 DIIS
   @DF-RKS iter   4:  -381.45937036816326   -9.58511e-03   8.59049e-04 DIIS
   @DF-RKS iter   5:  -381.46114960903333   -1.77924e-03   2.77015e-04 DIIS
   @DF-RKS iter   6:  -381.46133724093460   -1.87632e-04   9.17195e-05 DIIS
   @DF-RKS iter   7:  -381.46136016970087   -2.29288e-05   2.21036e-05 DIIS
   @DF-RKS iter   8:  -381.46136153459133   -1.36489e-06   6.85382e-06 DIIS
   @DF-RKS iter   9:  -381.46136168022292   -1.45632e-07   2.54623e-06 DIIS
   @DF-RKS iter  10:  -381.46136169932481   -1.91019e-08   6.14558e-07 DIIS
   @DF-RKS iter  11:  -381.46136170036056   -1.03574e-09   1.70086e-07 DIIS
   @DF-RKS iter  12:  -381.46136170042729   -6.67342e-11   9.33018e-08 DIIS
   @DF-RKS iter  13:  -381.46136170045764   -3.03544e-11   1.57397e-08 DIIS
   @DF-RKS iter  14:  -381.46136170045850   -8.52651e-13   3.42085e-09 DIIS

  ==> Post-Iterations <==

    Orbital Energies [Eh]
    ---------------------

    Doubly Occupied:                                                      

       1A    -14.571649     2A    -14.556371     3A    -10.494913  
       4A    -10.370928     5A    -10.356047     6A    -10.355579  
       7A    -10.344650     8A    -10.340525     9A    -10.340093  
      10A     -1.180750    11A     -1.088517    12A     -1.013731  
      13A     -0.925160    14A     -0.901795    15A     -0.843260  
      16A     -0.782022    17A     -0.769191    18A     -0.740770  
      19A     -0.729562    20A     -0.699638    21A     -0.669640  
      22A     -0.626151    23A     -0.609669    24A     -0.582128  
      25A     -0.577837    26A     -0.563227    27A     -0.518732  
      28A     -0.505158    29A     -0.497510    30A     -0.468824  
      31A     -0.413385    32A     -0.405470  

    Virtual:                                                              

      33A     -0.228549    34A     -0.155822    35A     -0.131989  
      36A     -0.102139    37A     -0.069644    38A     -0.053281  
      39A     -0.037624    40A     -0.022793    41A      0.007327  
      42A      0.013259    43A      0.021912    44A      0.054014  
      45A      0.061679    46A      0.088701    47A      0.132394  
      48A      0.142247    49A      0.155006    50A      0.158253  
      51A      0.205402    52A      0.241731    53A      0.297641  
      54A      0.354095    55A      0.356547    56A      0.381851  
      57A      0.390685    58A      0.397624    59A      0.420797  
      60A      0.421419    61A      0.442923    62A      0.448520  
      63A      0.452711    64A      0.471265    65A      0.474506  
      66A      0.480349    67A      0.487129    68A      0.519668  
      69A      0.520343    70A      0.535835    71A      0.550633  
      72A      0.587185    73A      0.611696    74A      0.651768  
      75A      0.669471    76A      0.685579    77A      0.693082  
      78A      0.702390    79A      0.711638    80A      0.718206  
      81A      0.728603    82A      0.749800    83A      0.773341  
      84A      0.783281    85A      0.808214    86A      0.818713  
      87A      0.855004    88A      0.938239    89A      0.950202  
      90A      0.978666    91A      1.002858    92A      1.020801  
      93A      1.067101    94A      1.072669    95A      1.115242  
      96A      1.143280    97A      1.232898    98A      1.274739  
      99A      1.280370   100A      1.307187   101A      1.319475  
     102A      1.342836   103A      1.360847   104A      1.379534  
     105A      1.443846   106A      1.470855   107A      1.531197  
     108A      1.605669   109A      1.628568   110A      1.658035  
     111A      1.664409   112A      1.736165   113A      1.751982  
     114A      1.800999   115A      1.817576   116A      1.828813  
     117A      1.894435   118A      1.918394   119A      1.961468  
     120A      1.977255   121A      1.986980   122A      2.000302  
     123A      2.025786   124A      2.043053   125A      2.126462  
     126A      2.131300   127A      2.154232   128A      2.200821  
     129A      2.232198   130A      2.327760   131A      2.367516  
     132A      2.374494   133A      2.447633   134A      2.451809  
     135A      2.489145   136A      2.512799   137A      2.551463  
     138A      2.587321   139A      2.600225   140A      2.629348  
     141A      2.736669   142A      2.856892   143A      2.981679  
     144A      3.258741   145A      3.633524   146A      3.663976  
     147A      3.913061   148A      3.947026   149A      3.963989  
     150A      4.048543   151A      4.174248   152A      4.255265  
     153A      4.546483  

    Final Occupation by Irrep:
              A 
    DOCC [    32 ]

  Energy converged.

  @DF-RKS Final Energy:  -381.46136170045850

   => Energetics <=

    Nuclear Repulsion Energy =            416.7646938951432958
    One-Electron Energy =               -1328.8179331706821813
    Two-Electron Energy =                 575.0104528527513139
    DFT Exchange-Correlation Energy =     -44.4066171776708529
    Empirical Dispersion Energy =          -0.0119581000000000
    VV10 Nonlocal Energy =                  0.0000000000000000
    Total Energy =                       -381.4613617004584398



Properties will be evaluated at   0.000000,   0.000000,   0.000000 [a0]

Properties computed using the SCF density matrix

  Nuclear Dipole Moment: [e a0]
     X:     0.2057      Y:    -0.1677      Z:     0.0329

  Electronic Dipole Moment: [e a0]
     X:    -0.0972      Y:     0.1412      Z:    -2.1986

  Dipole Moment: [e a0]
     X:     0.1085      Y:    -0.0265      Z:    -2.1658     Total:     2.1687

  Dipole Moment: [D]
     X:     0.2757      Y:    -0.0675      Z:    -5.5048     Total:     5.5122


*** tstop() called on green.prib.upf.edu at Sat Sep 29 20:25:08 2018
Module time:
	user time   =     106.16 seconds =       1.77 minutes
	system time =       0.48 seconds =       0.01 minutes
	total time  =         29 seconds =       0.48 minutes
Total time:
	user time   =     106.16 seconds =       1.77 minutes
	system time =       0.48 seconds =       0.01 minutes
	total time  =         29 seconds =       0.48 minutes

*** tstart() called on green.prib.upf.edu
*** at Sat Sep 29 20:25:08 2018


         ------------------------------------------------------------
                                   SCF GRAD                          
                          Rob Parrish, Justin Turney,                
                       Andy Simmonett, and Alex Sokolov              
         ------------------------------------------------------------

  ==> Geometry <==

    Molecular point group: c1
    Full point group: C1

    Geometry (in Angstrom), charge = 1, multiplicity = 1:

       Center              X                  Y                   Z               Mass       
    ------------   -----------------  -----------------  -----------------  -----------------
         C            0.000000000000     0.000000000000    -0.177864000000    12.000000000000
         C            0.036678000000     1.219374000000     0.524165000000    12.000000000000
         C            0.031765000000     1.213120000000     1.915444000000    12.000000000000
         C            0.000000000000     0.000000000000     2.610107000000    12.000000000000
         C           -0.031765000000    -1.213120000000     1.915444000000    12.000000000000
         C           -0.036678000000    -1.219375000000     0.524165000000    12.000000000000
         C            0.000000000000     0.000000000000    -1.644734000000    12.000000000000
         H            0.018170000000     2.164705000000    -0.010854000000     1.007825032070
         H            0.042402000000     2.152895000000     2.457886000000     1.007825032070
         H            0.000000000000     0.000000000000     3.695756000000     1.007825032070
         H           -0.042402000000    -2.152895000000     2.457886000000     1.007825032070
         H           -0.018170000000    -2.164705000000    -0.010853000000     1.007825032070
         N           -0.712590000000    -0.905950000000    -2.308461000000    14.003074004780
         N            0.712590000000     0.905950000000    -2.308460000000    14.003074004780
         H            0.673432000000     1.006470000000    -3.315997000000     1.007825032070
         H            1.377190000000     1.485970000000    -1.813316000000     1.007825032070
         H           -0.332251000000    -1.334288000000    -3.142219000000     1.007825032070
         H           -1.609514000000    -1.246906000000    -1.982819000000     1.007825032070

  Nuclear repulsion =  416.764693895143296

  ==> Basis Set <==

  Basis Set: 6-31G*
    Blend: 6-31G*
    Number of shells: 72
    Number of basis function: 153
    Number of Cartesian functions: 153
    Spherical Harmonics?: false
    Max angular momentum: 2

  ==> DFJKGrad: Density-Fitted SCF Gradients <==

    Gradient:                    1
    J tasked:                  Yes
    K tasked:                  Yes
    wK tasked:                  No
    OpenMP threads:              4
    Integrals threads:           4
    Memory (MB):              2002
    Schwarz Cutoff:          0E+00
    Fitting Condition:       1E-12

   => Auxiliary Basis Set <=

  Basis Set: (6-31G* AUX)
    Blend: CC-PVDZ-JKFIT
    Number of shells: 297
    Number of basis function: 954
    Number of Cartesian functions: 954
    Spherical Harmonics?: false
    Max angular momentum: 3

  ==> DFT Potential <==

   => Composite Functional: B3LYP-D3ZERO <= 

    B3LYP-d3zero Hyb-GGA Exchange-Correlation Functional

    P. J. Stephens, F. J. Devlin, C. F. Chabalowski, and M. J. Frisch, J. Phys. Chem. 98, 11623 (1994)

    Deriv               =              1
    GGA                 =           TRUE
    Meta                =          FALSE

    Exchange Hybrid     =           TRUE
    MP2 Hybrid          =          FALSE

   => Exchange Functionals <=

    0.0800   Slater exchange
    0.7200         Becke 88

   => Exact (HF) Exchange <=

    0.2000               HF 

   => Correlation Functionals <=

    0.1900   Vosko, Wilk & Nusair (VWN5_RPA)
    0.8100   Lee, Yang & Parr

   => Molecular Quadrature <=

    Radial Scheme       =       TREUTLER
    Pruning Scheme      =           FLAT
    Nuclear Scheme      =       TREUTLER

    BS radius alpha     =              1
    Pruning alpha       =              1
    Radial Points       =             75
    Spherical Points    =            302
    Total Points        =         397042
    Total Blocks        =           3005
    Max Points          =            256
    Max Functions       =            149


  -Total Gradient:
     Atom            X                  Y                   Z
    ------   -----------------  -----------------  -----------------
       1        0.004786897440    -0.006895853532     0.004519397919
       2       -0.000161744662    -0.000779707468    -0.003496436226
       3       -0.000535633148    -0.001695750347     0.001067818507
       4        0.000104269877     0.000462495140    -0.000054176030
       5       -0.000581254965     0.000023610019     0.000465913948
       6        0.000574239144     0.002290328602     0.000029134351
       7       -0.001133473364    -0.009079242197    -0.015900538979
       8        0.000302476170    -0.000073608505     0.000089278733
       9        0.000034947538     0.000030746167    -0.000169747820
      10        0.000122676053    -0.000047230500    -0.000066900520
      11       -0.000057203375     0.000006534890     0.000007449065
      12        0.001152637251    -0.001002016999     0.000773891867
      13       -0.000553475858     0.010417100730     0.012452888957
      14       -0.003562457291     0.005698065769    -0.000848820180
      15        0.002025589202     0.000549637030     0.000683861492
      16       -0.002370726244     0.000796287069    -0.000213854846
      17        0.006294886164    -0.004813823623     0.008060083462
      18       -0.006443778315     0.004105471774    -0.007419469632


*** tstop() called on green.prib.upf.edu at Sat Sep 29 20:25:15 2018
Module time:
	user time   =      29.00 seconds =       0.48 minutes
	system time =       0.18 seconds =       0.00 minutes
	total time  =          7 seconds =       0.12 minutes
Total time:
	user time   =     135.22 seconds =       2.25 minutes
	system time =       0.67 seconds =       0.01 minutes
	total time  =         36 seconds =       0.60 minutes

			-----------------------------------------
			 OPTKING 2.0: for geometry optimizations 
			  - R.A. King,  Bethel University        
			-----------------------------------------
	At level 1: Red. Int., RFO, no backsteps, dynamic trust

	Internal coordinates to be generated automatically.
	Detected frag 1 with atoms:  1 2 3 4 5 6 7 8 9 10 11 12 13 14 15 16 17 18
	---Fragment 1 Bond Connectivity---
	 1 : 2 6 7
	 2 : 1 3 8
	 3 : 2 4 9
	 4 : 3 5 10
	 5 : 4 6 11
	 6 : 1 5 12
	 7 : 1 13 14
	 8 : 2
	 9 : 3
	 10 : 4
	 11 : 5
	 12 : 6
	 13 : 7 17 18
	 14 : 7 15 16
	 15 : 14
	 16 : 14
	 17 : 13
	 18 : 13

	Assuming in current code that numbering for constraints corresponds to unified fragment.
	Frozen dihedral atom list: 
	     1     7    13    17
	---Fragment 1 Geometry and Gradient---
	 C           0.0000000000        0.0000000000       -0.3361142489
	 C           0.0693113751        2.3042829136        0.9905282984
	 C           0.0600271506        2.2924645663        3.6196645829
	 C           0.0000000000        0.0000000000        4.9323874075
	 C          -0.0600271506       -2.2924645663        3.6196645829
	 C          -0.0693113751       -2.3042848033        0.9905282984
	 C           0.0000000000        0.0000000000       -3.1080968214
	 H           0.0343363238        4.0906996085       -0.0205110874
	 H           0.0801281675        4.0683819429        4.6447314059
	 H           0.0000000000        0.0000000000        6.9839666940
	 H          -0.0801281675       -4.0683819429        4.6447314059
	 H          -0.0343363238       -4.0906996085       -0.0205091977
	 N          -1.3465999450       -1.7119973901       -4.3623590784
	 N           1.3465999450        1.7119973901       -4.3623571887
	 H           1.2726020491        1.9019526610       -6.2663261875
	 H           2.6025119329        2.8080763417       -3.4266706324
	 H          -0.6278633974       -2.5214389024       -5.9379333595
	 H          -3.0415406670       -2.3563108535       -3.7469848811
	             0.0047868974       -0.0068958535        0.0045193979
	            -0.0001617447       -0.0007797075       -0.0034964362
	            -0.0005356331       -0.0016957503        0.0010678185
	             0.0001042699        0.0004624951       -0.0000541760
	            -0.0005812550        0.0000236100        0.0004659139
	             0.0005742391        0.0022903286        0.0000291344
	            -0.0011334734       -0.0090792422       -0.0159005390
	             0.0003024762       -0.0000736085        0.0000892787
	             0.0000349475        0.0000307462       -0.0001697478
	             0.0001226761       -0.0000472305       -0.0000669005
	            -0.0000572034        0.0000065349        0.0000074491
	             0.0011526373       -0.0010020170        0.0007738919
	            -0.0005534759        0.0104171007        0.0124528890
	            -0.0035624573        0.0056980658       -0.0008488202
	             0.0020255892        0.0005496370        0.0006838615
	            -0.0023707262        0.0007962871       -0.0002138548
	             0.0062948862       -0.0048138236        0.0080600835
	            -0.0064437783        0.0041054718       -0.0074194696

	Previous optimization step data not found.  Starting new optimization.

	---Fragment 1 Intrafragment Coordinates---
	 - Coordinate -           - BOHR/RAD -       - ANG/DEG -
	 R(1,2)           =         2.659794	       1.407502
	 R(1,6)           =         2.659796	       1.407503
	 R(1,7)           =         2.771983	       1.466870
	 R(2,3)           =         2.629179	       1.391302
	 R(2,8)           =         2.052976	       1.086388
	 R(3,4)           =         2.642393	       1.398294
	 R(3,9)           =         2.050622	       1.085142
	 R(4,5)           =         2.642393	       1.398294
	 R(4,10)          =         2.051579	       1.085649
	 R(5,6)           =         2.629179	       1.391302
	 R(5,11)          =         2.050622	       1.085142
	 R(6,12)          =         2.052973	       1.086386
	 R(7,13)          =         2.513452	       1.330061
	 R(7,14)          =         2.513451	       1.330061
	 R(13,17)         =         1.911599	       1.011575
	 R(13,18)         =         1.914850	       1.013295
	 R(14,15)         =         1.914852	       1.013296
	 R(14,16)         =         1.911600	       1.011575
	 B(1,2,3)         =         2.088380	     119.655376
	 B(1,2,8)         =         2.103396	     120.515689
	 B(1,6,5)         =         2.088379	     119.655315
	 B(1,6,12)        =         2.103396	     120.515729
	 B(1,7,13)        =         2.093264	     119.935172
	 B(1,7,14)        =         2.093263	     119.935135
	 B(2,1,6)         =         2.097220	     120.161857
	 B(2,1,7)         =         2.092983	     119.919082
	 B(2,3,4)         =         2.095279	     120.050636
	 B(2,3,9)         =         2.089719	     119.732108
	 B(3,2,8)         =         2.090149	     119.756722
	 B(3,4,5)         =         2.101793	     120.423859
	 B(3,4,10)        =         2.090696	     119.788070
	 B(4,3,9)         =         2.098135	     120.214297
	 B(4,5,6)         =         2.095280	     120.050677
	 B(4,5,11)        =         2.098135	     120.214297
	 B(5,4,10)        =         2.090696	     119.788070
	 B(5,6,12)        =         2.090149	     119.756743
	 B(6,1,7)         =         2.092982	     119.919061
	 B(6,5,11)        =         2.089719	     119.732067
	 B(7,13,17)       =         2.092411	     119.886300
	 B(7,13,18)       =         2.144860	     122.891417
	 B(7,14,15)       =         2.144860	     122.891405
	 B(7,14,16)       =         2.092412	     119.886393
	 B(13,7,14)       =         2.096659	     120.129694
	 B(15,14,16)      =         2.043399	     117.078146
	 B(17,13,18)      =         2.043400	     117.078223
	 D(1,2,3,4)       =         0.007799	       0.446825
	 D(1,2,3,9)       =        -3.122896	    -178.928735
	 D(1,6,5,4)       =         0.007799	       0.446822
	 D(1,6,5,11)      =        -3.122896	    -178.928737
	*D(1,7,13,17)     =        -2.443461	    -140.000023
	 D(1,7,13,18)     =         0.619714	      35.507021
	 D(1,7,14,15)     =        -3.032165	    -173.730230
	 D(1,7,14,16)     =         0.187844	      10.762681
	 D(2,1,6,5)       =        -0.003906	      -0.223802
	 D(2,1,6,12)      =        -3.091437	    -177.126283
	 D(2,1,7,13)      =        -2.505167	    -143.535494
	 D(2,1,7,14)      =         0.636426	      36.464506
	 D(2,3,4,5)       =        -0.003942	      -0.225875
	 D(2,3,4,10)      =         3.137650	     179.774125
	 D(3,2,1,6)       =        -0.003906	      -0.223806
	 D(3,2,1,7)       =         3.137687	     179.776196
	 D(3,4,5,6)       =        -0.003942	      -0.225874
	 D(3,4,5,11)      =         3.126699	     179.146646
	 D(4,3,2,8)       =         3.095744	     177.373058
	 D(4,5,6,12)      =         3.095744	     177.373055
	 D(5,4,3,9)       =         3.126699	     179.146646
	 D(5,6,1,7)       =         3.137687	     179.776197
	 D(6,1,2,8)       =        -3.091437	    -177.126287
	 D(6,1,7,13)      =         0.636426	      36.464508
	 D(6,1,7,14)      =        -2.505167	    -143.535492
	 D(6,5,4,10)      =         3.137650	     179.774126
	 D(7,1,2,8)       =         0.050156	       2.873714
	 D(7,1,6,12)      =         0.050156	       2.873716
	 D(8,2,3,9)       =        -0.034950	      -2.002503
	 D(9,3,4,10)      =        -0.014894	      -0.853354
	 D(10,4,5,11)     =        -0.014894	      -0.853354
	 D(11,5,6,12)     =        -0.034950	      -2.002504
	 D(13,7,14,15)    =         0.109428	       6.269770
	 D(13,7,14,16)    =        -2.953748	    -169.237319
	 D(14,7,13,17)    =         0.698131	      39.999977
	 D(14,7,13,18)    =        -2.521878	    -144.492979

	Current energy   :      -381.4613617005

	Generating empirical Hessian (Schlegel '84) for each fragment.
	Taking RFO optimization step.
	Going to follow RFO solution 1.
	Using RFO vector 1.
	Norm of target step-size    0.49122
	Projected energy change by RFO approximation:        -0.0044215185

	Back-transformation to cartesian coordinates...
	Could not converge backtransformation.
	Using first guess instead.

	Back-transformation to cartesian coordinates to adjust frozen coordinates...
	Successfully converged to displaced geometry.

	--- Internal Coordinate Step in ANG or DEG, aJ/ANG or AJ/DEG ---
	 ---------------------------------------------------------------------------
	   Coordinate                Previous        Force       Change         New 
	   ----------                --------       ------       ------       ------
	    1 R(1,2)          =      1.407502     0.019752     0.003622     1.411124
	    2 R(1,6)          =      1.407503    -0.000147     0.000532     1.408035
	    3 R(1,7)          =      1.466870    -0.026183    -0.004522     1.462348
	    4 R(2,3)          =      1.391302    -0.008000    -0.000574     1.390727
	    5 R(2,8)          =      1.086388     0.000936     0.000409     1.086797
	    6 R(3,4)          =      1.398294     0.008050     0.001470     1.399764
	    7 R(3,9)          =      1.085142     0.000471     0.000817     1.085959
	    8 R(4,5)          =      1.398294     0.006069     0.001907     1.400201
	    9 R(4,10)         =      1.085649     0.000542     0.000423     1.086072
	   10 R(5,6)          =      1.391302    -0.002350     0.000181     1.391482
	   11 R(5,11)         =      1.085142     0.000008     0.000366     1.085508
	   12 R(6,12)         =      1.086386    -0.004199     0.000987     1.087373
	   13 R(7,13)         =      1.330061     0.105239     0.015696     1.345758
	   14 R(7,14)         =      1.330061    -0.023836    -0.002228     1.327833
	   15 R(13,17)        =      1.011575     0.018449     0.003065     1.014640
	   16 R(13,18)        =      1.013295    -0.015966     0.030515     1.043810
	   17 R(14,15)        =      1.013296     0.005808     0.001286     1.014582
	   18 R(14,16)        =      1.011575     0.009923     0.001874     1.013449
	   19 B(1,2,3)        =    119.655376     0.000013     0.074340   119.729717
	   20 B(1,2,8)        =    120.515689    -0.000010    -0.031867   120.483823
	   21 B(1,6,5)        =    119.655315    -0.000027    -0.138839   119.516476
	   22 B(1,6,12)       =    120.515729    -0.000075    -0.320582   120.195147
	   23 B(1,7,13)       =    119.935172     0.000277     0.656953   120.592125
	   24 B(1,7,14)       =    119.935135     0.000121     0.335272   120.270407
	   25 B(2,1,6)        =    120.161857     0.000012     0.064326   120.226183
	   26 B(2,1,7)        =    119.919082     0.000280     0.811677   120.730758
	   27 B(2,3,4)        =    120.050636    -0.000050    -0.190058   119.860578
	   28 B(2,3,9)        =    119.732108     0.000038     0.156242   119.888350
	   29 B(3,2,8)        =    119.756722    -0.000002    -0.028421   119.728301
	   30 B(3,4,5)        =    120.423859     0.000041     0.134873   120.558732
	   31 B(3,4,10)       =    119.788070    -0.000024    -0.102657   119.685414
	   32 B(4,3,9)        =    120.214297     0.000012     0.031895   120.246191
	   33 B(4,5,6)        =    120.050677     0.000011     0.047507   120.098184
	   34 B(4,5,11)       =    120.214297    -0.000005     0.013216   120.227512
	   35 B(5,4,10)       =    119.788070    -0.000017    -0.033053   119.755017
	   36 B(5,6,12)       =    119.756743     0.000103     0.480449   120.237192
	   37 B(6,1,7)        =    119.919061    -0.000292    -0.876013   119.043048
	   38 B(6,5,11)       =    119.732067    -0.000006    -0.058177   119.673889
	   39 B(7,13,17)      =    119.886300     0.000517     1.942000   121.828300
	   40 B(7,13,18)      =    122.891417    -0.000560    -2.831268   120.060149
	   41 B(7,14,15)      =    122.891405    -0.000177    -0.813161   122.078244
	   42 B(7,14,16)      =    119.886393     0.000087     0.374359   120.260752
	   43 B(13,7,14)      =    120.129694    -0.000398    -1.373224   118.756469
	   44 B(15,14,16)     =    117.078146     0.000084     0.275582   117.353728
	   45 B(17,13,18)     =    117.078223     0.000013    -0.777101   116.301122
	   46 D(1,2,3,4)      =      0.446825    -0.000003    -0.382318     0.064507
	   47 D(1,2,3,9)      =   -178.928735    -0.000001    -0.205114  -179.133850
	   48 D(1,6,5,4)      =      0.446822     0.000004     0.512516     0.959338
	   49 D(1,6,5,11)     =   -178.928737     0.000001     0.121743  -178.806994
	   50 *D(1,7,13,17)   =   -140.000023    -0.000000    -0.000000  -140.000023
	   51 D(1,7,13,18)    =     35.507021    -0.000109   -11.397704    24.109317
	   52 D(1,7,14,15)    =   -173.730230    -0.000013    -1.914980  -175.645210
	   53 D(1,7,14,16)    =     10.762681     0.000005     0.128070    10.890751
	   54 D(2,1,6,5)      =     -0.223802    -0.000008    -1.000450    -1.224252
	   55 D(2,1,6,12)     =   -177.126283    -0.000012    -1.502458  -178.628741
	   56 D(2,1,7,13)     =   -143.535494    -0.000047    -7.307409  -150.842902
	   57 D(2,1,7,14)     =     36.464506     0.000008    -0.134130    36.330377
	   58 D(2,3,4,5)      =     -0.225875    -0.000001    -0.104115    -0.329990
	   59 D(2,3,4,10)     =    179.774125     0.000002     0.229507   180.003632
	   60 D(3,2,1,6)      =     -0.223806     0.000007     0.936374     0.712568
	   61 D(3,2,1,7)      =    179.776196     0.000007     0.973051   180.749246
	   62 D(3,4,5,6)      =     -0.225874     0.000000     0.037791    -0.188084
	   63 D(3,4,5,11)     =    179.146646     0.000003     0.430298   179.576944
	   64 D(4,3,2,8)      =    177.373058    -0.000001    -0.068193   177.304865
	   65 D(4,5,6,12)     =    177.373055     0.000007     0.989662   178.362717
	   66 D(5,4,3,9)      =    179.146646    -0.000002    -0.281184   178.865462
	   67 D(5,6,1,7)      =    179.776197    -0.000008    -1.036511   178.739686
	   68 D(6,1,2,8)      =   -177.126287     0.000005     0.619695  -176.506592
	   69 D(6,1,7,13)     =     36.464508    -0.000047    -7.271160    29.193347
	   70 D(6,1,7,14)     =   -143.535492     0.000008    -0.097881  -143.633374
	   71 D(6,5,4,10)     =    179.774126    -0.000002    -0.296063   179.478063
	   72 D(7,1,2,8)      =      2.873714     0.000005     0.656372     3.530086
	   73 D(7,1,6,12)     =      2.873716    -0.000012    -1.538519     1.335197
	   74 D(8,2,3,9)      =     -2.002503     0.000001     0.109011    -1.893492
	   75 D(9,3,4,10)     =     -0.853354     0.000000     0.052438    -0.800915
	   76 D(10,4,5,11)    =     -0.853354     0.000001     0.096444    -0.756910
	   77 D(11,5,6,12)    =     -2.002504     0.000004     0.598889    -1.403615
	   78 D(13,7,14,15)   =      6.269770     0.000042     5.127859    11.397629
	   79 D(13,7,14,16)   =   -169.237319     0.000060     7.170909  -162.066410
	   80 D(14,7,13,17)   =     39.999977    -0.000055    -7.066226    32.933751
	   81 D(14,7,13,18)   =   -144.492979    -0.000164   -18.463930  -162.956909
	 ---------------------------------------------------------------------------
	Successfully symmetrized geometry.

  ==> Convergence Check <==

  Measures of convergence in internal coordinates in au.
  Criteria marked as inactive (o), active & met (*), and active & unmet ( ).
  --------------------------------------------------------------------------------------------- ~
   Step     Total Energy     Delta E     MAX Force     RMS Force      MAX Disp      RMS Disp    ~
  --------------------------------------------------------------------------------------------- ~
    Convergence Criteria    1.00e-06 *    3.00e-04 *             o    1.20e-03 *             o  ~
  --------------------------------------------------------------------------------------------- ~
      1    -381.46136170   -3.81e+02      1.28e-02      2.62e-03 o    3.22e-01      5.32e-02 o  ~
  ---------------------------------------------------------------------------------------------

	Writing optimization data to binary file.
	Structure for next step:
	Cartesian Geometry (in Angstrom)
	    C    -0.0354873414   0.0413704534  -0.1797433713
	    C     0.0417470322   1.2504197879   0.5437938194
	    C     0.0655790703   1.2218786033   1.9340239477
	    C     0.0142538365  -0.0044716337   2.6069065305
	    C    -0.0679884714  -1.2057283818   1.8922175740
	    C    -0.1034070189  -1.1891376141   0.5012851143
	    C    -0.0454929696   0.0449455114  -1.6420530602
	    H     0.0373342507   2.2050307096   0.0243454281
	    H     0.1107653733   2.1514265182   2.4936722209
	    H     0.0329784238  -0.0234421644   3.6926512271
	    H    -0.1005847357  -2.1540974170   2.4193425189
	    H    -0.1404473273  -2.1216985460  -0.0566917796
	    N    -0.6738640848  -0.9296008349  -2.3250413877
	    N     0.6831768100   0.9283219674  -2.3142328316
	    H     0.6473297633   0.9981055167  -3.3257771123
	    H     1.3727282323   1.4936827630  -1.8326059786
	    H    -0.2797134931  -1.3308192968  -3.1695316341
	    H    -1.4500503504  -1.4649409423  -1.8772852255
			--------------------------
			 OPTKING Finished Execution 
			--------------------------

    Structure for next step:
    Molecular point group: c1
    Full point group: C1

    Geometry (in Angstrom), charge = 1, multiplicity = 1:

    C           -0.035487341429     0.041370453426    -0.179743371274
    C            0.041747032195     1.250419787941     0.543793819411
    C            0.065579070340     1.221878603262     1.934023947671
    C            0.014253836468    -0.004471633675     2.606906530516
    C           -0.067988471371    -1.205728381793     1.892217573958
    C           -0.103407018863    -1.189137614128     0.501285114338
    C           -0.045492969570     0.044945511386    -1.642053060191
    H            0.037334250700     2.205030709597     0.024345428085
    H            0.110765373342     2.151426518189     2.493672220865
    H            0.032978423807    -0.023442164404     3.692651227088
    H           -0.100584735722    -2.154097416988     2.419342518859
    H           -0.140447327281    -2.121698546005    -0.056691779592
    N           -0.673864084781    -0.929600834869    -2.325041387739
    N            0.683176809993     0.928321967428    -2.314232831554
    H            0.647329763263     0.998105516704    -3.325777112255
    H            1.372728232340     1.493682763028    -1.832605978625
    H           -0.279713493059    -1.330819296849    -3.169531634104
    H           -1.450050350371    -1.464940942251    -1.877285225459

gradient() will perform analytic gradient computation.

*** tstart() called on green.prib.upf.edu
*** at Sat Sep 29 20:25:16 2018

   => Loading Basis Set <=

    Name: 6-31G*
    Role: ORBITAL
    Keyword: BASIS
    atoms 1-7         entry C          line   111 file /shared/joao/test_parameterize/miniconda3/share/psi4/basis/6-31gs.gbs 
    atoms 8-12, 15-18 entry H          line    44 file /shared/joao/test_parameterize/miniconda3/share/psi4/basis/6-31gs.gbs 
    atoms 13-14       entry N          line   128 file /shared/joao/test_parameterize/miniconda3/share/psi4/basis/6-31gs.gbs 


         ---------------------------------------------------------
                                   SCF
            by Justin Turney, Rob Parrish, Andy Simmonett
                             and Daniel Smith
                              RKS Reference
                        4 Threads,   2861 MiB Core
         ---------------------------------------------------------

  ==> Geometry <==

    Molecular point group: c1
    Full point group: C1

    Geometry (in Angstrom), charge = 1, multiplicity = 1:

       Center              X                  Y                   Z               Mass       
    ------------   -----------------  -----------------  -----------------  -----------------
         C           -0.035487341429     0.041370453426    -0.179743371274    12.000000000000
         C            0.041747032195     1.250419787941     0.543793819411    12.000000000000
         C            0.065579070340     1.221878603262     1.934023947671    12.000000000000
         C            0.014253836468    -0.004471633675     2.606906530516    12.000000000000
         C           -0.067988471371    -1.205728381793     1.892217573958    12.000000000000
         C           -0.103407018863    -1.189137614128     0.501285114338    12.000000000000
         C           -0.045492969570     0.044945511386    -1.642053060191    12.000000000000
         H            0.037334250700     2.205030709597     0.024345428085     1.007825032070
         H            0.110765373342     2.151426518189     2.493672220865     1.007825032070
         H            0.032978423807    -0.023442164404     3.692651227088     1.007825032070
         H           -0.100584735722    -2.154097416988     2.419342518859     1.007825032070
         H           -0.140447327281    -2.121698546005    -0.056691779592     1.007825032070
         N           -0.673864084781    -0.929600834869    -2.325041387739    14.003074004780
         N            0.683176809993     0.928321967428    -2.314232831554    14.003074004780
         H            0.647329763263     0.998105516704    -3.325777112255     1.007825032070
         H            1.372728232340     1.493682763028    -1.832605978625     1.007825032070
         H           -0.279713493059    -1.330819296849    -3.169531634104     1.007825032070
         H           -1.450050350371    -1.464940942251    -1.877285225459     1.007825032070

  Running in c1 symmetry.

  Rotational constants: A =      0.12126  B =      0.03973  C =      0.03112 [cm^-1]
  Rotational constants: A =   3635.14959  B =   1190.98215  C =    932.82670 [MHz]
  Nuclear repulsion =  416.378561141382022

  Charge       = 1
  Multiplicity = 1
  Electrons    = 64
  Nalpha       = 32
  Nbeta        = 32

  ==> Algorithm <==

  SCF Algorithm Type is DF.
  DIIS enabled.
  MOM disabled.
  Fractional occupation disabled.
  Guess Type is READ.
  Energy threshold   = 1.00e-08
  Density threshold  = 1.00e-08
  Integral threshold = 0.00e+00

  ==> Primary Basis <==

  Basis Set: 6-31G*
    Blend: 6-31G*
    Number of shells: 72
    Number of basis function: 153
    Number of Cartesian functions: 153
    Spherical Harmonics?: false
    Max angular momentum: 2

  ==> DFT Potential <==

   => Composite Functional: B3LYP-D3ZERO <= 

    B3LYP-d3zero Hyb-GGA Exchange-Correlation Functional

    P. J. Stephens, F. J. Devlin, C. F. Chabalowski, and M. J. Frisch, J. Phys. Chem. 98, 11623 (1994)

    Deriv               =              1
    GGA                 =           TRUE
    Meta                =          FALSE

    Exchange Hybrid     =           TRUE
    MP2 Hybrid          =          FALSE

   => Exchange Functionals <=

    0.0800   Slater exchange
    0.7200         Becke 88

   => Exact (HF) Exchange <=

    0.2000               HF 

   => Correlation Functionals <=

    0.1900   Vosko, Wilk & Nusair (VWN5_RPA)
    0.8100   Lee, Yang & Parr

   => Molecular Quadrature <=

    Radial Scheme       =       TREUTLER
    Pruning Scheme      =           FLAT
    Nuclear Scheme      =       TREUTLER

    BS radius alpha     =              1
    Pruning alpha       =              1
    Radial Points       =             75
    Spherical Points    =            302
    Total Points        =         396987
    Total Blocks        =           2995
    Max Points          =            256
    Max Functions       =            149

   => -D3ZERO: Empirical Dispersion <=

    Grimme's -D3 (zero-damping) Dispersion Correction
    Grimme S.; Antony J.; Ehrlich S.; Krieg H. (2010), J. Chem. Phys., 132: 154104

        S6 =   1.000000E+00
        S8 =   1.703000E+00
       SR6 =   1.261000E+00
       SR8 =   1.000000E+00
    ALPHA6 =   1.400000E+01

   => Loading Basis Set <=

    Name: (6-31G* AUX)
    Role: JKFIT
    Keyword: DF_BASIS_SCF
    atoms 1-7         entry C          line   121 file /shared/joao/test_parameterize/miniconda3/share/psi4/basis/cc-pvdz-jkfit.gbs 
    atoms 8-12, 15-18 entry H          line    51 file /shared/joao/test_parameterize/miniconda3/share/psi4/basis/cc-pvdz-jkfit.gbs 
    atoms 13-14       entry N          line   171 file /shared/joao/test_parameterize/miniconda3/share/psi4/basis/cc-pvdz-jkfit.gbs 

  Reading orbitals from file 180, no projection.

  ==> Pre-Iterations <==

   -------------------------------------------------------
    Irrep   Nso     Nmo     Nalpha   Nbeta   Ndocc  Nsocc
   -------------------------------------------------------
     A        153     153       0       0       0       0
   -------------------------------------------------------
    Total     153     153      32      32      32       0
   -------------------------------------------------------

  ==> Integral Setup <==

  ==> DiskDFJK: Density-Fitted J/K Matrices <==

    J tasked:                  Yes
    K tasked:                  Yes
    wK tasked:                  No
    OpenMP threads:              4
    Integrals threads:           4
    Memory (MB):              2002
    Algorithm:                Core
    Integral Cache:           NONE
    Schwarz Cutoff:          1E-12
    Fitting Condition:       1E-12

   => Auxiliary Basis Set <=

  Basis Set: (6-31G* AUX)
    Blend: CC-PVDZ-JKFIT
    Number of shells: 297
    Number of basis function: 954
    Number of Cartesian functions: 954
    Spherical Harmonics?: false
    Max angular momentum: 3

  Minimum eigenvalue in the overlap matrix is 4.9011856981E-04.
  Using Symmetric Orthogonalization.

  SCF Guess: Orbitals guess was supplied from a previous computation.

  ==> Iterations <==

                           Total Energy        Delta E     RMS |[F,P]|

   @DF-RKS iter   0:  -381.42150858216144   -3.81422e+02   2.23347e-03 
   @DF-RKS iter   1:  -381.46396906898110   -4.24605e-02   3.65459e-04 
   @DF-RKS iter   2:  -381.46356248813282    4.06581e-04   5.72930e-04 DIIS
   @DF-RKS iter   3:  -381.46449234420095   -9.29856e-04   8.49469e-05 DIIS
   @DF-RKS iter   4:  -381.46450689728783   -1.45531e-05   4.60962e-05 DIIS
   @DF-RKS iter   5:  -381.46451262607576   -5.72879e-06   1.26386e-05 DIIS
   @DF-RKS iter   6:  -381.46451305180346   -4.25728e-07   5.09065e-06 DIIS
   @DF-RKS iter   7:  -381.46451312648213   -7.46787e-08   1.34151e-06 DIIS
   @DF-RKS iter   8:  -381.46451313165278   -5.17065e-09   3.76637e-07 DIIS
   @DF-RKS iter   9:  -381.46451313208985   -4.37069e-10   1.19931e-07 DIIS
   @DF-RKS iter  10:  -381.46451313212782   -3.79714e-11   5.31036e-08 DIIS
   @DF-RKS iter  11:  -381.46451313213555   -7.73070e-12   1.38369e-08 DIIS
   @DF-RKS iter  12:  -381.46451313213686   -1.30740e-12   3.31053e-09 DIIS

  ==> Post-Iterations <==

    Orbital Energies [Eh]
    ---------------------

    Doubly Occupied:                                                      

       1A    -14.569326     2A    -14.561408     3A    -10.495393  
       4A    -10.373451     5A    -10.358272     6A    -10.358031  
       7A    -10.346630     8A    -10.342429     9A    -10.342343  
      10A     -1.178215    11A     -1.083778    12A     -1.014978  
      13A     -0.926377    14A     -0.903657    15A     -0.841981  
      16A     -0.780461    17A     -0.770941    18A     -0.739061  
      19A     -0.729954    20A     -0.686903    21A     -0.670580  
      22A     -0.627730    23A     -0.611654    24A     -0.583862  
      25A     -0.580056    26A     -0.567844    27A     -0.519153  
      28A     -0.507236    29A     -0.499450    30A     -0.469092  
      31A     -0.414307    32A     -0.407382  

    Virtual:                                                              

      33A     -0.227775    34A     -0.158281    35A     -0.129302  
      36A     -0.104449    37A     -0.072422    38A     -0.056746  
      39A     -0.038514    40A     -0.031832    41A      0.006188  
      42A      0.014915    43A      0.020448    44A      0.053239  
      45A      0.060069    46A      0.086591    47A      0.127038  
      48A      0.136597    49A      0.155709    50A      0.158346  
      51A      0.205748    52A      0.238152    53A      0.297629  
      54A      0.353390    55A      0.357901    56A      0.378903  
      57A      0.388974    58A      0.397598    59A      0.419136  
      60A      0.420639    61A      0.440185    62A      0.447566  
      63A      0.452861    64A      0.469691    65A      0.473369  
      66A      0.476104    67A      0.487179    68A      0.513578  
      69A      0.526227    70A      0.532255    71A      0.554115  
      72A      0.587526    73A      0.607776    74A      0.655963  
      75A      0.668452    76A      0.682323    77A      0.695344  
      78A      0.698985    79A      0.711721    80A      0.714589  
      81A      0.726193    82A      0.762587    83A      0.772929  
      84A      0.783697    85A      0.807912    86A      0.816159  
      87A      0.853293    88A      0.939758    89A      0.950164  
      90A      0.983776    91A      0.996599    92A      1.026139  
      93A      1.069379    94A      1.086463    95A      1.103343  
      96A      1.143796    97A      1.212924    98A      1.273857  
      99A      1.276059   100A      1.302140   101A      1.316335  
     102A      1.340585   103A      1.354851   104A      1.360984  
     105A      1.449778   106A      1.475630   107A      1.537417  
     108A      1.595614   109A      1.622870   110A      1.651706  
     111A      1.657769   112A      1.736624   113A      1.748831  
     114A      1.799938   115A      1.816341   116A      1.829554  
     117A      1.895824   118A      1.908011   119A      1.947834  
     120A      1.972768   121A      1.992331   122A      2.000335  
     123A      2.025523   124A      2.048803   125A      2.120554  
     126A      2.129756   127A      2.150799   128A      2.196362  
     129A      2.230761   130A      2.305659   131A      2.344587  
     132A      2.366023   133A      2.444163   134A      2.450672  
     135A      2.485112   136A      2.506940   137A      2.543279  
     138A      2.585339   139A      2.598081   140A      2.627684  
     141A      2.733120   142A      2.852197   143A      2.981790  
     144A      3.254402   145A      3.632174   146A      3.651452  
     147A      3.909002   148A      3.944163   149A      3.961755  
     150A      4.046472   151A      4.170841   152A      4.254923  
     153A      4.544594  

    Final Occupation by Irrep:
              A 
    DOCC [    32 ]

  Energy converged.

  @DF-RKS Final Energy:  -381.46451313213686

   => Energetics <=

    Nuclear Repulsion Energy =            416.3785611413820220
    One-Electron Energy =               -1328.0276599558012549
    Two-Electron Energy =                 574.5830826261579887
    DFT Exchange-Correlation Energy =     -44.3865092138756907
    Empirical Dispersion Energy =          -0.0119877300000000
    VV10 Nonlocal Energy =                  0.0000000000000000
    Total Energy =                       -381.4645131321368581



Properties will be evaluated at   0.000000,   0.000000,   0.000000 [a0]

Properties computed using the SCF density matrix

  Nuclear Dipole Moment: [e a0]
     X:    -0.9245      Y:     1.3227      Z:    -0.3179

  Electronic Dipole Moment: [e a0]
     X:     1.1222      Y:    -1.4249      Z:    -1.7649

  Dipole Moment: [e a0]
     X:     0.1977      Y:    -0.1022      Z:    -2.0828     Total:     2.0947

  Dipole Moment: [D]
     X:     0.5025      Y:    -0.2597      Z:    -5.2940     Total:     5.3241


*** tstop() called on green.prib.upf.edu at Sat Sep 29 20:25:40 2018
Module time:
	user time   =      90.81 seconds =       1.51 minutes
	system time =       0.39 seconds =       0.01 minutes
	total time  =         24 seconds =       0.40 minutes
Total time:
	user time   =     226.94 seconds =       3.78 minutes
	system time =       1.14 seconds =       0.02 minutes
	total time  =         61 seconds =       1.02 minutes

*** tstart() called on green.prib.upf.edu
*** at Sat Sep 29 20:25:40 2018


         ------------------------------------------------------------
                                   SCF GRAD                          
                          Rob Parrish, Justin Turney,                
                       Andy Simmonett, and Alex Sokolov              
         ------------------------------------------------------------

  ==> Geometry <==

    Molecular point group: c1
    Full point group: C1

    Geometry (in Angstrom), charge = 1, multiplicity = 1:

       Center              X                  Y                   Z               Mass       
    ------------   -----------------  -----------------  -----------------  -----------------
         C           -0.035487341429     0.041370453426    -0.179743371274    12.000000000000
         C            0.041747032195     1.250419787941     0.543793819411    12.000000000000
         C            0.065579070340     1.221878603262     1.934023947671    12.000000000000
         C            0.014253836468    -0.004471633675     2.606906530516    12.000000000000
         C           -0.067988471371    -1.205728381793     1.892217573958    12.000000000000
         C           -0.103407018863    -1.189137614128     0.501285114338    12.000000000000
         C           -0.045492969570     0.044945511386    -1.642053060191    12.000000000000
         H            0.037334250700     2.205030709597     0.024345428085     1.007825032070
         H            0.110765373342     2.151426518189     2.493672220865     1.007825032070
         H            0.032978423807    -0.023442164404     3.692651227088     1.007825032070
         H           -0.100584735722    -2.154097416988     2.419342518859     1.007825032070
         H           -0.140447327281    -2.121698546005    -0.056691779592     1.007825032070
         N           -0.673864084781    -0.929600834869    -2.325041387739    14.003074004780
         N            0.683176809993     0.928321967428    -2.314232831554    14.003074004780
         H            0.647329763263     0.998105516704    -3.325777112255     1.007825032070
         H            1.372728232340     1.493682763028    -1.832605978625     1.007825032070
         H           -0.279713493059    -1.330819296849    -3.169531634104     1.007825032070
         H           -1.450050350371    -1.464940942251    -1.877285225459     1.007825032070

  Nuclear repulsion =  416.378561141382022

  ==> Basis Set <==

  Basis Set: 6-31G*
    Blend: 6-31G*
    Number of shells: 72
    Number of basis function: 153
    Number of Cartesian functions: 153
    Spherical Harmonics?: false
    Max angular momentum: 2

  ==> DFJKGrad: Density-Fitted SCF Gradients <==

    Gradient:                    1
    J tasked:                  Yes
    K tasked:                  Yes
    wK tasked:                  No
    OpenMP threads:              4
    Integrals threads:           4
    Memory (MB):              2002
    Schwarz Cutoff:          0E+00
    Fitting Condition:       1E-12

   => Auxiliary Basis Set <=

  Basis Set: (6-31G* AUX)
    Blend: CC-PVDZ-JKFIT
    Number of shells: 297
    Number of basis function: 954
    Number of Cartesian functions: 954
    Spherical Harmonics?: false
    Max angular momentum: 3

  ==> DFT Potential <==

   => Composite Functional: B3LYP-D3ZERO <= 

    B3LYP-d3zero Hyb-GGA Exchange-Correlation Functional

    P. J. Stephens, F. J. Devlin, C. F. Chabalowski, and M. J. Frisch, J. Phys. Chem. 98, 11623 (1994)

    Deriv               =              1
    GGA                 =           TRUE
    Meta                =          FALSE

    Exchange Hybrid     =           TRUE
    MP2 Hybrid          =          FALSE

   => Exchange Functionals <=

    0.0800   Slater exchange
    0.7200         Becke 88

   => Exact (HF) Exchange <=

    0.2000               HF 

   => Correlation Functionals <=

    0.1900   Vosko, Wilk & Nusair (VWN5_RPA)
    0.8100   Lee, Yang & Parr

   => Molecular Quadrature <=

    Radial Scheme       =       TREUTLER
    Pruning Scheme      =           FLAT
    Nuclear Scheme      =       TREUTLER

    BS radius alpha     =              1
    Pruning alpha       =              1
    Radial Points       =             75
    Spherical Points    =            302
    Total Points        =         396987
    Total Blocks        =           2995
    Max Points          =            256
    Max Functions       =            149


  -Total Gradient:
     Atom            X                  Y                   Z
    ------   -----------------  -----------------  -----------------
       1        0.008176170345    -0.005978779462     0.001082257027
       2       -0.000224029017     0.000694868923     0.000192661810
       3       -0.000246917919     0.000215321381     0.000590407142
       4        0.000159891757     0.000749932300     0.000519819166
       5        0.000201096636    -0.000157773424    -0.000093749045
       6        0.000081062796     0.000215739838    -0.001475380801
       7       -0.007283678067     0.014990634144     0.000299784595
       8        0.000068159903     0.000318312803     0.000299245011
       9        0.000001825402     0.000546539483     0.000296105486
      10       -0.000094905484     0.000152611516     0.000244993015
      11       -0.000066020713    -0.000331269165    -0.000095859341
      12       -0.000708810131    -0.000784353805    -0.001566992890
      13        0.017116800780     0.009023395054    -0.013905888913
      14       -0.001941550233    -0.001398385905     0.001563451166
      15        0.000491079462    -0.000182426746    -0.000701730629
      16        0.001390014799    -0.000215145153     0.000449305235
      17        0.004456311886    -0.005821846892     0.003361706937
      18       -0.021578616207    -0.012039908545     0.008923508904


*** tstop() called on green.prib.upf.edu at Sat Sep 29 20:25:47 2018
Module time:
	user time   =      27.47 seconds =       0.46 minutes
	system time =       0.18 seconds =       0.00 minutes
	total time  =          7 seconds =       0.12 minutes
Total time:
	user time   =     254.47 seconds =       4.24 minutes
	system time =       1.32 seconds =       0.02 minutes
	total time  =         68 seconds =       1.13 minutes

			-----------------------------------------
			 OPTKING 2.0: for geometry optimizations 
			  - R.A. King,  Bethel University        
			-----------------------------------------
	At level 1: Red. Int., RFO, no backsteps, dynamic trust

	Previous internal coordinate definitions found.
	---Fragment 1 Geometry and Gradient---
	 C          -0.0670613565        0.0781788270       -0.3396657459
	 C           0.0788904577        2.3629509503        1.0276213914
	 C           0.1239264830        2.3090159278        3.6547755955
	 C           0.0269358473       -0.0084501630        4.9263393967
	 C          -0.1284795911       -2.2784964322        3.5757729986
	 C          -0.1954109459       -2.2471444250        0.9472915806
	 C          -0.0859692535        0.0849347074       -3.1030305794
	 H           0.0705515092        4.1669041557        0.0460061917
	 H           0.2093162206        4.0656069144        4.7123575626
	 H           0.0623201893       -0.0442992707        6.9780995235
	 H          -0.1900776037       -4.0706541817        4.5718947823
	 H          -0.2654069847       -4.0094291885       -0.1071319374
	 N          -1.2734185710       -1.7566909908       -4.3936914705
	 N           1.2910170712        1.7542742816       -4.3732662594
	 H           1.2232759702        1.8861460783       -6.2848079212
	 H           2.5940804140        2.8226513515       -3.4631234091
	 H          -0.5285818976       -2.5148840034       -5.9895467580
	 H          -2.7401980411       -2.7683371817       -3.5475549494
	             0.0081761703       -0.0059787795        0.0010822570
	            -0.0002240290        0.0006948689        0.0001926618
	            -0.0002469179        0.0002153214        0.0005904071
	             0.0001598918        0.0007499323        0.0005198192
	             0.0002010966       -0.0001577734       -0.0000937490
	             0.0000810628        0.0002157398       -0.0014753808
	            -0.0072836781        0.0149906341        0.0002997846
	             0.0000681599        0.0003183128        0.0002992450
	             0.0000018254        0.0005465395        0.0002961055
	            -0.0000949055        0.0001526115        0.0002449930
	            -0.0000660207       -0.0003312692       -0.0000958593
	            -0.0007088101       -0.0007843538       -0.0015669929
	             0.0171168008        0.0090233951       -0.0139058889
	            -0.0019415502       -0.0013983859        0.0015634512
	             0.0004910795       -0.0001824267       -0.0007017306
	             0.0013900148       -0.0002151452        0.0004493052
	             0.0044563119       -0.0058218469        0.0033617069
	            -0.0215786162       -0.0120399085        0.0089235089

	---Fragment 1 Intrafragment Coordinates---
	 - Coordinate -           - BOHR/RAD -       - ANG/DEG -
	 R(1,2)           =         2.666638	       1.411124
	 R(1,6)           =         2.660801	       1.408035
	 R(1,7)           =         2.763438	       1.462348
	 R(2,3)           =         2.628094	       1.390727
	 R(2,8)           =         2.053749	       1.086797
	 R(3,4)           =         2.645171	       1.399764
	 R(3,9)           =         2.052165	       1.085959
	 R(4,5)           =         2.645996	       1.400201
	 R(4,10)          =         2.052378	       1.086072
	 R(5,6)           =         2.629520	       1.391482
	 R(5,11)          =         2.051312	       1.085508
	 R(6,12)          =         2.054837	       1.087373
	 R(7,13)          =         2.543114	       1.345758
	 R(7,14)          =         2.509240	       1.327833
	 R(13,17)         =         1.917392	       1.014640
	 R(13,18)         =         1.972515	       1.043810
	 R(14,15)         =         1.917282	       1.014582
	 R(14,16)         =         1.915141	       1.013449
	 B(1,2,3)         =         2.089678	     119.729717
	 B(1,2,8)         =         2.102839	     120.483823
	 B(1,6,5)         =         2.085956	     119.516476
	 B(1,6,12)        =         2.097801	     120.195147
	 B(1,7,13)        =         2.104730	     120.592125
	 B(1,7,14)        =         2.099115	     120.270407
	 B(2,1,6)         =         2.098343	     120.226183
	 B(2,1,7)         =         2.107149	     120.730758
	 B(2,3,4)         =         2.091962	     119.860578
	 B(2,3,9)         =         2.092446	     119.888350
	 B(3,2,8)         =         2.089653	     119.728301
	 B(3,4,5)         =         2.104147	     120.558732
	 B(3,4,10)        =         2.088905	     119.685414
	 B(4,3,9)         =         2.098692	     120.246191
	 B(4,5,6)         =         2.096109	     120.098184
	 B(4,5,11)        =         2.098366	     120.227512
	 B(5,4,10)        =         2.090119	     119.755017
	 B(5,6,12)        =         2.098535	     120.237192
	 B(6,1,7)         =         2.077693	     119.043048
	 B(6,5,11)        =         2.088703	     119.673889
	 B(7,13,17)       =         2.126305	     121.828300
	 B(7,13,18)       =         2.095445	     120.060149
	 B(7,14,15)       =         2.130667	     122.078244
	 B(7,14,16)       =         2.098946	     120.260752
	 B(13,7,14)       =         2.072691	     118.756469
	 B(15,14,16)      =         2.048209	     117.353728
	 B(17,13,18)      =         2.029838	     116.301122
	 D(1,2,3,4)       =         0.001126	       0.064507
	 D(1,2,3,9)       =        -3.126475	    -179.133850
	 D(1,6,5,4)       =         0.016744	       0.959338
	 D(1,6,5,11)      =        -3.120771	    -178.806994
	*D(1,7,13,17)     =        -2.443461	    -140.000023
	 D(1,7,13,18)     =         0.420787	      24.109317
	 D(1,7,14,15)     =        -3.065587	    -175.645210
	 D(1,7,14,16)     =         0.190079	      10.890751
	 D(2,1,6,5)       =        -0.021367	      -1.224252
	 D(2,1,6,12)      =        -3.117660	    -178.628741
	 D(2,1,7,13)      =        -2.632705	    -150.842902
	 D(2,1,7,14)      =         0.634085	      36.330377
	 D(2,3,4,5)       =        -0.005759	      -0.329990
	 D(2,3,4,10)      =        -3.141529	    -179.996368
	 D(3,2,1,6)       =         0.012437	       0.712568
	 D(3,2,1,7)       =        -3.128516	    -179.250754
	 D(3,4,5,6)       =        -0.003283	      -0.188084
	 D(3,4,5,11)      =         3.134209	     179.576944
	 D(4,3,2,8)       =         3.094554	     177.304865
	 D(4,5,6,12)      =         3.113017	     178.362717
	 D(5,4,3,9)       =         3.121791	     178.865462
	 D(5,6,1,7)       =         3.119596	     178.739686
	 D(6,1,2,8)       =        -3.080621	    -176.506592
	 D(6,1,7,13)      =         0.509520	      29.193347
	 D(6,1,7,14)      =        -2.506875	    -143.633374
	 D(6,5,4,10)      =         3.132483	     179.478063
	 D(7,1,2,8)       =         0.061612	       3.530086
	 D(7,1,6,12)      =         0.023304	       1.335197
	 D(8,2,3,9)       =        -0.033048	      -1.893492
	 D(9,3,4,10)      =        -0.013979	      -0.800915
	 D(10,4,5,11)     =        -0.013211	      -0.756910
	 D(11,5,6,12)     =        -0.024498	      -1.403615
	 D(13,7,14,15)    =         0.198926	      11.397629
	 D(13,7,14,16)    =        -2.828592	    -162.066410
	 D(14,7,13,17)    =         0.574802	      32.933751
	 D(14,7,13,18)    =        -2.844135	    -162.956909

	Current energy   :      -381.4645131321

	Energy change for the previous step:
		Projected    :        -0.0044215185
		Actual       :        -0.0031514317

	Performing BFGS update.
	Previous computed or guess Hessian on step 1.
	Steps to be used in Hessian update: 1
	Taking RFO optimization step.
	Going to follow RFO solution 1.
	Using RFO vector 1.
	Norm of target step-size    0.24653
	Projected energy change by RFO approximation:        -0.0013925720

	Back-transformation to cartesian coordinates...
	Could not converge backtransformation.
	Using first guess instead.

	Back-transformation to cartesian coordinates to adjust frozen coordinates...
	Successfully converged to displaced geometry.

	--- Internal Coordinate Step in ANG or DEG, aJ/ANG or AJ/DEG ---
	 ---------------------------------------------------------------------------
	   Coordinate                Previous        Force       Change         New 
	   ----------                --------       ------       ------       ------
	    1 R(1,2)          =      1.411124    -0.013939    -0.001287     1.409838
	    2 R(1,6)          =      1.408035     0.011635     0.001497     1.409532
	    3 R(1,7)          =      1.462348    -0.000531    -0.000531     1.461818
	    4 R(2,3)          =      1.390727    -0.006027    -0.000818     1.389910
	    5 R(2,8)          =      1.086797    -0.001121    -0.000083     1.086714
	    6 R(3,4)          =      1.399764    -0.003131    -0.000205     1.399559
	    7 R(3,9)          =      1.085959    -0.005117    -0.000719     1.085240
	    8 R(4,5)          =      1.400201    -0.013888    -0.001510     1.398691
	    9 R(4,10)         =      1.086072    -0.001990    -0.000265     1.085807
	   10 R(5,6)          =      1.391482    -0.005922    -0.000666     1.390816
	   11 R(5,11)         =      1.085508    -0.002020    -0.000273     1.085234
	   12 R(6,12)         =      1.087373    -0.012360    -0.001932     1.085441
	   13 R(7,13)         =      1.345758    -0.059514    -0.003021     1.342737
	   14 R(7,14)         =      1.327833     0.015593     0.001268     1.329101
	   15 R(13,17)        =      1.014640    -0.010170    -0.000897     1.013743
	   16 R(13,18)        =      1.043810    -0.214611    -0.021378     1.022433
	   17 R(14,15)        =      1.014582    -0.005510     0.000166     1.014748
	   18 R(14,16)        =      1.013449    -0.008567    -0.000792     1.012656
	   19 B(1,2,3)        =    119.729717     0.000022     0.062008   119.791725
	   20 B(1,2,8)        =    120.483823    -0.000044    -0.156323   120.327500
	   21 B(1,6,5)        =    119.516476     0.000046     0.130150   119.646626
	   22 B(1,6,12)       =    120.195147     0.000050     0.156591   120.351738
	   23 B(1,7,13)       =    120.592125     0.000317     0.973987   121.566112
	   24 B(1,7,14)       =    120.270407    -0.000103    -0.111339   120.159068
	   25 B(2,1,6)        =    120.226183    -0.000077    -0.176480   120.049703
	   26 B(2,1,7)        =    120.730758    -0.000228    -0.483442   120.247316
	   27 B(2,3,4)        =    119.860578     0.000035     0.057180   119.917758
	   28 B(2,3,9)        =    119.888350    -0.000015    -0.015112   119.873238
	   29 B(3,2,8)        =    119.728301     0.000022     0.099696   119.827997
	   30 B(3,4,5)        =    120.558732    -0.000006    -0.016378   120.542354
	   31 B(3,4,10)       =    119.685414     0.000015     0.051972   119.737386
	   32 B(4,3,9)        =    120.246191    -0.000020    -0.042533   120.203658
	   33 B(4,5,6)        =    120.098184    -0.000019    -0.051928   120.046256
	   34 B(4,5,11)       =    120.227512    -0.000010    -0.050422   120.177090
	   35 B(5,4,10)       =    119.755017    -0.000009    -0.034771   119.720246
	   36 B(5,6,12)       =    120.237192    -0.000096    -0.311100   119.926092
	   37 B(6,1,7)        =    119.043048     0.000305     0.651629   119.694677
	   38 B(6,5,11)       =    119.673889     0.000029     0.100111   119.774000
	   39 B(7,13,17)      =    121.828300     0.000073    -0.145860   121.682440
	   40 B(7,13,18)      =    120.060149    -0.000176    -2.159178   117.900971
	   41 B(7,14,15)      =    122.078244    -0.000021    -0.113625   121.964619
	   42 B(7,14,16)      =    120.260752     0.000026     0.213617   120.474369
	   43 B(13,7,14)      =    118.756469    -0.000197    -0.565218   118.191251
	   44 B(15,14,16)     =    117.353728     0.000004     0.075735   117.429462
	   45 B(17,13,18)     =    116.301122     0.000036    -0.686898   115.614224
	   46 D(1,2,3,4)      =      0.064507    -0.000001    -0.115509    -0.051002
	   47 D(1,2,3,9)      =   -179.133850    -0.000001    -0.077791  -179.211640
	   48 D(1,6,5,4)      =      0.959338    -0.000002    -0.216848     0.742490
	   49 D(1,6,5,11)     =   -178.806994     0.000001     0.141015  -178.665979
	   50 *D(1,7,13,17)   =   -140.000023     0.000000    -0.000000  -140.000023
	   51 D(1,7,13,18)    =     24.109317    -0.000065    -9.735192    14.374125
	   52 D(1,7,14,15)    =   -175.645210     0.000029     3.022171  -172.623039
	   53 D(1,7,14,16)    =     10.890751     0.000006     0.763660    11.654411
	   54 D(2,1,6,5)      =     -1.224252     0.000003     0.307209    -0.917043
	   55 D(2,1,6,12)     =   -178.628741     0.000008     0.874360  -177.754381
	   56 D(2,1,7,13)     =   -150.842902     0.000018     1.763369  -149.079533
	   57 D(2,1,7,14)     =     36.330377    -0.000016    -2.025274    34.305102
	   58 D(2,3,4,5)      =     -0.329990     0.000001     0.205548    -0.124443
	   59 D(2,3,4,10)     =   -179.996368    -0.000001    -0.084059  -180.080427
	   60 D(3,2,1,6)      =      0.712568    -0.000002    -0.141582     0.570986
	   61 D(3,2,1,7)      =   -179.250754     0.000005     0.873093  -178.377661
	   62 D(3,4,5,6)      =     -0.188084    -0.000000    -0.037350    -0.225433
	   63 D(3,4,5,11)     =    179.576944    -0.000003    -0.396314   179.180630
	   64 D(4,3,2,8)      =    177.304865    -0.000000     0.011015   177.315880
	   65 D(4,5,6,12)     =    178.362717    -0.000007    -0.769264   177.593453
	   66 D(5,4,3,9)      =    178.865462     0.000001     0.167930   179.033392
	   67 D(5,6,1,7)      =    178.739686    -0.000004    -0.702249   178.037437
	   68 D(6,1,2,8)      =   -176.506592    -0.000003    -0.275965  -176.782558
	   69 D(6,1,7,13)     =     29.193347     0.000025     2.774737    31.968084
	   70 D(6,1,7,14)     =   -143.633374    -0.000009    -1.013907  -144.647280
	   71 D(6,5,4,10)     =    179.478063     0.000002     0.252496   179.730559
	   72 D(7,1,2,8)      =      3.530086     0.000004     0.738709     4.268795
	   73 D(7,1,6,12)     =      1.335197     0.000002    -0.135098     1.200099
	   74 D(8,2,3,9)      =     -1.893492     0.000000     0.048733    -1.844759
	   75 D(9,3,4,10)     =     -0.800915    -0.000001    -0.121677    -0.922592
	   76 D(10,4,5,11)    =     -0.756910    -0.000001    -0.106468    -0.863378
	   77 D(11,5,6,12)    =     -1.403615    -0.000004    -0.411400    -1.815016
	   78 D(13,7,14,15)   =     11.397629    -0.000013    -0.748823    10.648806
	   79 D(13,7,14,16)   =   -162.066410    -0.000036    -3.007335  -165.073744
	   80 D(14,7,13,17)   =     32.933751     0.000035     3.745954    36.679705
	   81 D(14,7,13,18)   =   -162.956909    -0.000030    -5.989238  -168.946147
	 ---------------------------------------------------------------------------
	Successfully symmetrized geometry.

  ==> Convergence Check <==

  Measures of convergence in internal coordinates in au.
  Criteria marked as inactive (o), active & met (*), and active & unmet ( ).
  ---------------------------------------------------------------------------------------------
   Step     Total Energy     Delta E     MAX Force     RMS Force      MAX Disp      RMS Disp   
  ---------------------------------------------------------------------------------------------
    Convergence Criteria    1.00e-06 *    3.00e-04 *             o    1.20e-03 *             o
  ---------------------------------------------------------------------------------------------
      2    -381.46451313   -3.15e-03      2.60e-02      3.23e-03 o    1.70e-01      2.72e-02 o  ~
  ---------------------------------------------------------------------------------------------

	Writing optimization data to binary file.
	Structure for next step:
	Cartesian Geometry (in Angstrom)
	    C    -0.0426533293   0.0247818604  -0.1814703608
	    C     0.0450659723   1.2368989602   0.5331759062
	    C     0.0719729595   1.2189248902   1.9227088775
	    C     0.0108831772  -0.0007796336   2.6063430166
	    C    -0.0799153782  -1.2061919767   1.9027285960
	    C    -0.1149472571  -1.2000212747   0.5123672634
	    C    -0.0359834550   0.0296688202  -1.6432646036
	    H     0.0484606980   2.1864606197   0.0047171987
	    H     0.1265483368   2.1518758090   2.4744059223
	    H     0.0334338546  -0.0114910494   3.6918625079
	    H    -0.1135531117  -2.1493679678   2.4384723397
	    H    -0.1459637032  -2.1381696800  -0.0326996601
	    N    -0.6923032778  -0.9027877394  -2.3522866481
	    N     0.6838259180   0.9301435612  -2.3047239050
	    H     0.6242012613   1.0302463949  -3.3127604175
	    H     1.3642461699   1.5013184317  -1.8186576072
	    H    -0.2974642581  -1.3076554090  -3.1936300024
	    H    -1.3769975770  -1.4826096169  -1.8620124237
			--------------------------
			 OPTKING Finished Execution 
			--------------------------

    Structure for next step:
    Molecular point group: c1
    Full point group: C1

    Geometry (in Angstrom), charge = 1, multiplicity = 1:

    C           -0.042653329319     0.024781860414    -0.181470360751
    C            0.045065972257     1.236898960220     0.533175906214
    C            0.071972959476     1.218924890164     1.922708877502
    C            0.010883177152    -0.000779633619     2.606343016614
    C           -0.079915378153    -1.206191976712     1.902728595979
    C           -0.114947257109    -1.200021274701     0.512367263389
    C           -0.035983454969     0.029668820160    -1.643264603558
    H            0.048460698045     2.186460619693     0.004717198701
    H            0.126548336772     2.151875808978     2.474405922335
    H            0.033433854644    -0.011491049372     3.691862507904
    H           -0.113553111736    -2.149367967795     2.438472339705
    H           -0.145963703223    -2.138169679995    -0.032699660083
    N           -0.692303277847    -0.902787739363    -2.352286648073
    N            0.683825917992     0.930143561228    -2.304723904999
    H            0.624201261261     1.030246394871    -3.312760417523
    H            1.364246169922     1.501318431703    -1.818657607186
    H           -0.297464258119    -1.307655408981    -3.193630002432
    H           -1.376997577047    -1.482609616894    -1.862012423738

gradient() will perform analytic gradient computation.

*** tstart() called on green.prib.upf.edu
*** at Sat Sep 29 20:25:47 2018

   => Loading Basis Set <=

    Name: 6-31G*
    Role: ORBITAL
    Keyword: BASIS
    atoms 1-7         entry C          line   111 file /shared/joao/test_parameterize/miniconda3/share/psi4/basis/6-31gs.gbs 
    atoms 8-12, 15-18 entry H          line    44 file /shared/joao/test_parameterize/miniconda3/share/psi4/basis/6-31gs.gbs 
    atoms 13-14       entry N          line   128 file /shared/joao/test_parameterize/miniconda3/share/psi4/basis/6-31gs.gbs 


         ---------------------------------------------------------
                                   SCF
            by Justin Turney, Rob Parrish, Andy Simmonett
                             and Daniel Smith
                              RKS Reference
                        4 Threads,   2861 MiB Core
         ---------------------------------------------------------

  ==> Geometry <==

    Molecular point group: c1
    Full point group: C1

    Geometry (in Angstrom), charge = 1, multiplicity = 1:

[...]
	            -0.0057217196        0.0029884981        0.0017591369
	             0.0000001742       -0.0000002530       -0.0000078982
	            -0.0000007417        0.0000006117       -0.0000045004
	             0.0000003058       -0.0000004398       -0.0000027555
	            -0.0000036798        0.0000000454       -0.0000056802
	            -0.0000128405       -0.0000027759       -0.0000087529
	            -0.0021002820        0.0064799460       -0.0062117478
	            -0.0000311163        0.0000446301       -0.0000008743
	             0.0000005971        0.0000018973        0.0000025951
	            -0.0000080805       -0.0000018131        0.0000045741
	             0.0033366787       -0.0060484484        0.0045079722
	             0.0000036387       -0.0000102589       -0.0000156198

	---Fragment 1 Intrafragment Coordinates---
	 - Coordinate -           - BOHR/RAD -       - ANG/DEG -
	 R(1,2)           =         2.663420	       1.409421
	 R(1,6)           =         2.662179	       1.408764
	 R(1,7)           =         2.762234	       1.461711
	 R(2,3)           =         2.626931	       1.390112
	 R(2,8)           =         2.053207	       1.086510
	 R(3,4)           =         2.643987	       1.399138
	 R(3,9)           =         2.050552	       1.085105
	 R(4,5)           =         2.642887	       1.398555
	 R(4,10)          =         2.051685	       1.085705
	 R(5,6)           =         2.628123	       1.390743
	 R(5,11)          =         2.050552	       1.085105
	 R(6,12)          =         2.052544	       1.086160
	 R(7,13)          =         2.533674	       1.340763
	 R(7,14)          =         2.511917	       1.329249
	 R(13,17)         =         1.917113	       1.014493
	 R(13,18)         =         1.913835	       1.012758
	 R(14,15)         =         1.915792	       1.013793
	 R(14,16)         =         1.912049	       1.011813
	 B(1,2,3)         =         2.090571	     119.780907
	 B(1,2,8)         =         2.100637	     120.357653
	 B(1,6,5)         =         2.089282	     119.707024
	 B(1,6,12)        =         2.104275	     120.566067
	 B(1,7,13)        =         2.116547	     121.269202
	 B(1,7,14)        =         2.097157	     120.158263
	 B(2,1,6)         =         2.094730	     120.019205
	 B(2,1,7)         =         2.097614	     120.184447
	 B(2,3,4)         =         2.093661	     119.957912
	 B(2,3,9)         =         2.091578	     119.838576
	 B(3,2,8)         =         2.090743	     119.790760
	 B(3,4,5)         =         2.103140	     120.501028
	 B(3,4,10)        =         2.090114	     119.754729
	 B(4,3,9)         =         2.097865	     120.198819
	 B(4,5,6)         =         2.094919	     120.030012
	 B(4,5,11)        =         2.097939	     120.203074
	 B(5,4,10)        =         2.089929	     119.744130
	 B(5,6,12)        =         2.088298	     119.650688
	 B(6,1,7)         =         2.090779	     119.792841
	 B(6,5,11)        =         2.090291	     119.764831
	 B(7,13,17)       =         2.111824	     120.998627
	 B(7,13,18)       =         2.054095	     117.690992
	 B(7,14,15)       =         2.129579	     122.015914
	 B(7,14,16)       =         2.102696	     120.475623
	 B(13,7,14)       =         2.068768	     118.531696
	 B(15,14,16)      =         2.050783	     117.501196
	 B(17,13,18)      =         2.000515	     114.621039
	 D(1,2,3,4)       =         0.003131	       0.179366
	 D(1,2,3,9)       =        -3.124736	    -179.034180
	 D(1,6,5,4)       =         0.011391	       0.652658
	 D(1,6,5,11)      =        -3.121057	    -178.823385
	*D(1,7,13,17)     =        -2.443461	    -140.000023
	 D(1,7,13,18)     =         0.170928	       9.793478
	 D(1,7,14,15)     =        -3.000741	    -171.929807
	 D(1,7,14,16)     =         0.158399	       9.075593
	 D(2,1,6,5)       =        -0.012446	      -0.713095
	 D(2,1,6,12)      =        -3.098438	    -177.527445
	 D(2,1,7,13)      =        -2.554984	    -146.389793
	 D(2,1,7,14)      =         0.627774	      35.968798
	 D(2,3,4,5)       =        -0.004217	      -0.241616
	 D(2,3,4,10)      =         3.139515	     179.880963
	 D(3,2,1,6)       =         0.005168	       0.296114
	 D(3,2,1,7)       =        -3.124510	    -179.021256
	 D(3,4,5,6)       =        -0.003121	      -0.178809
	 D(3,4,5,11)      =         3.129287	     179.294915
	 D(4,3,2,8)       =         3.091563	     177.133505
	 D(4,5,6,12)      =         3.097897	     177.496415
	 D(5,4,3,9)       =         3.123599	     178.969068
	 D(5,6,1,7)       =         3.117280	     178.606962
	 D(6,1,2,8)       =        -3.082958	    -176.640506
	 D(6,1,7,13)      =         0.598496	      34.291287
	 D(6,1,7,14)      =        -2.501932	    -143.350122
	 D(6,5,4,10)      =         3.136333	     179.698625
	 D(7,1,2,8)       =         0.070548	       4.042123
	 D(7,1,6,12)      =         0.031287	       1.792612
	 D(8,2,3,9)       =        -0.036304	      -2.080042
	 D(9,3,4,10)      =        -0.015854	      -0.908353
	 D(10,4,5,11)     =        -0.014445	      -0.827650
	 D(11,5,6,12)     =        -0.034551	      -1.979627
	 D(13,7,14,15)    =         0.180900	      10.364815
	 D(13,7,14,16)    =        -2.943145	    -168.629785
	 D(14,7,13,17)    =         0.657618	      37.678754
	 D(14,7,13,18)    =        -3.011177	    -172.527745

	Current energy   :      -381.4665148477

	Energy change for the previous step:
		Projected    :         0.0000002153
		Actual       :        -0.0000001721

	Performing BFGS update.
	Previous computed or guess Hessian on step 1.
	Steps to be used in Hessian update: 6 5
	Taking RFO optimization step.
	Going to follow RFO solution 1.
	Rejecting RFO root 1 because normalization gives large value.
	Using RFO vector 2.
	Norm of target step-size    0.00145
	Projected energy change by RFO approximation:        -0.0000000768

	Back-transformation to cartesian coordinates...
	Successfully converged to displaced geometry.

	Back-transformation to cartesian coordinates to adjust frozen coordinates...
	Successfully converged to displaced geometry.

	--- Internal Coordinate Step in ANG or DEG, aJ/ANG or AJ/DEG ---
	 ---------------------------------------------------------------------------
	   Coordinate                Previous        Force       Change         New 
	   ----------                --------       ------       ------       ------
	    1 R(1,2)          =      1.409421     0.000007    -0.000001     1.409420
	    2 R(1,6)          =      1.408764     0.000227     0.000025     1.408790
	    3 R(1,7)          =      1.461711     0.000437     0.000057     1.461768
	    4 R(2,3)          =      1.390112     0.000085     0.000009     1.390121
	    5 R(2,8)          =      1.086510    -0.000024    -0.000003     1.086508
	    6 R(3,4)          =      1.399138    -0.000009     0.000000     1.399138
	    7 R(3,9)          =      1.085105     0.000007     0.000001     1.085107
	    8 R(4,5)          =      1.398555    -0.000074    -0.000009     1.398547
	    9 R(4,10)         =      1.085705     0.000009     0.000002     1.085706
	   10 R(5,6)          =      1.390743     0.000065     0.000008     1.390751
	   11 R(5,11)         =      1.085105     0.000016     0.000003     1.085108
	   12 R(6,12)         =      1.086160    -0.000051    -0.000007     1.086152
	   13 R(7,13)         =      1.340763     0.000239     0.000031     1.340794
	   14 R(7,14)         =      1.329249    -0.000014     0.000002     1.329251
	   15 R(13,17)        =      1.014493    -0.000035    -0.000007     1.014485
	   16 R(13,18)        =      1.012758     0.000023     0.000013     1.012771
	   17 R(14,15)        =      1.013793     0.000032     0.000004     1.013797
	   18 R(14,16)        =      1.011813     0.000032     0.000006     1.011819
	   19 B(1,2,3)        =    119.780907     0.000000     0.000751   119.781658
	   20 B(1,2,8)        =    120.357653     0.000000     0.001736   120.359389
	   21 B(1,6,5)        =    119.707024     0.000000     0.000054   119.707077
	   22 B(1,6,12)       =    120.566067     0.000000     0.000021   120.566088
	   23 B(1,7,13)       =    121.269202     0.000003     0.006905   121.276107
	   24 B(1,7,14)       =    120.158263     0.000001    -0.003124   120.155139
	   25 B(2,1,6)        =    120.019205    -0.000001    -0.001082   120.018122
	   26 B(2,1,7)        =    120.184447    -0.000000    -0.000946   120.183501
	   27 B(2,3,4)        =    119.957912     0.000000    -0.000395   119.957517
	   28 B(2,3,9)        =    119.838576     0.000000     0.001097   119.839673
	   29 B(3,2,8)        =    119.790760    -0.000001    -0.002127   119.788633
	   30 B(3,4,5)        =    120.501028     0.000000     0.000737   120.501765
	   31 B(3,4,10)       =    119.754729    -0.000000    -0.000349   119.754380
	   32 B(4,3,9)        =    120.198819    -0.000000    -0.000691   120.198127
	   33 B(4,5,6)        =    120.030012    -0.000000    -0.000099   120.029913
	   34 B(4,5,11)       =    120.203074    -0.000000    -0.000803   120.202271
	   35 B(5,4,10)       =    119.744130    -0.000000    -0.000377   119.743754
	   36 B(5,6,12)       =    119.650688    -0.000000    -0.001089   119.649599
	   37 B(6,1,7)        =    119.792841     0.000001     0.001905   119.794746
	   38 B(6,5,11)       =    119.764831     0.000000     0.000851   119.765682
	   39 B(7,13,17)      =    120.998627     0.000000     0.000389   120.999016
	   40 B(7,13,18)      =    117.690992    -0.000001    -0.007088   117.683904
	   41 B(7,14,15)      =    122.015914    -0.000001    -0.002638   122.013276
	   42 B(7,14,16)      =    120.475623     0.000001     0.004230   120.479853
	   43 B(13,7,14)      =    118.531696    -0.000004    -0.003753   118.527943
	   44 B(15,14,16)     =    117.501196    -0.000000    -0.001828   117.499367
	   45 B(17,13,18)     =    114.621039     0.000001     0.006077   114.627116
	   46 D(1,2,3,4)      =      0.179366    -0.000000    -0.004451     0.174915
	   47 D(1,2,3,9)      =   -179.034180    -0.000000    -0.005328  -179.039508
	   48 D(1,6,5,4)      =      0.652658     0.000000     0.004062     0.656720
	   49 D(1,6,5,11)     =   -178.823385     0.000000     0.010457  -178.812927
	   50 *D(1,7,13,17)   =   -140.000023    -0.000000     0.000000  -140.000023
	   51 D(1,7,13,18)    =      9.793478     0.000000     0.000418     9.793896
	   52 D(1,7,14,15)    =   -171.929807    -0.000000     0.000078  -171.929729
	   53 D(1,7,14,16)    =      9.075593    -0.000000     0.016290     9.091883
	   54 D(2,1,6,5)      =     -0.713095    -0.000000    -0.004809    -0.717904
	   55 D(2,1,6,12)     =   -177.527445     0.000000     0.016337  -177.511109
	   56 D(2,1,7,13)     =   -146.389793    -0.000000     0.026930  -146.362863
	   57 D(2,1,7,14)     =     35.968798     0.000000     0.026214    35.995012
	   58 D(2,3,4,5)      =     -0.241616     0.000000     0.003722    -0.237893
	   59 D(2,3,4,10)     =    179.880963    -0.000000    -0.002720   179.878242
	   60 D(3,2,1,6)      =      0.296114     0.000000     0.005009     0.301122
	   61 D(3,2,1,7)      =   -179.021256     0.000000     0.016914  -179.004342
	   62 D(3,4,5,6)      =     -0.178809    -0.000000    -0.003529    -0.182339
	   63 D(3,4,5,11)     =    179.294915    -0.000000    -0.009944   179.284971
	   64 D(4,3,2,8)      =    177.133505     0.000000     0.003370   177.136875
	   65 D(4,5,6,12)     =    177.496415    -0.000000    -0.016853   177.479562
	   66 D(5,4,3,9)      =    178.969068     0.000000     0.004617   178.973685
	   67 D(5,6,1,7)      =    178.606962    -0.000000    -0.016687   178.590275
	   68 D(6,1,2,8)      =   -176.640506    -0.000000    -0.002738  -176.643245
	   69 D(6,1,7,13)     =     34.291287    -0.000000     0.038830    34.330117
	   70 D(6,1,7,14)     =   -143.350122     0.000000     0.038113  -143.312008
	   71 D(6,5,4,10)     =    179.698625     0.000000     0.002913   179.701538
	   72 D(7,1,2,8)      =      4.042123     0.000000     0.009168     4.051291
	   73 D(7,1,6,12)     =      1.792612     0.000000     0.004458     1.797070
	   74 D(8,2,3,9)      =     -2.080042     0.000000     0.002493    -2.077548
	   75 D(9,3,4,10)     =     -0.908353    -0.000000    -0.001826    -0.910180
	   76 D(10,4,5,11)    =     -0.827650    -0.000000    -0.003502    -0.831152
	   77 D(11,5,6,12)    =     -1.979627    -0.000000    -0.010457    -1.990084
	   78 D(13,7,14,15)   =     10.364815     0.000000    -0.000869    10.363946
	   79 D(13,7,14,16)   =   -168.629785     0.000000     0.015343  -168.614442
	   80 D(14,7,13,17)   =     37.678754    -0.000001     0.000714    37.679469
	   81 D(14,7,13,18)   =   -172.527745    -0.000000     0.001133  -172.526612
	 ---------------------------------------------------------------------------
	Successfully symmetrized geometry.

  ==> Convergence Check <==

  Measures of convergence in internal coordinates in au.
  Criteria marked as inactive (o), active & met (*), and active & unmet ( ).
  ---------------------------------------------------------------------------------------------
   Step     Total Energy     Delta E     MAX Force     RMS Force      MAX Disp      RMS Disp   
  ---------------------------------------------------------------------------------------------
    Convergence Criteria    1.00e-06 *    3.00e-04 *             o    1.20e-03 *             o
  ---------------------------------------------------------------------------------------------
      7    -381.46651485   -1.72e-07 *    5.30e-05 *    1.35e-05 o    6.78e-04 *    1.61e-04 o  ~
  ---------------------------------------------------------------------------------------------


  **** Optimization is complete! (in 7 steps) ****

  ==> Optimization Summary <==

  Measures of convergence in internal coordinates in au.
  --------------------------------------------------------------------------------------------------------------- ~
   Step         Total Energy             Delta E       MAX Force       RMS Force        MAX Disp        RMS Disp  ~
  --------------------------------------------------------------------------------------------------------------- ~
      1    -381.461361700458   -381.461361700458      0.01277373      0.00262189      0.32225637      0.05318485  ~
      2    -381.464513132137     -0.003151431678      0.02604912      0.00322916      0.16991116      0.02721314  ~
      3    -381.466271966201     -0.001758834064      0.00863251      0.00107504      0.08635806      0.01597794  ~
      4    -381.466492817373     -0.000220851172      0.00127704      0.00027599      0.01543677      0.00390138  ~
      5    -381.466512130333     -0.000019312960      0.00039243      0.00009027      0.00640005      0.00188283  ~
      6    -381.466514675603     -0.000002545270      0.00017346      0.00003232      0.00194465      0.00048070  ~
      7    -381.466514847668     -0.000000172065      0.00005303      0.00001348      0.00067771      0.00016108  ~
  --------------------------------------------------------------------------------------------------------------- ~

	Writing optimization data to binary file.
	Final energy is   -381.4665148476679
	Final (previous) structure:
	Cartesian Geometry (in Angstrom)
	    C    -0.0327357180   0.0218584775  -0.1842976411
	    C     0.0454326146   1.2344957312   0.5297534425
	    C     0.0621867937   1.2174727061   1.9196602765
	    C     0.0052965511  -0.0014434629   2.6041989956
	    C    -0.0736434677  -1.2076189530   1.9007314595
	    C    -0.0998931954  -1.2019526981   0.5102478707
	    C    -0.0293964306   0.0281599116  -1.6459916022
	    H     0.0425831154   2.1839522488   0.0015213082
	    H     0.1065022366   2.1512901528   2.4705458109
	    H     0.0205444464  -0.0110006321   3.6897546660
	    H    -0.1060079727  -2.1507958081   2.4362904112
	    H    -0.1200632204  -2.1436384752  -0.0306439911
	    N    -0.7233045313  -0.8796472458  -2.3474347030
	    N     0.7066449243   0.9150076939  -2.3082967082
	    H     0.6398633348   1.0250317884  -3.3138869542
	    H     1.3713676686   1.4989938650  -1.8175125723
	    H    -0.3383069332  -1.2953807099  -3.1889438426
	    H    -1.3682132162  -1.4735395903  -1.8404202266
	Saving final (previous) structure.
	Removing binary optimization data file.
			--------------------------
			 OPTKING Finished Execution 
			--------------------------

    Final optimized geometry and variables:
    Molecular point group: c1
    Full point group: C1

    Geometry (in Angstrom), charge = 1, multiplicity = 1:

    C           -0.032735718048     0.021858477500    -0.184297641068
    C            0.045432614639     1.234495731226     0.529753442543
    C            0.062186793695     1.217472706104     1.919660276528
    C            0.005296551113    -0.001443462886     2.604198995584
    C           -0.073643467705    -1.207618953033     1.900731459502
    C           -0.099893195426    -1.201952698073     0.510247870727
    C           -0.029396430638     0.028159911597    -1.645991602151
    H            0.042583115405     2.183952248836     0.001521308170
    H            0.106502236619     2.151290152833     2.470545810931
    H            0.020544446417    -0.011000632121     3.689754665986
    H           -0.106007972690    -2.150795808082     2.436290411186
    H           -0.120063220406    -2.143638475170    -0.030643991111
    N           -0.723304531317    -0.879647245790    -2.347434702996
    N            0.706644924269     0.915007693893    -2.308296708233
    H            0.639863334824     1.025031788394    -3.313886954187
    H            1.371367668612     1.498993865021    -1.817512572304
    H           -0.338306933197    -1.295380709912    -3.188943842556
    H           -1.368213216165    -1.473539590337    -1.840420226552

	Removing binary optimization data file.
	Cleaning optimization helper files.


Properties will be evaluated at   0.000000,   0.000000,   0.000000 [a0]
OEProp: No title given, name of density matrix used for the following properties is 'SCF density'
  Nuclear Dipole Moment: [e a0]
     X:    -1.1430      Y:     1.0928      Z:    -0.7136

  Electronic Dipole Moment: [e a0]
     X:     1.3971      Y:    -1.2006      Z:    -1.3141

  Dipole Moment: [e a0]
     X:     0.2540      Y:    -0.1078      Z:    -2.0276     Total:     2.0463

  Dipole Moment: [D]
     X:     0.6457      Y:    -0.2741      Z:    -5.1537     Total:     5.2012

  Quadrupole Moment: [D A]
    XX:   -50.2493     YY:   -36.5401     ZZ:   -15.3010
    XY:     6.0962     XZ:    -2.2944     YZ:     1.0647

  Traceless Quadrupole Moment: [D A]
    XX:   -16.2192     YY:    -2.5100     ZZ:    18.7291
    XY:     6.0962     XZ:    -2.2944     YZ:     1.0647

  Mulliken Charges: (a.u.)
   Center  Symbol    Alpha    Beta     Spin     Total
       1     C     2.95195  2.95195  0.00000  0.09610
       2     C     3.08166  3.08166  0.00000 -0.16333
       3     C     3.06228  3.06228  0.00000 -0.12456
       4     C     3.05070  3.05070  0.00000 -0.10140
       5     C     3.06234  3.06234  0.00000 -0.12468
       6     C     3.08043  3.08043  0.00000 -0.16086
       7     C     2.73638  2.73638  0.00000  0.52724
       8     H     0.41303  0.41303  0.00000  0.17395
       9     H     0.40451  0.40451  0.00000  0.19098
      10     H     0.40277  0.40277  0.00000  0.19445
      11     H     0.40469  0.40469  0.00000  0.19062
      12     H     0.41644  0.41644  0.00000  0.16711
      13     N     3.86328  3.86328  0.00000 -0.72656
      14     N     3.85677  3.85677  0.00000 -0.71355
      15     H     0.30333  0.30333  0.00000  0.39334
      16     H     0.30035  0.30035  0.00000  0.39930
      17     H     0.30525  0.30525  0.00000  0.38951
      18     H     0.30382  0.30382  0.00000  0.39235

   Total alpha = 32.00000, Total beta = 32.00000, Total charge =  1.00000


    Psi4 stopped on: Saturday, 29 September 2018 08:27PM
    Psi4 wall time for execution: 0:03:20.73

*** Psi4 exiting successfully. Buy a developer a beer!
