
    -----------------------------------------------------------------------
          Psi4: An Open-Source Ab Initio Electronic Structure Package
                               Psi4 1.2.1 release

                         Git: Rev {HEAD} 406f4de 


    R. M. Parrish, L. A. Burns, D. G. A. Smith, A. C. Simmonett,
    A. E. DePrince III, E. G. Hohenstein, U. Bozkaya, A. Yu. Sokolov,
    R. Di Remigio, R. M. Richard, J. F. Gonthier, A. M. James,
    H. R. McAlexander, A. Kumar, M. Saitow, X. Wang, B. P. Pritchard,
    P. Verma, H. F. Schaefer III, K. Patkowski, R. A. King, E. F. Valeev,
    F. A. Evangelista, J. M. Turney, T. D. Crawford, and C. D. Sherrill,
    J. Chem. Theory Comput. 13(7) pp 3185--3197 (2017).
    (doi: 10.1021/acs.jctc.7b00174)


                         Additional Contributions by
    P. Kraus, H. Kruse, M. H. Lechner, M. C. Schieber, and R. A. Shaw

    -----------------------------------------------------------------------


    Psi4 started on: Saturday, 29 September 2018 05:11PM

    Process ID: 14352
    Host:       loro.prib.upf.edu
    PSIDATADIR: /shared/joao/test_parameterize/miniconda3/share/psi4
    Memory:     500.0 MiB
    Threads:    1
    
  ==> Input File <==

--------------------------------------------------------------------------
set_num_threads(1)
set_memory('5348 MB')

set { scf_mem_safety_factor 0.7 }

set { reference rks }
set { basis cc-pVDZ }

molecule MOL {
    0 1
    noreorient
    nocom
    symmetry c1
    O    1.050400   0.042900  -0.048100
    C    2.474100   0.047400  -0.029000
    C    3.002600  -1.068900  -0.932000
    N    4.462700  -1.072400  -1.006800
    H    0.758191   0.217448   0.863030
    H    2.809900  -0.097900   1.003200
    H    2.817400   1.026800  -0.378600
    H    2.581000  -0.963300  -1.938400
    H    2.653800  -2.036400  -0.553400
    H    4.779000  -0.221000  -1.470000
    H    4.758600  -1.842500  -1.606500
}

set optking { frozen_dihedral = (" 3 2 1 5 ") }

energy, wfn = energy('B3LYP-D3', return_wfn=True)

import os
os.chdir(os.environ['HTMD_PSI4_WORKDIR'])

oeprop(wfn, 'DIPOLE', 'QUADRUPOLE', 'MULLIKEN_CHARGES')

with open('psi4out.xyz', 'w') as f:
    f.write('11 ' )
    f.write('%.12f\n' % energy)
    f.write(MOL.save_string_xyz())
--------------------------------------------------------------------------
  Threads set to 1 by Python driver.

  Memory set to   4.981 GiB by Python driver.

*** tstart() called on loro.prib.upf.edu
*** at Sat Sep 29 17:11:02 2018

   => Loading Basis Set <=

    Name: CC-PVDZ
    Role: ORBITAL
    Keyword: BASIS
    atoms 1    entry O          line   198 file /shared/joao/test_parameterize/miniconda3/share/psi4/basis/cc-pvdz.gbs 
    atoms 2-3  entry C          line   138 file /shared/joao/test_parameterize/miniconda3/share/psi4/basis/cc-pvdz.gbs 
    atoms 4    entry N          line   168 file /shared/joao/test_parameterize/miniconda3/share/psi4/basis/cc-pvdz.gbs 
    atoms 5-11 entry H          line    22 file /shared/joao/test_parameterize/miniconda3/share/psi4/basis/cc-pvdz.gbs 


         ---------------------------------------------------------
                                   SCF
            by Justin Turney, Rob Parrish, Andy Simmonett
                             and Daniel Smith
                              RKS Reference
                        1 Threads,   5100 MiB Core
         ---------------------------------------------------------

  ==> Geometry <==

    Molecular point group: c1
    Full point group: C1

    Geometry (in Angstrom), charge = 0, multiplicity = 1:

       Center              X                  Y                   Z               Mass       
    ------------   -----------------  -----------------  -----------------  -----------------
         O            1.050400000000     0.042900000000    -0.048100000000    15.994914619560
         C            2.474100000000     0.047400000000    -0.029000000000    12.000000000000
         C            3.002600000000    -1.068900000000    -0.932000000000    12.000000000000
         N            4.462700000000    -1.072400000000    -1.006800000000    14.003074004780
         H            0.758191000000     0.217448000000     0.863030000000     1.007825032070
         H            2.809900000000    -0.097900000000     1.003200000000     1.007825032070
         H            2.817400000000     1.026800000000    -0.378600000000     1.007825032070
         H            2.581000000000    -0.963300000000    -1.938400000000     1.007825032070
         H            2.653800000000    -2.036400000000    -0.553400000000     1.007825032070
         H            4.779000000000    -0.221000000000    -1.470000000000     1.007825032070
         H            4.758600000000    -1.842500000000    -1.606500000000     1.007825032070

  Running in c1 symmetry.

  Rotational constants: A =      0.72523  B =      0.02762  C =      0.02697 [cm^-1]
  Rotational constants: A =  21741.90174  B =    827.94555  C =    808.45435 [MHz]
  Nuclear repulsion =  130.463518856375202

  Charge       = 0
  Multiplicity = 1
  Electrons    = 34
  Nalpha       = 17
  Nbeta        = 17

  ==> Algorithm <==

  SCF Algorithm Type is DF.
  DIIS enabled.
  MOM disabled.
  Fractional occupation disabled.
  Guess Type is SAD.
  Energy threshold   = 1.00e-06
  Density threshold  = 1.00e-06
  Integral threshold = 0.00e+00

  ==> Primary Basis <==

  Basis Set: CC-PVDZ
    Blend: CC-PVDZ
    Number of shells: 45
    Number of basis function: 91
    Number of Cartesian functions: 95
    Spherical Harmonics?: true
    Max angular momentum: 2

  ==> DFT Potential <==

   => Composite Functional: B3LYP-D3ZERO <= 

    B3LYP-d3zero Hyb-GGA Exchange-Correlation Functional

    P. J. Stephens, F. J. Devlin, C. F. Chabalowski, and M. J. Frisch, J. Phys. Chem. 98, 11623 (1994)

    Deriv               =              1
    GGA                 =           TRUE
    Meta                =          FALSE

    Exchange Hybrid     =           TRUE
    MP2 Hybrid          =          FALSE

   => Exchange Functionals <=

    0.0800   Slater exchange
    0.7200         Becke 88

   => Exact (HF) Exchange <=

    0.2000               HF 

   => Correlation Functionals <=

    0.1900   Vosko, Wilk & Nusair (VWN5_RPA)
    0.8100   Lee, Yang & Parr

   => Molecular Quadrature <=

    Radial Scheme       =       TREUTLER
    Pruning Scheme      =           FLAT
    Nuclear Scheme      =       TREUTLER

    BS radius alpha     =              1
    Pruning alpha       =              1
    Radial Points       =             75
    Spherical Points    =            302
    Total Points        =         245079
    Total Blocks        =           1890
    Max Points          =            256
    Max Functions       =             91

   => -D3ZERO: Empirical Dispersion <=

    Grimme's -D3 (zero-damping) Dispersion Correction
    Grimme S.; Antony J.; Ehrlich S.; Krieg H. (2010), J. Chem. Phys., 132: 154104

        S6 =   1.000000E+00
        S8 =   1.703000E+00
       SR6 =   1.261000E+00
       SR8 =   1.000000E+00
    ALPHA6 =   1.400000E+01

   => Loading Basis Set <=

    Name: (CC-PVDZ AUX)
    Role: JKFIT
    Keyword: DF_BASIS_SCF
    atoms 1    entry O          line   221 file /shared/joao/test_parameterize/miniconda3/share/psi4/basis/cc-pvdz-jkfit.gbs 
    atoms 2-3  entry C          line   121 file /shared/joao/test_parameterize/miniconda3/share/psi4/basis/cc-pvdz-jkfit.gbs 
    atoms 4    entry N          line   171 file /shared/joao/test_parameterize/miniconda3/share/psi4/basis/cc-pvdz-jkfit.gbs 
    atoms 5-11 entry H          line    51 file /shared/joao/test_parameterize/miniconda3/share/psi4/basis/cc-pvdz-jkfit.gbs 

  ==> Pre-Iterations <==

   -------------------------------------------------------
    Irrep   Nso     Nmo     Nalpha   Nbeta   Ndocc  Nsocc
   -------------------------------------------------------
     A         91      91       0       0       0       0
   -------------------------------------------------------
    Total      91      91      17      17      17       0
   -------------------------------------------------------

  ==> Integral Setup <==

  DFHelper Memory: AOs need 0.036 [GiB]; user supplied 3.486 [GiB]. Using in-core AOs.

  ==> MemDFJK: Density-Fitted J/K Matrices <==

    J tasked:                   Yes
    K tasked:                   Yes
    wK tasked:                   No
    OpenMP threads:               1
    Memory (MB):               3570
    Algorithm:                 Core
    Schwarz Cutoff:           1E-12
    Mask sparsity (%):       0.4830
    Fitting Condition:        1E-12

   => Auxiliary Basis Set <=

  Basis Set: (CC-PVDZ AUX)
    Blend: CC-PVDZ-JKFIT
    Number of shells: 159
    Number of basis function: 441
    Number of Cartesian functions: 499
    Spherical Harmonics?: true
    Max angular momentum: 3

  Minimum eigenvalue in the overlap matrix is 4.5953456046E-03.
  Using Symmetric Orthogonalization.

  SCF Guess: Superposition of Atomic Densities via on-the-fly atomic UHF.

  ==> Iterations <==

                           Total Energy        Delta E     RMS |[F,P]|

   @DF-RKS iter   0:  -210.89736828274562   -2.10897e+02   3.67630e-02 
   @DF-RKS iter   1:  -210.20416578874060    6.93202e-01   7.25131e-03 
   @DF-RKS iter   2:  -210.05768389594402    1.46482e-01   9.86035e-03 DIIS
   @DF-RKS iter   3:  -210.38943236783953   -3.31748e-01   6.21286e-04 DIIS
   @DF-RKS iter   4:  -210.39022071986227   -7.88352e-04   3.92509e-04 DIIS
   @DF-RKS iter   5:  -210.39076635058385   -5.45631e-04   5.32202e-05 DIIS
   @DF-RKS iter   6:  -210.39077398008286   -7.62950e-06   2.43956e-05 DIIS
   @DF-RKS iter   7:  -210.39077614775326   -2.16767e-06   2.43041e-06 DIIS
   @DF-RKS iter   8:  -210.39077616935592   -2.16027e-08   6.37965e-07 DIIS

  ==> Post-Iterations <==

    Orbital Energies [Eh]
    ---------------------

    Doubly Occupied:                                                      

       1A    -19.127548     2A    -14.304027     3A    -10.224032  
       4A    -10.200248     5A     -1.010059     6A     -0.875983  
       7A     -0.711387     8A     -0.598093     9A     -0.509163  
      10A     -0.484961    11A     -0.446278    12A     -0.422512  
      13A     -0.387999    14A     -0.361190    15A     -0.323256  
      16A     -0.262621    17A     -0.230252  

    Virtual:                                                              

      18A      0.048866    19A      0.057924    20A      0.099719  
      21A      0.121844    22A      0.126624    23A      0.151830  
      24A      0.168778    25A      0.207431    26A      0.245744  
      27A      0.259813    28A      0.437251    29A      0.449460  
      30A      0.484469    31A      0.503463    32A      0.573021  
      33A      0.583010    34A      0.603420    35A      0.613455  
      36A      0.638439    37A      0.643281    38A      0.658989  
      39A      0.678610    40A      0.701542    41A      0.814276  
      42A      0.833730    43A      0.846750    44A      0.918696  
      45A      0.964223    46A      1.000309    47A      1.018188  
      48A      1.060793    49A      1.164399    50A      1.211404  
      51A      1.212192    52A      1.260241    53A      1.305884  
      54A      1.390517    55A      1.428020    56A      1.483131  
      57A      1.514607    58A      1.603634    59A      1.621516  
      60A      1.630493    61A      1.655709    62A      1.677764  
      63A      1.709242    64A      1.734833    65A      1.749122  
      66A      1.775949    67A      1.800070    68A      1.858513  
      69A      1.869034    70A      1.964772    71A      1.993082  
      72A      2.030209    73A      2.041607    74A      2.125825  
      75A      2.164076    76A      2.246374    77A      2.272671  
      78A      2.367739    79A      2.400430    80A      2.443462  
      81A      2.474873    82A      2.553070    83A      2.604203  
      84A      2.687650    85A      2.826518    86A      2.939006  
      87A      3.021466    88A      3.046920    89A      3.118250  
      90A      3.213196    91A      3.684984  

    Final Occupation by Irrep:
              A 
    DOCC [    17 ]

  Energy converged.

  @DF-RKS Final Energy:  -210.39077616935592

   => Energetics <=

    Nuclear Repulsion Energy =            130.4635188563752024
    One-Electron Energy =                -543.8670651824872948
    Two-Electron Energy =                 226.5044345901740428
    DFT Exchange-Correlation Energy =     -23.4867364334178816
    Empirical Dispersion Energy =          -0.0049280000000000
    VV10 Nonlocal Energy =                  0.0000000000000000
    Total Energy =                       -210.3907761693559166



Properties will be evaluated at   0.000000,   0.000000,   0.000000 [a0]

Properties computed using the SCF density matrix

  Nuclear Dipole Moment: [e a0]
     X:   176.9921      Y:   -32.5212      Z:   -32.6527

  Electronic Dipole Moment: [e a0]
     X:  -176.8214      Y:    32.6126      Z:    32.7004

  Dipole Moment: [e a0]
     X:     0.1707      Y:     0.0915      Z:     0.0477     Total:     0.1995

  Dipole Moment: [D]
     X:     0.4339      Y:     0.2325      Z:     0.1212     Total:     0.5070


*** tstop() called on loro.prib.upf.edu at Sat Sep 29 17:11:18 2018
Module time:
	user time   =      14.38 seconds =       0.24 minutes
	system time =       0.20 seconds =       0.00 minutes
	total time  =         16 seconds =       0.27 minutes
Total time:
	user time   =      14.38 seconds =       0.24 minutes
	system time =       0.20 seconds =       0.00 minutes
	total time  =         16 seconds =       0.27 minutes


Properties will be evaluated at   0.000000,   0.000000,   0.000000 [a0]
OEProp: No title given, name of density matrix used for the following properties is 'SCF density'
  Nuclear Dipole Moment: [e a0]
     X:   176.9921      Y:   -32.5212      Z:   -32.6527

  Electronic Dipole Moment: [e a0]
     X:  -176.8214      Y:    32.6126      Z:    32.7004

  Dipole Moment: [e a0]
     X:     0.1707      Y:     0.0915      Z:     0.0477     Total:     0.1995

  Dipole Moment: [D]
     X:     0.4339      Y:     0.2325      Z:     0.1212     Total:     0.5070

  Quadrupole Moment: [D A]
    XX:   -25.3906     YY:   -24.4594     ZZ:   -21.5770
    XY:     0.6621     XZ:    -5.8079     YZ:     1.8113

  Traceless Quadrupole Moment: [D A]
    XX:    -1.5816     YY:    -0.6504     ZZ:     2.2320
    XY:     0.6621     XZ:    -5.8079     YZ:     1.8113

  Mulliken Charges: (a.u.)
   Center  Symbol    Alpha    Beta     Spin     Total
       1     O     4.13941  4.13941  0.00000 -0.27882
       2     C     2.93071  2.93071  0.00000  0.13859
       3     C     2.98405  2.98405  0.00000  0.03190
       4     N     3.59432  3.59432  0.00000 -0.18864
       5     H     0.42896  0.42896  0.00000  0.14208
       6     H     0.49804  0.49804  0.00000  0.00391
       7     H     0.50136  0.50136  0.00000 -0.00272
       8     H     0.50048  0.50048  0.00000 -0.00095
       9     H     0.49333  0.49333  0.00000  0.01334
      10     H     0.46559  0.46559  0.00000  0.06881
      11     H     0.46375  0.46375  0.00000  0.07250

   Total alpha = 17.00000, Total beta = 17.00000, Total charge =  0.00000


    Psi4 stopped on: Saturday, 29 September 2018 05:11PM
    Psi4 wall time for execution: 0:00:16.93

*** Psi4 exiting successfully. Buy a developer a beer!
