
    -----------------------------------------------------------------------
          Psi4: An Open-Source Ab Initio Electronic Structure Package
                               Psi4 1.2.1 release

                         Git: Rev {HEAD} 406f4de 


    R. M. Parrish, L. A. Burns, D. G. A. Smith, A. C. Simmonett,
    A. E. DePrince III, E. G. Hohenstein, U. Bozkaya, A. Yu. Sokolov,
    R. Di Remigio, R. M. Richard, J. F. Gonthier, A. M. James,
    H. R. McAlexander, A. Kumar, M. Saitow, X. Wang, B. P. Pritchard,
    P. Verma, H. F. Schaefer III, K. Patkowski, R. A. King, E. F. Valeev,
    F. A. Evangelista, J. M. Turney, T. D. Crawford, and C. D. Sherrill,
    J. Chem. Theory Comput. 13(7) pp 3185--3197 (2017).
    (doi: 10.1021/acs.jctc.7b00174)


                         Additional Contributions by
    P. Kraus, H. Kruse, M. H. Lechner, M. C. Schieber, and R. A. Shaw

    -----------------------------------------------------------------------


    Psi4 started on: Saturday, 29 September 2018 04:49PM

    Process ID: 4770
    Host:       loro.prib.upf.edu
    PSIDATADIR: /shared/joao/test_parameterize/miniconda3/share/psi4
    Memory:     500.0 MiB
    Threads:    1
    
  ==> Input File <==

--------------------------------------------------------------------------
set_num_threads(1)
set_memory('5348 MB')

set { scf_mem_safety_factor 0.7 }

set { reference rks }
set { basis cc-pVDZ }

molecule MOL {
    0 1
    noreorient
    nocom
    symmetry c1
    O    1.141000   0.017000   0.083000
    C    2.558000   0.086000  -0.005000
    C    3.192000  -0.789000   1.067000
    O    4.446283  -1.284290   0.614418
    H    0.789000   0.590000  -0.620000
    H    2.874000   1.128000   0.115000
    H    2.871000  -0.243000  -1.001000
    H    2.538327  -1.633364   1.307206
    H    3.345579  -0.214617   1.987530
    H    4.804409  -1.833361   1.333551
}

set optking { frozen_dihedral = (" 1 2 3 4 ") }

energy, wfn = energy('B3LYP-D3', return_wfn=True)

import os
os.chdir(os.environ['HTMD_PSI4_WORKDIR'])

oeprop(wfn, 'DIPOLE', 'QUADRUPOLE', 'MULLIKEN_CHARGES')

with open('psi4out.xyz', 'w') as f:
    f.write('10 ' )
    f.write('%.12f\n' % energy)
    f.write(MOL.save_string_xyz())
--------------------------------------------------------------------------
  Threads set to 1 by Python driver.

  Memory set to   4.981 GiB by Python driver.

*** tstart() called on loro.prib.upf.edu
*** at Sat Sep 29 16:49:51 2018

   => Loading Basis Set <=

    Name: CC-PVDZ
    Role: ORBITAL
    Keyword: BASIS
    atoms 1, 4 entry O          line   198 file /shared/joao/test_parameterize/miniconda3/share/psi4/basis/cc-pvdz.gbs 
    atoms 2-3  entry C          line   138 file /shared/joao/test_parameterize/miniconda3/share/psi4/basis/cc-pvdz.gbs 
    atoms 5-10 entry H          line    22 file /shared/joao/test_parameterize/miniconda3/share/psi4/basis/cc-pvdz.gbs 


         ---------------------------------------------------------
                                   SCF
            by Justin Turney, Rob Parrish, Andy Simmonett
                             and Daniel Smith
                              RKS Reference
                        1 Threads,   5100 MiB Core
         ---------------------------------------------------------

  ==> Geometry <==

    Molecular point group: c1
    Full point group: C1

    Geometry (in Angstrom), charge = 0, multiplicity = 1:

       Center              X                  Y                   Z               Mass       
    ------------   -----------------  -----------------  -----------------  -----------------
         O            1.141000000000     0.017000000000     0.083000000000    15.994914619560
         C            2.558000000000     0.086000000000    -0.005000000000    12.000000000000
         C            3.192000000000    -0.789000000000     1.067000000000    12.000000000000
         O            4.446283000000    -1.284290000000     0.614418000000    15.994914619560
         H            0.789000000000     0.590000000000    -0.620000000000     1.007825032070
         H            2.874000000000     1.128000000000     0.115000000000     1.007825032070
         H            2.871000000000    -0.243000000000    -1.001000000000     1.007825032070
         H            2.538327000000    -1.633364000000     1.307206000000     1.007825032070
         H            3.345579000000    -0.214617000000     1.987530000000     1.007825032070
         H            4.804409000000    -1.833361000000     1.333551000000     1.007825032070

  Running in c1 symmetry.

  Rotational constants: A =      0.68877  B =      0.02598  C =      0.02555 [cm^-1]
  Rotational constants: A =  20648.79190  B =    778.93313  C =    765.83646 [MHz]
  Nuclear repulsion =  129.618140525819342

  Charge       = 0
  Multiplicity = 1
  Electrons    = 34
  Nalpha       = 17
  Nbeta        = 17

  ==> Algorithm <==

  SCF Algorithm Type is DF.
  DIIS enabled.
  MOM disabled.
  Fractional occupation disabled.
  Guess Type is SAD.
  Energy threshold   = 1.00e-06
  Density threshold  = 1.00e-06
  Integral threshold = 0.00e+00

  ==> Primary Basis <==

  Basis Set: CC-PVDZ
    Blend: CC-PVDZ
    Number of shells: 42
    Number of basis function: 86
    Number of Cartesian functions: 90
    Spherical Harmonics?: true
    Max angular momentum: 2

  ==> DFT Potential <==

   => Composite Functional: B3LYP-D3ZERO <= 

    B3LYP-d3zero Hyb-GGA Exchange-Correlation Functional

    P. J. Stephens, F. J. Devlin, C. F. Chabalowski, and M. J. Frisch, J. Phys. Chem. 98, 11623 (1994)

    Deriv               =              1
    GGA                 =           TRUE
    Meta                =          FALSE

    Exchange Hybrid     =           TRUE
    MP2 Hybrid          =          FALSE

   => Exchange Functionals <=

    0.0800   Slater exchange
    0.7200         Becke 88

   => Exact (HF) Exchange <=

    0.2000               HF 

   => Correlation Functionals <=

    0.1900   Vosko, Wilk & Nusair (VWN5_RPA)
    0.8100   Lee, Yang & Parr

   => Molecular Quadrature <=

    Radial Scheme       =       TREUTLER
    Pruning Scheme      =           FLAT
    Nuclear Scheme      =       TREUTLER

    BS radius alpha     =              1
    Pruning alpha       =              1
    Radial Points       =             75
    Spherical Points    =            302
    Total Points        =         222568
    Total Blocks        =           1745
    Max Points          =            256
    Max Functions       =             86

   => -D3ZERO: Empirical Dispersion <=

    Grimme's -D3 (zero-damping) Dispersion Correction
    Grimme S.; Antony J.; Ehrlich S.; Krieg H. (2010), J. Chem. Phys., 132: 154104

        S6 =   1.000000E+00
        S8 =   1.703000E+00
       SR6 =   1.261000E+00
       SR8 =   1.000000E+00
    ALPHA6 =   1.400000E+01

   => Loading Basis Set <=

    Name: (CC-PVDZ AUX)
    Role: JKFIT
    Keyword: DF_BASIS_SCF
    atoms 1, 4 entry O          line   221 file /shared/joao/test_parameterize/miniconda3/share/psi4/basis/cc-pvdz-jkfit.gbs 
    atoms 2-3  entry C          line   121 file /shared/joao/test_parameterize/miniconda3/share/psi4/basis/cc-pvdz-jkfit.gbs 
    atoms 5-10 entry H          line    51 file /shared/joao/test_parameterize/miniconda3/share/psi4/basis/cc-pvdz-jkfit.gbs 

  ==> Pre-Iterations <==

   -------------------------------------------------------
    Irrep   Nso     Nmo     Nalpha   Nbeta   Ndocc  Nsocc
   -------------------------------------------------------
     A         86      86       0       0       0       0
   -------------------------------------------------------
    Total      86      86      17      17      17       0
   -------------------------------------------------------

  ==> Integral Setup <==

  DFHelper Memory: AOs need 0.030 [GiB]; user supplied 3.486 [GiB]. Using in-core AOs.

  ==> MemDFJK: Density-Fitted J/K Matrices <==

    J tasked:                   Yes
    K tasked:                   Yes
    wK tasked:                   No
    OpenMP threads:               1
    Memory (MB):               3570
    Algorithm:                 Core
    Schwarz Cutoff:           1E-12
    Mask sparsity (%):       0.4327
    Fitting Condition:        1E-12

   => Auxiliary Basis Set <=

  Basis Set: (CC-PVDZ AUX)
    Blend: CC-PVDZ-JKFIT
    Number of shells: 150
    Number of basis function: 418
    Number of Cartesian functions: 474
    Spherical Harmonics?: true
    Max angular momentum: 3

  Minimum eigenvalue in the overlap matrix is 4.9184459259E-03.
  Using Symmetric Orthogonalization.

  SCF Guess: Superposition of Atomic Densities via on-the-fly atomic UHF.

  ==> Iterations <==

                           Total Energy        Delta E     RMS |[F,P]|

   @DF-RKS iter   0:  -231.01206856467849   -2.31012e+02   4.10109e-02 
   @DF-RKS iter   1:  -230.18902026309837    8.23048e-01   4.70927e-03 
   @DF-RKS iter   2:  -230.15563972554733    3.33805e-02   6.07446e-03 DIIS
   @DF-RKS iter   3:  -230.25397938656141   -9.83397e-02   6.25861e-04 DIIS
   @DF-RKS iter   4:  -230.25499496297178   -1.01558e-03   2.24557e-04 DIIS
   @DF-RKS iter   5:  -230.25517060807357   -1.75645e-04   4.78184e-05 DIIS
   @DF-RKS iter   6:  -230.25517861352748   -8.00545e-06   5.10738e-06 DIIS
   @DF-RKS iter   7:  -230.25517869762612   -8.40986e-08   1.85300e-06 DIIS
   @DF-RKS iter   8:  -230.25517870483708   -7.21096e-09   9.59534e-07 DIIS

  ==> Post-Iterations <==

    Orbital Energies [Eh]
    ---------------------

    Doubly Occupied:                                                      

       1A    -19.130742     2A    -19.130694     3A    -10.225754  
       4A    -10.225560     5A     -1.018364     6A     -1.007590  
       7A     -0.732415     8A     -0.603445     9A     -0.524808  
      10A     -0.493062    11A     -0.457554    12A     -0.411856  
      13A     -0.398059    14A     -0.349060    15A     -0.319833  
      16A     -0.264564    17A     -0.260822  

    Virtual:                                                              

      18A      0.044995    19A      0.057140    20A      0.103531  
      21A      0.125504    22A      0.126233    23A      0.155530  
      24A      0.196744    25A      0.242053    26A      0.244339  
      27A      0.451856    28A      0.456907    29A      0.493636  
      30A      0.533676    31A      0.534454    32A      0.596702  
      33A      0.617010    34A      0.624684    35A      0.647431  
      36A      0.650764    37A      0.657603    38A      0.689379  
      39A      0.855226    40A      0.856828    41A      0.925607  
      42A      0.967606    43A      1.007259    44A      1.045186  
      45A      1.055651    46A      1.205093    47A      1.206793  
      48A      1.225812    49A      1.275932    50A      1.315371  
      51A      1.332200    52A      1.358414    53A      1.500115  
      54A      1.544200    55A      1.570091    56A      1.593500  
      57A      1.606059    58A      1.634385    59A      1.664059  
      60A      1.738291    61A      1.752976    62A      1.780656  
      63A      1.806131    64A      1.934278    65A      1.934457  
      66A      1.974181    67A      2.026264    68A      2.057396  
      69A      2.117210    70A      2.165727    71A      2.211385  
      72A      2.258944    73A      2.406329    74A      2.419899  
      75A      2.499297    76A      2.507878    77A      2.908530  
      78A      2.970430    79A      2.997549    80A      3.035585  
      81A      3.047019    82A      3.138039    83A      3.179634  
      84A      3.203549    85A      3.675360    86A      3.698146  

    Final Occupation by Irrep:
              A 
    DOCC [    17 ]

  Energy converged.

  @DF-RKS Final Energy:  -230.25517870483708

   => Energetics <=

    Nuclear Repulsion Energy =            129.6181405258193422
    One-Electron Energy =                -571.0046071675322992
    Two-Electron Energy =                 235.6760160154983907
    DFT Exchange-Correlation Energy =     -24.5403980386225129
    Empirical Dispersion Energy =          -0.0043300400000000
    VV10 Nonlocal Energy =                  0.0000000000000000
    Total Energy =                       -230.2551787048370784



Properties will be evaluated at   0.000000,   0.000000,   0.000000 [a0]

Properties computed using the SCF density matrix

  Nuclear Dipole Moment: [e a0]
     X:   182.2085      Y:   -31.2989      Z:    28.4850

  Electronic Dipole Moment: [e a0]
     X:  -182.1545      Y:    31.4908      Z:   -28.3611

  Dipole Moment: [e a0]
     X:     0.0540      Y:     0.1919      Z:     0.1239     Total:     0.2347

  Dipole Moment: [D]
     X:     0.1372      Y:     0.4877      Z:     0.3149     Total:     0.5965


*** tstop() called on loro.prib.upf.edu at Sat Sep 29 16:50:07 2018
Module time:
	user time   =      12.61 seconds =       0.21 minutes
	system time =       0.22 seconds =       0.00 minutes
	total time  =         16 seconds =       0.27 minutes
Total time:
	user time   =      12.61 seconds =       0.21 minutes
	system time =       0.22 seconds =       0.00 minutes
	total time  =         16 seconds =       0.27 minutes


Properties will be evaluated at   0.000000,   0.000000,   0.000000 [a0]
OEProp: No title given, name of density matrix used for the following properties is 'SCF density'
  Nuclear Dipole Moment: [e a0]
     X:   182.2085      Y:   -31.2989      Z:    28.4850

  Electronic Dipole Moment: [e a0]
     X:  -182.1545      Y:    31.4908      Z:   -28.3611

  Dipole Moment: [e a0]
     X:     0.0540      Y:     0.1919      Z:     0.1239     Total:     0.2347

  Dipole Moment: [D]
     X:     0.1372      Y:     0.4877      Z:     0.3149     Total:     0.5965

  Quadrupole Moment: [D A]
    XX:   -25.3376     YY:   -22.3672     ZZ:   -21.2999
    XY:    -1.6110     XZ:     5.9309     YZ:    -3.6886

  Traceless Quadrupole Moment: [D A]
    XX:    -2.3360     YY:     0.6343     ZZ:     1.7017
    XY:    -1.6110     XZ:     5.9309     YZ:    -3.6886

  Mulliken Charges: (a.u.)
   Center  Symbol    Alpha    Beta     Spin     Total
       1     O     4.14055  4.14055  0.00000 -0.28110
       2     C     2.93531  2.93531  0.00000  0.12937
       3     C     2.93543  2.93543  0.00000  0.12914
       4     O     4.14077  4.14077  0.00000 -0.28154
       5     H     0.42846  0.42846  0.00000  0.14308
       6     H     0.49949  0.49949  0.00000  0.00101
       7     H     0.49614  0.49614  0.00000  0.00772
       8     H     0.49604  0.49604  0.00000  0.00793
       9     H     0.49939  0.49939  0.00000  0.00121
      10     H     0.42841  0.42841  0.00000  0.14319

   Total alpha = 17.00000, Total beta = 17.00000, Total charge =  0.00000


    Psi4 stopped on: Saturday, 29 September 2018 04:50PM
    Psi4 wall time for execution: 0:00:15.80

*** Psi4 exiting successfully. Buy a developer a beer!
