
    -----------------------------------------------------------------------
          Psi4: An Open-Source Ab Initio Electronic Structure Package
                               Psi4 1.2.1 release

                         Git: Rev {HEAD} 406f4de 


    R. M. Parrish, L. A. Burns, D. G. A. Smith, A. C. Simmonett,
    A. E. DePrince III, E. G. Hohenstein, U. Bozkaya, A. Yu. Sokolov,
    R. Di Remigio, R. M. Richard, J. F. Gonthier, A. M. James,
    H. R. McAlexander, A. Kumar, M. Saitow, X. Wang, B. P. Pritchard,
    P. Verma, H. F. Schaefer III, K. Patkowski, R. A. King, E. F. Valeev,
    F. A. Evangelista, J. M. Turney, T. D. Crawford, and C. D. Sherrill,
    J. Chem. Theory Comput. 13(7) pp 3185--3197 (2017).
    (doi: 10.1021/acs.jctc.7b00174)


                         Additional Contributions by
    P. Kraus, H. Kruse, M. H. Lechner, M. C. Schieber, and R. A. Shaw

    -----------------------------------------------------------------------


    Psi4 started on: Saturday, 29 September 2018 08:28PM

    Process ID: 25534
    Host:       oliva.prib.upf.edu
    PSIDATADIR: /shared/joao/test_parameterize/miniconda3/share/psi4
    Memory:     500.0 MiB
    Threads:    1
    
  ==> Input File <==

--------------------------------------------------------------------------
set_num_threads(4)
set_memory('3000 MB')

set { scf_mem_safety_factor 0.7 }

set { reference rks }
set { basis 6-31G* }

molecule MOL {
    1 1
    noreorient
    nocom
    symmetry c1
    C   -0.000000  -0.000000  -0.177864
    C    0.036678   1.219374   0.524165
    C    0.031765   1.213120   1.915444
    C    0.000000   0.000000   2.610107
    C   -0.031765  -1.213120   1.915444
    C   -0.036678  -1.219375   0.524165
    C   -0.000000   0.000000  -1.644734
    H    0.018170   2.164705  -0.010854
    H    0.042402   2.152895   2.457886
    H    0.000000   0.000000   3.695756
    H   -0.042402  -2.152895   2.457886
    H   -0.018170  -2.164705  -0.010853
    N   -0.712590  -0.905950  -2.308461
    N    0.712590   0.905950  -2.308460
    H    0.673432   1.006470  -3.315997
    H    1.377190   1.485970  -1.813316
    H   -1.253218  -1.593277  -1.799947
    H   -0.798094  -0.906843  -3.318141
}

set optking { frozen_dihedral = (" 1 7 13 17 ") }

set optking { dynamic_level = 1 
 geom_maxiter = 250
 print_trajectory_xyz_file = True }

energy, wfn = optimize('B3LYP-D3', return_wfn=True)

import os
os.chdir(os.environ['HTMD_PSI4_WORKDIR'])

oeprop(wfn, 'DIPOLE', 'QUADRUPOLE', 'MULLIKEN_CHARGES')

with open('psi4out.xyz', 'w') as f:
    f.write('18 ' )
    f.write('%.12f\n' % energy)
    f.write(MOL.save_string_xyz())
--------------------------------------------------------------------------
  Threads set to 4 by Python driver.

  Memory set to   2.794 GiB by Python driver.
gradient() will perform analytic gradient computation.

*** tstart() called on oliva.prib.upf.edu
*** at Sat Sep 29 20:28:44 2018

   => Loading Basis Set <=

    Name: 6-31G*
    Role: ORBITAL
    Keyword: BASIS
    atoms 1-7         entry C          line   111 file /shared/joao/test_parameterize/miniconda3/share/psi4/basis/6-31gs.gbs 
    atoms 8-12, 15-18 entry H          line    44 file /shared/joao/test_parameterize/miniconda3/share/psi4/basis/6-31gs.gbs 
    atoms 13-14       entry N          line   128 file /shared/joao/test_parameterize/miniconda3/share/psi4/basis/6-31gs.gbs 


         ---------------------------------------------------------
                                   SCF
            by Justin Turney, Rob Parrish, Andy Simmonett
                             and Daniel Smith
                              RKS Reference
                        4 Threads,   2861 MiB Core
         ---------------------------------------------------------

  ==> Geometry <==

    Molecular point group: c1
    Full point group: C1

    Geometry (in Angstrom), charge = 1, multiplicity = 1:

       Center              X                  Y                   Z               Mass       
    ------------   -----------------  -----------------  -----------------  -----------------
         C            0.000000000000     0.000000000000    -0.177864000000    12.000000000000
         C            0.036678000000     1.219374000000     0.524165000000    12.000000000000
         C            0.031765000000     1.213120000000     1.915444000000    12.000000000000
         C            0.000000000000     0.000000000000     2.610107000000    12.000000000000
         C           -0.031765000000    -1.213120000000     1.915444000000    12.000000000000
         C           -0.036678000000    -1.219375000000     0.524165000000    12.000000000000
         C            0.000000000000     0.000000000000    -1.644734000000    12.000000000000
         H            0.018170000000     2.164705000000    -0.010854000000     1.007825032070
         H            0.042402000000     2.152895000000     2.457886000000     1.007825032070
         H            0.000000000000     0.000000000000     3.695756000000     1.007825032070
         H           -0.042402000000    -2.152895000000     2.457886000000     1.007825032070
         H           -0.018170000000    -2.164705000000    -0.010853000000     1.007825032070
         N           -0.712590000000    -0.905950000000    -2.308461000000    14.003074004780
         N            0.712590000000     0.905950000000    -2.308460000000    14.003074004780
         H            0.673432000000     1.006470000000    -3.315997000000     1.007825032070
         H            1.377190000000     1.485970000000    -1.813316000000     1.007825032070
         H           -1.253218000000    -1.593277000000    -1.799947000000     1.007825032070
         H           -0.798094000000    -0.906843000000    -3.318141000000     1.007825032070

  Running in c1 symmetry.

  Rotational constants: A =      0.12190  B =      0.03959  C =      0.03128 [cm^-1]
  Rotational constants: A =   3654.56683  B =   1186.85497  C =    937.89271 [MHz]
  Nuclear repulsion =  416.955053980680020

  Charge       = 1
  Multiplicity = 1
  Electrons    = 64
  Nalpha       = 32
  Nbeta        = 32

  ==> Algorithm <==

  SCF Algorithm Type is DF.
  DIIS enabled.
  MOM disabled.
  Fractional occupation disabled.
  Guess Type is SAD.
  Energy threshold   = 1.00e-08
  Density threshold  = 1.00e-08
  Integral threshold = 0.00e+00

  ==> Primary Basis <==

  Basis Set: 6-31G*
    Blend: 6-31G*
    Number of shells: 72
    Number of basis function: 153
    Number of Cartesian functions: 153
    Spherical Harmonics?: false
    Max angular momentum: 2

  ==> DFT Potential <==

   => Composite Functional: B3LYP-D3ZERO <= 

    B3LYP-d3zero Hyb-GGA Exchange-Correlation Functional

    P. J. Stephens, F. J. Devlin, C. F. Chabalowski, and M. J. Frisch, J. Phys. Chem. 98, 11623 (1994)

    Deriv               =              1
    GGA                 =           TRUE
    Meta                =          FALSE

    Exchange Hybrid     =           TRUE
    MP2 Hybrid          =          FALSE

   => Exchange Functionals <=

    0.0800   Slater exchange
    0.7200         Becke 88

   => Exact (HF) Exchange <=

    0.2000               HF 

   => Correlation Functionals <=

    0.1900   Vosko, Wilk & Nusair (VWN5_RPA)
    0.8100   Lee, Yang & Parr

   => Molecular Quadrature <=

    Radial Scheme       =       TREUTLER
    Pruning Scheme      =           FLAT
    Nuclear Scheme      =       TREUTLER

    BS radius alpha     =              1
    Pruning alpha       =              1
    Radial Points       =             75
    Spherical Points    =            302
    Total Points        =         396911
    Total Blocks        =           3030
    Max Points          =            256
    Max Functions       =            149

   => -D3ZERO: Empirical Dispersion <=

    Grimme's -D3 (zero-damping) Dispersion Correction
    Grimme S.; Antony J.; Ehrlich S.; Krieg H. (2010), J. Chem. Phys., 132: 154104

        S6 =   1.000000E+00
        S8 =   1.703000E+00
       SR6 =   1.261000E+00
       SR8 =   1.000000E+00
    ALPHA6 =   1.400000E+01

   => Loading Basis Set <=

    Name: (6-31G* AUX)
    Role: JKFIT
    Keyword: DF_BASIS_SCF
    atoms 1-7         entry C          line   121 file /shared/joao/test_parameterize/miniconda3/share/psi4/basis/cc-pvdz-jkfit.gbs 
    atoms 8-12, 15-18 entry H          line    51 file /shared/joao/test_parameterize/miniconda3/share/psi4/basis/cc-pvdz-jkfit.gbs 
    atoms 13-14       entry N          line   171 file /shared/joao/test_parameterize/miniconda3/share/psi4/basis/cc-pvdz-jkfit.gbs 

  ==> Pre-Iterations <==

   -------------------------------------------------------
    Irrep   Nso     Nmo     Nalpha   Nbeta   Ndocc  Nsocc
   -------------------------------------------------------
     A        153     153       0       0       0       0
   -------------------------------------------------------
    Total     153     153      32      32      32       0
   -------------------------------------------------------

  ==> Integral Setup <==

  ==> DiskDFJK: Density-Fitted J/K Matrices <==

    J tasked:                  Yes
    K tasked:                  Yes
    wK tasked:                  No
    OpenMP threads:              4
    Integrals threads:           4
    Memory (MB):              2002
    Algorithm:                Core
    Integral Cache:           NONE
    Schwarz Cutoff:          1E-12
    Fitting Condition:       1E-12

   => Auxiliary Basis Set <=

  Basis Set: (6-31G* AUX)
    Blend: CC-PVDZ-JKFIT
    Number of shells: 297
    Number of basis function: 954
    Number of Cartesian functions: 954
    Spherical Harmonics?: false
    Max angular momentum: 3

  Minimum eigenvalue in the overlap matrix is 4.8697837661E-04.
  Using Symmetric Orthogonalization.

  SCF Guess: Superposition of Atomic Densities via on-the-fly atomic UHF.

  ==> Iterations <==

                           Total Energy        Delta E     RMS |[F,P]|

   @DF-RKS iter   0:  -379.62296633378946   -3.79623e+02   6.82299e-02 
   @DF-RKS iter   1:  -381.04457195235062   -1.42161e+00   1.19066e-02 
   @DF-RKS iter   2:  -380.96734362420256    7.72283e-02   1.30057e-02 DIIS
   @DF-RKS iter   3:  -381.46247368709476   -4.95130e-01   1.58197e-03 DIIS
   @DF-RKS iter   4:  -381.46766381918110   -5.19013e-03   7.77660e-04 DIIS
   @DF-RKS iter   5:  -381.46916029616597   -1.49648e-03   2.31574e-04 DIIS
   @DF-RKS iter   6:  -381.46929180695838   -1.31511e-04   8.06113e-05 DIIS
   @DF-RKS iter   7:  -381.46930943500894   -1.76281e-05   1.46561e-05 DIIS
   @DF-RKS iter   8:  -381.46930996766883   -5.32660e-07   6.78101e-06 DIIS
   @DF-RKS iter   9:  -381.46931010894917   -1.41280e-07   2.02097e-06 DIIS
   @DF-RKS iter  10:  -381.46931012115863   -1.22095e-08   6.14742e-07 DIIS
   @DF-RKS iter  11:  -381.46931012224633   -1.08770e-09   7.52218e-08 DIIS
   @DF-RKS iter  12:  -381.46931012225451   -8.18545e-12   5.41582e-08 DIIS
   @DF-RKS iter  13:  -381.46931012226361   -9.09495e-12   1.87678e-08 DIIS
   @DF-RKS iter  14:  -381.46931012226457   -9.66338e-13   5.57197e-09 DIIS

  ==> Post-Iterations <==

    Orbital Energies [Eh]
    ---------------------

    Doubly Occupied:                                                      

       1A    -14.568383     2A    -14.568043     3A    -10.497978  
       4A    -10.373832     5A    -10.356742     6A    -10.356314  
       7A    -10.342699     8A    -10.340733     9A    -10.340470  
      10A     -1.184283    11A     -1.092396    12A     -1.014517  
      13A     -0.926896    14A     -0.902536    15A     -0.845851  
      16A     -0.786375    17A     -0.774233    18A     -0.741456  
      19A     -0.733630    20A     -0.687386    21A     -0.669225  
      22A     -0.627099    23A     -0.617820    24A     -0.589154  
      25A     -0.578652    26A     -0.574069    27A     -0.517978  
      28A     -0.506021    29A     -0.498444    30A     -0.472215  
      31A     -0.411036    32A     -0.405894  

    Virtual:                                                              

      33A     -0.215964    34A     -0.157819    35A     -0.130642  
      36A     -0.109001    37A     -0.067855    38A     -0.061508  
      39A     -0.038852    40A     -0.035617    41A      0.006998  
      42A      0.020369    43A      0.022888    44A      0.057936  
      45A      0.062371    46A      0.083225    47A      0.125230  
      48A      0.148833    49A      0.157274    50A      0.159759  
      51A      0.202261    52A      0.242575    53A      0.298811  
      54A      0.348761    55A      0.354546    56A      0.380525  
      57A      0.387437    58A      0.397196    59A      0.422122  
      60A      0.422523    61A      0.442064    62A      0.448733  
      63A      0.452862    64A      0.470329    65A      0.471378  
      66A      0.475181    67A      0.485201    68A      0.508272  
      69A      0.525082    70A      0.534261    71A      0.539571  
      72A      0.590285    73A      0.606630    74A      0.653929  
      75A      0.658634    76A      0.681508    77A      0.688031  
      78A      0.704628    79A      0.716917    80A      0.720166  
      81A      0.747603    82A      0.774859    83A      0.777858  
      84A      0.802754    85A      0.812847    86A      0.838261  
      87A      0.847943    88A      0.939471    89A      0.961681  
      90A      0.997629    91A      1.000432    92A      1.026540  
      93A      1.052008    94A      1.072214    95A      1.143443  
      96A      1.176809    97A      1.230682    98A      1.271845  
      99A      1.282064   100A      1.308592   101A      1.318366  
     102A      1.343600   103A      1.362121   104A      1.364487  
     105A      1.436699   106A      1.449658   107A      1.485099  
     108A      1.602282   109A      1.619559   110A      1.653488  
     111A      1.672963   112A      1.736250   113A      1.754527  
     114A      1.793782   115A      1.825066   116A      1.857787  
     117A      1.900264   118A      1.914084   119A      1.957137  
     120A      1.976360   121A      1.996990   122A      2.019039  
     123A      2.041833   124A      2.080014   125A      2.116422  
     126A      2.129829   127A      2.150814   128A      2.211697  
     129A      2.221885   130A      2.265707   131A      2.344569  
     132A      2.367337   133A      2.445163   134A      2.453188  
     135A      2.489328   136A      2.516117   137A      2.548038  
     138A      2.588254   139A      2.604594   140A      2.629873  
     141A      2.738071   142A      2.887742   143A      2.984863  
     144A      3.258943   145A      3.636865   146A      3.660727  
     147A      3.912318   148A      3.948180   149A      3.963319  
     150A      4.054650   151A      4.173405   152A      4.257569  
     153A      4.546026  

    Final Occupation by Irrep:
              A 
    DOCC [    32 ]

  Energy converged.

  @DF-RKS Final Energy:  -381.46931012226457

   => Energetics <=

    Nuclear Repulsion Energy =            416.9550539806800202
    One-Electron Energy =               -1329.0960703058635772
    Two-Electron Energy =                 575.0897268443287658
    DFT Exchange-Correlation Energy =     -44.4061333714099291
    Empirical Dispersion Energy =          -0.0118872700000000
    VV10 Nonlocal Energy =                  0.0000000000000000
    Total Energy =                       -381.4693101222646305



Properties will be evaluated at   0.000000,   0.000000,   0.000000 [a0]

Properties computed using the SCF density matrix

  Nuclear Dipole Moment: [e a0]
     X:    -0.0013      Y:    -0.0145      Z:     0.0460

  Electronic Dipole Moment: [e a0]
     X:    -0.0026      Y:     0.0204      Z:    -2.3058

  Dipole Moment: [e a0]
     X:    -0.0039      Y:     0.0058      Z:    -2.2598     Total:     2.2598

  Dipole Moment: [D]
     X:    -0.0100      Y:     0.0148      Z:    -5.7439     Total:     5.7439


*** tstop() called on oliva.prib.upf.edu at Sat Sep 29 20:29:13 2018
Module time:
	user time   =     101.98 seconds =       1.70 minutes
	system time =       0.76 seconds =       0.01 minutes
	total time  =         29 seconds =       0.48 minutes
Total time:
	user time   =     101.98 seconds =       1.70 minutes
	system time =       0.76 seconds =       0.01 minutes
	total time  =         29 seconds =       0.48 minutes

*** tstart() called on oliva.prib.upf.edu
*** at Sat Sep 29 20:29:13 2018


         ------------------------------------------------------------
                                   SCF GRAD                          
                          Rob Parrish, Justin Turney,                
                       Andy Simmonett, and Alex Sokolov              
         ------------------------------------------------------------

  ==> Geometry <==

    Molecular point group: c1
    Full point group: C1

    Geometry (in Angstrom), charge = 1, multiplicity = 1:

       Center              X                  Y                   Z               Mass       
    ------------   -----------------  -----------------  -----------------  -----------------
         C            0.000000000000     0.000000000000    -0.177864000000    12.000000000000
         C            0.036678000000     1.219374000000     0.524165000000    12.000000000000
         C            0.031765000000     1.213120000000     1.915444000000    12.000000000000
         C            0.000000000000     0.000000000000     2.610107000000    12.000000000000
         C           -0.031765000000    -1.213120000000     1.915444000000    12.000000000000
         C           -0.036678000000    -1.219375000000     0.524165000000    12.000000000000
         C            0.000000000000     0.000000000000    -1.644734000000    12.000000000000
         H            0.018170000000     2.164705000000    -0.010854000000     1.007825032070
         H            0.042402000000     2.152895000000     2.457886000000     1.007825032070
         H            0.000000000000     0.000000000000     3.695756000000     1.007825032070
         H           -0.042402000000    -2.152895000000     2.457886000000     1.007825032070
         H           -0.018170000000    -2.164705000000    -0.010853000000     1.007825032070
         N           -0.712590000000    -0.905950000000    -2.308461000000    14.003074004780
         N            0.712590000000     0.905950000000    -2.308460000000    14.003074004780
         H            0.673432000000     1.006470000000    -3.315997000000     1.007825032070
         H            1.377190000000     1.485970000000    -1.813316000000     1.007825032070
         H           -1.253218000000    -1.593277000000    -1.799947000000     1.007825032070
         H           -0.798094000000    -0.906843000000    -3.318141000000     1.007825032070

  Nuclear repulsion =  416.955053980680020

  ==> Basis Set <==

  Basis Set: 6-31G*
    Blend: 6-31G*
    Number of shells: 72
    Number of basis function: 153
    Number of Cartesian functions: 153
    Spherical Harmonics?: false
    Max angular momentum: 2

  ==> DFJKGrad: Density-Fitted SCF Gradients <==

    Gradient:                    1
    J tasked:                  Yes
    K tasked:                  Yes
    wK tasked:                  No
    OpenMP threads:              4
    Integrals threads:           4
    Memory (MB):              2002
    Schwarz Cutoff:          0E+00
    Fitting Condition:       1E-12

   => Auxiliary Basis Set <=

  Basis Set: (6-31G* AUX)
    Blend: CC-PVDZ-JKFIT
    Number of shells: 297
    Number of basis function: 954
    Number of Cartesian functions: 954
    Spherical Harmonics?: false
    Max angular momentum: 3

  ==> DFT Potential <==

   => Composite Functional: B3LYP-D3ZERO <= 

    B3LYP-d3zero Hyb-GGA Exchange-Correlation Functional

    P. J. Stephens, F. J. Devlin, C. F. Chabalowski, and M. J. Frisch, J. Phys. Chem. 98, 11623 (1994)

    Deriv               =              1
    GGA                 =           TRUE
    Meta                =          FALSE

    Exchange Hybrid     =           TRUE
    MP2 Hybrid          =          FALSE

   => Exchange Functionals <=

    0.0800   Slater exchange
    0.7200         Becke 88

   => Exact (HF) Exchange <=

    0.2000               HF 

   => Correlation Functionals <=

    0.1900   Vosko, Wilk & Nusair (VWN5_RPA)
    0.8100   Lee, Yang & Parr

   => Molecular Quadrature <=

    Radial Scheme       =       TREUTLER
    Pruning Scheme      =           FLAT
    Nuclear Scheme      =       TREUTLER

    BS radius alpha     =              1
    Pruning alpha       =              1
    Radial Points       =             75
    Spherical Points    =            302
    Total Points        =         396911
    Total Blocks        =           3030
    Max Points          =            256
    Max Functions       =            149


  -Total Gradient:
     Atom            X                  Y                   Z
    ------   -----------------  -----------------  -----------------
       1       -0.002431079632     0.001988836456    -0.001256818260
       2       -0.000218560760     0.000213578689     0.000901280251
       3        0.000253464184     0.000514421813    -0.000372270503
       4       -0.000063068336    -0.000284455361     0.000031582227
       5        0.000113267591     0.000249914148     0.000122989379
       6       -0.000059745738    -0.001048205305    -0.000332229739
       7       -0.000688499133     0.001110358893     0.001547938560
       8       -0.000102940409     0.000026926023    -0.000028968003
       9        0.000025707576    -0.000015268918     0.000038575112
      10       -0.000022319880     0.000024948596     0.000020546167
      11        0.000018706317    -0.000003398314    -0.000017844946
      12       -0.000310294661     0.000471618751    -0.000432793825
      13        0.000408394424    -0.000862002269    -0.000349420897
      14        0.002111787474    -0.001631444767    -0.000215171637
      15       -0.000671132606     0.000329353913     0.000024022457
      16        0.001035199177    -0.000790064767    -0.000122275022
      17        0.003271470240    -0.002614547371     0.000334444875
      18       -0.002674535762     0.002316596113     0.000092298897


*** tstop() called on oliva.prib.upf.edu at Sat Sep 29 20:29:20 2018
Module time:
	user time   =      25.75 seconds =       0.43 minutes
	system time =       0.25 seconds =       0.00 minutes
	total time  =          7 seconds =       0.12 minutes
Total time:
	user time   =     127.79 seconds =       2.13 minutes
	system time =       1.02 seconds =       0.02 minutes
	total time  =         36 seconds =       0.60 minutes

			-----------------------------------------
			 OPTKING 2.0: for geometry optimizations 
			  - R.A. King,  Bethel University        
			-----------------------------------------
	At level 1: Red. Int., RFO, no backsteps, dynamic trust

	Internal coordinates to be generated automatically.
	Detected frag 1 with atoms:  1 2 3 4 5 6 7 8 9 10 11 12 13 14 15 16 17 18
	---Fragment 1 Bond Connectivity---
	 1 : 2 6 7
	 2 : 1 3 8
	 3 : 2 4 9
	 4 : 3 5 10
	 5 : 4 6 11
	 6 : 1 5 12
	 7 : 1 13 14
	 8 : 2
	 9 : 3
	 10 : 4
	 11 : 5
	 12 : 6
	 13 : 7 17 18
	 14 : 7 15 16
	 15 : 14
	 16 : 14
	 17 : 13
	 18 : 13

	Assuming in current code that numbering for constraints corresponds to unified fragment.
	Frozen dihedral atom list: 
	     1     7    13    17
	---Fragment 1 Geometry and Gradient---
	 C           0.0000000000        0.0000000000       -0.3361142489
	 C           0.0693113751        2.3042829136        0.9905282984
	 C           0.0600271506        2.2924645663        3.6196645829
	 C           0.0000000000        0.0000000000        4.9323874075
	 C          -0.0600271506       -2.2924645663        3.6196645829
	 C          -0.0693113751       -2.3042848033        0.9905282984
	 C           0.0000000000        0.0000000000       -3.1080968214
	 H           0.0343363238        4.0906996085       -0.0205110874
	 H           0.0801281675        4.0683819429        4.6447314059
	 H           0.0000000000        0.0000000000        6.9839666940
	 H          -0.0801281675       -4.0683819429        4.6447314059
	 H          -0.0343363238       -4.0906996085       -0.0205091977
	 N          -1.3465999450       -1.7119973901       -4.3623590784
	 N           1.3465999450        1.7119973901       -4.3623571887
	 H           1.2726020491        1.9019526610       -6.2663261875
	 H           2.6025119329        2.8080763417       -3.4266706324
	 H          -2.3682388048       -3.0108571838       -3.4014068837
	 H          -1.5081790883       -1.7136849155       -6.2703777603
	            -0.0024310796        0.0019888365       -0.0012568183
	            -0.0002185608        0.0002135787        0.0009012803
	             0.0002534642        0.0005144218       -0.0003722705
	            -0.0000630683       -0.0002844554        0.0000315822
	             0.0001132676        0.0002499141        0.0001229894
	            -0.0000597457       -0.0010482053       -0.0003322297
	            -0.0006884991        0.0011103589        0.0015479386
	            -0.0001029404        0.0000269260       -0.0000289680
	             0.0000257076       -0.0000152689        0.0000385751
	            -0.0000223199        0.0000249486        0.0000205462
	             0.0000187063       -0.0000033983       -0.0000178449
	            -0.0003102947        0.0004716188       -0.0004327938
	             0.0004083944       -0.0008620023       -0.0003494209
	             0.0021117875       -0.0016314448       -0.0002151716
	            -0.0006711326        0.0003293539        0.0000240225
	             0.0010351992       -0.0007900648       -0.0001222750
	             0.0032714702       -0.0026145474        0.0003344449
	            -0.0026745358        0.0023165961        0.0000922989

	Previous optimization step data not found.  Starting new optimization.

	---Fragment 1 Intrafragment Coordinates---
	 - Coordinate -           - BOHR/RAD -       - ANG/DEG -
	 R(1,2)           =         2.659794	       1.407502
	 R(1,6)           =         2.659796	       1.407503
	 R(1,7)           =         2.771983	       1.466870
	 R(2,3)           =         2.629179	       1.391302
	 R(2,8)           =         2.052976	       1.086388
	 R(3,4)           =         2.642393	       1.398294
	 R(3,9)           =         2.050622	       1.085142
	 R(4,5)           =         2.642393	       1.398294
	 R(4,10)          =         2.051579	       1.085649
	 R(5,6)           =         2.629179	       1.391302
	 R(5,11)          =         2.050622	       1.085142
	 R(6,12)          =         2.052973	       1.086386
	 R(7,13)          =         2.513452	       1.330061
	 R(7,14)          =         2.513451	       1.330061
	 R(13,17)         =         1.911599	       1.011575
	 R(13,18)         =         1.914849	       1.013294
	 R(14,15)         =         1.914852	       1.013296
	 R(14,16)         =         1.911600	       1.011575
	 B(1,2,3)         =         2.088380	     119.655376
	 B(1,2,8)         =         2.103396	     120.515689
	 B(1,6,5)         =         2.088379	     119.655315
	 B(1,6,12)        =         2.103396	     120.515729
	 B(1,7,13)        =         2.093264	     119.935172
	 B(1,7,14)        =         2.093263	     119.935135
	 B(2,1,6)         =         2.097220	     120.161857
	 B(2,1,7)         =         2.092983	     119.919082
	 B(2,3,4)         =         2.095279	     120.050636
	 B(2,3,9)         =         2.089719	     119.732108
	 B(3,2,8)         =         2.090149	     119.756722
	 B(3,4,5)         =         2.101793	     120.423859
	 B(3,4,10)        =         2.090696	     119.788070
	 B(4,3,9)         =         2.098135	     120.214297
	 B(4,5,6)         =         2.095280	     120.050677
	 B(4,5,11)        =         2.098135	     120.214297
	 B(5,4,10)        =         2.090696	     119.788070
	 B(5,6,12)        =         2.090149	     119.756743
	 B(6,1,7)         =         2.092982	     119.919061
	 B(6,5,11)        =         2.089719	     119.732067
	 B(7,13,17)       =         2.092411	     119.886340
	 B(7,13,18)       =         2.144860	     122.891404
	 B(7,14,15)       =         2.144860	     122.891405
	 B(7,14,16)       =         2.092412	     119.886393
	 B(13,7,14)       =         2.096659	     120.129694
	 B(15,14,16)      =         2.043399	     117.078146
	 B(17,13,18)      =         2.043400	     117.078199
	 D(1,2,3,4)       =         0.007799	       0.446825
	 D(1,2,3,9)       =        -3.122896	    -178.928735
	 D(1,6,5,4)       =         0.007799	       0.446822
	 D(1,6,5,11)      =        -3.122896	    -178.928737
	*D(1,7,13,17)     =        -0.000000	      -0.000000
	 D(1,7,13,18)     =         3.063176	     175.507067
	 D(1,7,14,15)     =        -3.032165	    -173.730230
	 D(1,7,14,16)     =         0.187844	      10.762681
	 D(2,1,6,5)       =        -0.003906	      -0.223802
	 D(2,1,6,12)      =        -3.091437	    -177.126283
	 D(2,1,7,13)      =        -2.505167	    -143.535494
	 D(2,1,7,14)      =         0.636426	      36.464506
	 D(2,3,4,5)       =        -0.003942	      -0.225875
	 D(2,3,4,10)      =         3.137650	     179.774125
	 D(3,2,1,6)       =        -0.003906	      -0.223806
	 D(3,2,1,7)       =         3.137687	     179.776196
	 D(3,4,5,6)       =        -0.003942	      -0.225874
	 D(3,4,5,11)      =         3.126699	     179.146646
	 D(4,3,2,8)       =         3.095744	     177.373058
	 D(4,5,6,12)      =         3.095744	     177.373055
	 D(5,4,3,9)       =         3.126699	     179.146646
	 D(5,6,1,7)       =         3.137687	     179.776197
	 D(6,1,2,8)       =        -3.091437	    -177.126287
	 D(6,1,7,13)      =         0.636426	      36.464508
	 D(6,1,7,14)      =        -2.505167	    -143.535492
	 D(6,5,4,10)      =         3.137650	     179.774126
	 D(7,1,2,8)       =         0.050156	       2.873714
	 D(7,1,6,12)      =         0.050156	       2.873716
	 D(8,2,3,9)       =        -0.034950	      -2.002503
	 D(9,3,4,10)      =        -0.014894	      -0.853354
	 D(10,4,5,11)     =        -0.014894	      -0.853354
	 D(11,5,6,12)     =        -0.034950	      -2.002504
	 D(13,7,14,15)    =         0.109428	       6.269770
	 D(13,7,14,16)    =        -2.953748	    -169.237319
	 D(14,7,13,17)    =         3.141593	     180.000000
	 D(14,7,13,18)    =        -0.078416	      -4.492933

	Current energy   :      -381.4693101223

	Generating empirical Hessian (Schlegel '84) for each fragment.
	Taking RFO optimization step.
	Going to follow RFO solution 1.
	Using RFO vector 1.
	Norm of target step-size    0.24643
	Projected energy change by RFO approximation:        -0.0009926237

	Back-transformation to cartesian coordinates...
	Could not converge backtransformation.
	Using first guess instead.

	Back-transformation to cartesian coordinates to adjust frozen coordinates...
	Successfully converged to displaced geometry.

	--- Internal Coordinate Step in ANG or DEG, aJ/ANG or AJ/DEG ---
	 ---------------------------------------------------------------------------
	   Coordinate                Previous        Force       Change         New 
	   ----------                --------       ------       ------       ------
	    1 R(1,2)          =      1.407502    -0.004564    -0.000629     1.406873
	    2 R(1,6)          =      1.407503     0.001390     0.000237     1.407740
	    3 R(1,7)          =      1.466870     0.010853     0.001925     1.468795
	    4 R(2,3)          =      1.391302     0.002489     0.000427     1.391729
	    5 R(2,8)          =      1.086388    -0.000322    -0.000035     1.086353
	    6 R(3,4)          =      1.398294    -0.003191    -0.000412     1.397882
	    7 R(3,9)          =      1.085142    -0.000055     0.000037     1.085179
	    8 R(4,5)          =      1.398294    -0.001286    -0.000114     1.398180
	    9 R(4,10)         =      1.085649    -0.000176     0.000022     1.085671
	   10 R(5,6)          =      1.391302    -0.001083    -0.000078     1.391223
	   11 R(5,11)         =      1.085142     0.000048     0.000030     1.085172
	   12 R(6,12)         =      1.086386     0.001672     0.000436     1.086823
	   13 R(7,13)         =      1.330061    -0.001732     0.001157     1.331219
	   14 R(7,14)         =      1.330061    -0.000479     0.000195     1.330256
	   15 R(13,17)        =      1.011575    -0.001614     0.000879     1.012454
	   16 R(13,18)        =      1.013294    -0.001080     0.002719     1.016013
	   17 R(14,15)        =      1.013296    -0.000278     0.000018     1.013314
	   18 R(14,16)        =      1.011575    -0.001387     0.000265     1.011840
	   19 B(1,2,3)        =    119.655376     0.000005     0.011918   119.667294
	   20 B(1,2,8)        =    120.515689    -0.000001    -0.007306   120.508383
	   21 B(1,6,5)        =    119.655315     0.000020     0.064998   119.720312
	   22 B(1,6,12)       =    120.515729     0.000037     0.180684   120.696414
	   23 B(1,7,13)       =    119.935172     0.000071     0.175816   120.110988
	   24 B(1,7,14)       =    119.935135    -0.000086    -0.265147   119.669988
	   25 B(2,1,6)        =    120.161857    -0.000023    -0.070444   120.091413
	   26 B(2,1,7)        =    119.919082    -0.000099    -0.296923   119.622159
	   27 B(2,3,4)        =    120.050636     0.000014     0.044973   120.095609
	   28 B(2,3,9)        =    119.732108    -0.000010    -0.035655   119.696452
	   29 B(3,2,8)        =    119.756722    -0.000004    -0.017390   119.739332
	   30 B(3,4,5)        =    120.423859    -0.000012    -0.044293   120.379567
	   31 B(3,4,10)       =    119.788070     0.000008     0.029898   119.817968
	   32 B(4,3,9)        =    120.214297    -0.000004    -0.008368   120.205929
	   33 B(4,5,6)        =    120.050677    -0.000003    -0.010069   120.040609
	   34 B(4,5,11)       =    120.214297     0.000000    -0.001101   120.213196
	   35 B(5,4,10)       =    119.788070     0.000004     0.014327   119.802398
	   36 B(5,6,12)       =    119.756743    -0.000057    -0.253707   119.503036
	   37 B(6,1,7)        =    119.919061     0.000123     0.367365   120.286427
	   38 B(6,5,11)       =    119.732067     0.000003     0.010617   119.742684
	   39 B(7,13,17)      =    119.886340     0.000015     0.232269   120.118609
	   40 B(7,13,18)      =    122.891404     0.000021    -0.176336   122.715068
	   41 B(7,14,15)      =    122.891405     0.000020     0.119161   123.010566
	   42 B(7,14,16)      =    119.886393    -0.000008     0.003688   119.890081
	   43 B(13,7,14)      =    120.129694     0.000015    -0.050233   120.079460
	   44 B(15,14,16)     =    117.078146    -0.000009    -0.051855   117.026290
	   45 B(17,13,18)     =    117.078199    -0.000025     0.084890   117.163089
	   46 D(1,2,3,4)      =      0.446825     0.000002     0.332447     0.779272
	   47 D(1,2,3,9)      =   -178.928735     0.000001     0.222602  -178.706134
	   48 D(1,6,5,4)      =      0.446822    -0.000001    -0.107231     0.339591
	   49 D(1,6,5,11)     =   -178.928737    -0.000000    -0.051437  -178.980174
	   50 *D(1,7,13,17)   =      0.000000    -0.000000     0.000000     0.000000
	   51 D(1,7,13,18)    =    175.507067     0.000037     5.165478   180.672546
	   52 D(1,7,14,15)    =   -173.730230     0.000002     0.644660  -173.085569
	   53 D(1,7,14,16)    =     10.762681    -0.000007    -0.645481    10.117200
	   54 D(2,1,6,5)      =     -0.223802     0.000002     0.406802     0.183001
	   55 D(2,1,6,12)     =   -177.126283     0.000004     0.582593  -176.543689
	   56 D(2,1,7,13)     =   -143.535494     0.000016     3.161935  -140.373559
	   57 D(2,1,7,14)     =     36.464506    -0.000009    -1.128466    35.336040
	   58 D(2,3,4,5)      =     -0.225875    -0.000000    -0.033923    -0.259798
	   59 D(2,3,4,10)     =    179.774125    -0.000001    -0.128458   179.645666
	   60 D(3,2,1,6)      =     -0.223806    -0.000003    -0.519117    -0.742923
	   61 D(3,2,1,7)      =    179.776196    -0.000003    -0.535322   179.240873
	   62 D(3,4,5,6)      =     -0.225874    -0.000000    -0.079499    -0.305374
	   63 D(3,4,5,11)     =    179.146646    -0.000001    -0.135485   179.011161
	   64 D(4,3,2,8)      =    177.373058     0.000000     0.071567   177.444625
	   65 D(4,5,6,12)     =    177.373055    -0.000001    -0.267447   177.105608
	   66 D(5,4,3,9)      =    179.146646     0.000000     0.076317   179.222963
	   67 D(5,6,1,7)      =    179.776197     0.000002     0.423116   180.199313
	   68 D(6,1,2,8)      =   -177.126287    -0.000001    -0.255886  -177.382173
	   69 D(6,1,7,13)     =     36.464508     0.000016     3.145697    39.610205
	   70 D(6,1,7,14)     =   -143.535492    -0.000009    -1.144704  -144.680196
	   71 D(6,5,4,10)     =    179.774126     0.000000     0.015021   179.789147
	   72 D(7,1,2,8)      =      2.873714    -0.000001    -0.272092     2.601623
	   73 D(7,1,6,12)     =      2.873716     0.000004     0.598907     3.472623
	   74 D(8,2,3,9)      =     -2.002503    -0.000000    -0.038278    -2.040781
	   75 D(9,3,4,10)     =     -0.853354    -0.000000    -0.018218    -0.871572
	   76 D(10,4,5,11)    =     -0.853354    -0.000000    -0.040964    -0.894318
	   77 D(11,5,6,12)    =     -2.002504    -0.000001    -0.211653    -2.214157
	   78 D(13,7,14,15)   =      6.269770    -0.000022    -3.644371     2.625400
	   79 D(13,7,14,16)   =   -169.237319    -0.000031    -4.934512  -174.171831
	   80 D(14,7,13,17)   =    180.000000     0.000025     4.307564   184.307564
	   81 D(14,7,13,18)   =     -4.492933     0.000062     9.473563     4.980630
	 ---------------------------------------------------------------------------
	Successfully symmetrized geometry.

  ==> Convergence Check <==

  Measures of convergence in internal coordinates in au.
  Criteria marked as inactive (o), active & met (*), and active & unmet ( ).
  --------------------------------------------------------------------------------------------- ~
   Step     Total Energy     Delta E     MAX Force     RMS Force      MAX Disp      RMS Disp    ~
  --------------------------------------------------------------------------------------------- ~
    Convergence Criteria    1.00e-06 *    3.00e-04 *             o    1.20e-03 *             o  ~
  --------------------------------------------------------------------------------------------- ~
      1    -381.46931012   -3.81e+02      3.55e-03      6.75e-04 o    1.65e-01      2.73e-02 o  ~
  ---------------------------------------------------------------------------------------------

	Writing optimization data to binary file.
	Structure for next step:
	Cartesian Geometry (in Angstrom)
	    C     0.0148585947  -0.0159470521  -0.1776705317
	    C     0.0474234092   1.2070401623   0.5169765390
	    C     0.0293843109   1.2095259601   1.9085859449
	    C    -0.0044073017   0.0015981183   2.6113259330
	    C    -0.0257968542  -1.2158752088   1.9241510524
	    C    -0.0199226133  -1.2306257642   0.5330181768
	    C     0.0170274749  -0.0168941838  -1.6464637086
	    H     0.0316147080   2.1490711498  -0.0238480732
	    H     0.0332078801   2.1530772281   2.4445991345
	    H    -0.0125482566   0.0086690684   3.6969431587
	    H    -0.0358364820  -2.1522962643   2.4724327244
	    H     0.0110890920  -2.1817032039   0.0079714578
	    N    -0.7405230054  -0.8837847422  -2.3148654627
	    N     0.7121538896   0.9068744896  -2.3045153464
	    H     0.6691435415   1.0173196515  -3.3108733091
	    H     1.3544825619   1.5067820255  -1.8031720656
	    H    -1.3201404417  -1.5447091033  -1.8125852053
	    H    -0.7619005078  -0.9258033310  -3.3297844188
			--------------------------
			 OPTKING Finished Execution 
			--------------------------

    Structure for next step:
    Molecular point group: c1
    Full point group: C1

    Geometry (in Angstrom), charge = 1, multiplicity = 1:

    C            0.014858594694    -0.015947052091    -0.177670531679
    C            0.047423409184     1.207040162261     0.516976539002
    C            0.029384310855     1.209525960089     1.908585944919
    C           -0.004407301732     0.001598118296     2.611325933045
    C           -0.025796854203    -1.215875208791     1.924151052431
    C           -0.019922613281    -1.230625764186     0.533018176759
    C            0.017027474877    -0.016894183822    -1.646463708606
    H            0.031614707976     2.149071149753    -0.023848073244
    H            0.033207880117     2.153077228133     2.444599134452
    H           -0.012548256594     0.008669068357     3.696943158691
    H           -0.035836481972    -2.152296264316     2.472432724373
    H            0.011089092010    -2.181703203861     0.007971457766
    N           -0.740523005380    -0.883784742181    -2.314865462720
    N            0.712153889560     0.906874489576    -2.304515346444
    H            0.669143541543     1.017319651542    -3.310873309071
    H            1.354482561860     1.506782025471    -1.803172065576
    H           -1.320140441692    -1.544709103279    -1.812585205264
    H           -0.761900507823    -0.925803330952    -3.329784418834

gradient() will perform analytic gradient computation.

*** tstart() called on oliva.prib.upf.edu
*** at Sat Sep 29 20:29:20 2018

   => Loading Basis Set <=

    Name: 6-31G*
    Role: ORBITAL
    Keyword: BASIS
    atoms 1-7         entry C          line   111 file /shared/joao/test_parameterize/miniconda3/share/psi4/basis/6-31gs.gbs 
    atoms 8-12, 15-18 entry H          line    44 file /shared/joao/test_parameterize/miniconda3/share/psi4/basis/6-31gs.gbs 
    atoms 13-14       entry N          line   128 file /shared/joao/test_parameterize/miniconda3/share/psi4/basis/6-31gs.gbs 


         ---------------------------------------------------------
                                   SCF
            by Justin Turney, Rob Parrish, Andy Simmonett
                             and Daniel Smith
                              RKS Reference
                        4 Threads,   2861 MiB Core
         ---------------------------------------------------------

  ==> Geometry <==

    Molecular point group: c1
    Full point group: C1

    Geometry (in Angstrom), charge = 1, multiplicity = 1:

       Center              X                  Y                   Z               Mass       
    ------------   -----------------  -----------------  -----------------  -----------------
         C            0.014858594694    -0.015947052091    -0.177670531679    12.000000000000
         C            0.047423409184     1.207040162261     0.516976539002    12.000000000000
         C            0.029384310855     1.209525960089     1.908585944919    12.000000000000
         C           -0.004407301732     0.001598118296     2.611325933045    12.000000000000
         C           -0.025796854203    -1.215875208791     1.924151052431    12.000000000000
         C           -0.019922613281    -1.230625764186     0.533018176759    12.000000000000
         C            0.017027474877    -0.016894183822    -1.646463708606    12.000000000000
         H            0.031614707976     2.149071149753    -0.023848073244     1.007825032070
         H            0.033207880117     2.153077228133     2.444599134452     1.007825032070
         H           -0.012548256594     0.008669068357     3.696943158691     1.007825032070
         H           -0.035836481972    -2.152296264316     2.472432724373     1.007825032070
         H            0.011089092010    -2.181703203861     0.007971457766     1.007825032070
         N           -0.740523005380    -0.883784742181    -2.314865462720    14.003074004780
         N            0.712153889560     0.906874489576    -2.304515346444    14.003074004780
         H            0.669143541543     1.017319651542    -3.310873309071     1.007825032070
         H            1.354482561860     1.506782025471    -1.803172065576     1.007825032070
         H           -1.320140441692    -1.544709103279    -1.812585205264     1.007825032070
         H           -0.761900507823    -0.925803330952    -3.329784418834     1.007825032070

  Running in c1 symmetry.

  Rotational constants: A =      0.12191  B =      0.03949  C =      0.03129 [cm^-1]
  Rotational constants: A =   3654.74403  B =   1183.82782  C =    938.09912 [MHz]
  Nuclear repulsion =  416.784592462526859

  Charge       = 1
  Multiplicity = 1
  Electrons    = 64
  Nalpha       = 32
  Nbeta        = 32

  ==> Algorithm <==

  SCF Algorithm Type is DF.
  DIIS enabled.
  MOM disabled.
  Fractional occupation disabled.
  Guess Type is READ.
  Energy threshold   = 1.00e-08
  Density threshold  = 1.00e-08
  Integral threshold = 0.00e+00

  ==> Primary Basis <==

  Basis Set: 6-31G*
    Blend: 6-31G*
    Number of shells: 72
    Number of basis function: 153
    Number of Cartesian functions: 153
    Spherical Harmonics?: false
    Max angular momentum: 2

  ==> DFT Potential <==

   => Composite Functional: B3LYP-D3ZERO <= 

    B3LYP-d3zero Hyb-GGA Exchange-Correlation Functional

    P. J. Stephens, F. J. Devlin, C. F. Chabalowski, and M. J. Frisch, J. Phys. Chem. 98, 11623 (1994)

    Deriv               =              1
    GGA                 =           TRUE
    Meta                =          FALSE

    Exchange Hybrid     =           TRUE
    MP2 Hybrid          =          FALSE

   => Exchange Functionals <=

    0.0800   Slater exchange
    0.7200         Becke 88

   => Exact (HF) Exchange <=

    0.2000               HF 

   => Correlation Functionals <=

    0.1900   Vosko, Wilk & Nusair (VWN5_RPA)
    0.8100   Lee, Yang & Parr

   => Molecular Quadrature <=

    Radial Scheme       =       TREUTLER
    Pruning Scheme      =           FLAT
    Nuclear Scheme      =       TREUTLER

    BS radius alpha     =              1
    Pruning alpha       =              1
    Radial Points       =             75
    Spherical Points    =            302
    Total Points        =         396927
    Total Blocks        =           2988
    Max Points          =            256
    Max Functions       =            149

   => -D3ZERO: Empirical Dispersion <=

    Grimme's -D3 (zero-damping) Dispersion Correction
    Grimme S.; Antony J.; Ehrlich S.; Krieg H. (2010), J. Chem. Phys., 132: 154104

        S6 =   1.000000E+00
        S8 =   1.703000E+00
       SR6 =   1.261000E+00
       SR8 =   1.000000E+00
    ALPHA6 =   1.400000E+01

   => Loading Basis Set <=

    Name: (6-31G* AUX)
    Role: JKFIT
    Keyword: DF_BASIS_SCF
    atoms 1-7         entry C          line   121 file /shared/joao/test_parameterize/miniconda3/share/psi4/basis/cc-pvdz-jkfit.gbs 
    atoms 8-12, 15-18 entry H          line    51 file /shared/joao/test_parameterize/miniconda3/share/psi4/basis/cc-pvdz-jkfit.gbs 
    atoms 13-14       entry N          line   171 file /shared/joao/test_parameterize/miniconda3/share/psi4/basis/cc-pvdz-jkfit.gbs 

  Reading orbitals from file 180, no projection.

  ==> Pre-Iterations <==

   -------------------------------------------------------
    Irrep   Nso     Nmo     Nalpha   Nbeta   Ndocc  Nsocc
   -------------------------------------------------------
     A        153     153       0       0       0       0
   -------------------------------------------------------
    Total     153     153      32      32      32       0
   -------------------------------------------------------

  ==> Integral Setup <==

  ==> DiskDFJK: Density-Fitted J/K Matrices <==

    J tasked:                  Yes
    K tasked:                  Yes
    wK tasked:                  No
    OpenMP threads:              4
    Integrals threads:           4
    Memory (MB):              2002
    Algorithm:                Core
    Integral Cache:           NONE
    Schwarz Cutoff:          1E-12
    Fitting Condition:       1E-12

   => Auxiliary Basis Set <=

  Basis Set: (6-31G* AUX)
    Blend: CC-PVDZ-JKFIT
    Number of shells: 297
    Number of basis function: 954
    Number of Cartesian functions: 954
    Spherical Harmonics?: false
    Max angular momentum: 3

  Minimum eigenvalue in the overlap matrix is 4.8733046111E-04.
  Using Symmetric Orthogonalization.

  SCF Guess: Orbitals guess was supplied from a previous computation.

  ==> Iterations <==

                           Total Energy        Delta E     RMS |[F,P]|

   @DF-RKS iter   0:  -381.46255845530169   -3.81463e+02   1.02492e-03 
   @DF-RKS iter   1:  -381.46983163883186   -7.27318e-03   8.90313e-05 
   @DF-RKS iter   2:  -381.46984035660375   -8.71777e-06   9.09236e-05 DIIS
   @DF-RKS iter   3:  -381.46986274703323   -2.23904e-05   3.72357e-05 DIIS
   @DF-RKS iter   4:  -381.46986692757349   -4.18054e-06   1.32956e-05 DIIS
   @DF-RKS iter   5:  -381.46986744140042   -5.13827e-07   3.38298e-06 DIIS
   @DF-RKS iter   6:  -381.46986747510647   -3.37060e-08   7.94428e-07 DIIS
   @DF-RKS iter   7:  -381.46986747683803   -1.73156e-09   1.54825e-07 DIIS
   @DF-RKS iter   8:  -381.46986747695223   -1.14198e-10   8.94208e-08 DIIS
   @DF-RKS iter   9:  -381.46986747697576   -2.35332e-11   3.07277e-08 DIIS
   @DF-RKS iter  10:  -381.46986747697747   -1.70530e-12   1.01630e-08 DIIS
   @DF-RKS iter  11:  -381.46986747697821   -7.38964e-13   2.03888e-09 DIIS

  ==> Post-Iterations <==

    Orbital Energies [Eh]
    ---------------------

    Doubly Occupied:                                                      

       1A    -14.569010     2A    -14.568242     3A    -10.498114  
       4A    -10.373862     5A    -10.356290     6A    -10.356241  
       7A    -10.342482     8A    -10.340397     9A    -10.340327  
      10A     -1.183801    11A     -1.091945    12A     -1.014277  
      13A     -0.926545    14A     -0.902206    15A     -0.845661  
      16A     -0.786129    17A     -0.773404    18A     -0.741668  
      19A     -0.733243    20A     -0.687194    21A     -0.668952  
      22A     -0.625734    23A     -0.618649    24A     -0.588079  
      25A     -0.578862    26A     -0.573555    27A     -0.518102  
      28A     -0.505641    29A     -0.498153    30A     -0.472387  
      31A     -0.411151    32A     -0.405632  

    Virtual:                                                              

      33A     -0.215512    34A     -0.157710    35A     -0.130464  
      36A     -0.108995    37A     -0.068077    38A     -0.062521  
      39A     -0.038708    40A     -0.035979    41A      0.006630  
      42A      0.020981    43A      0.021792    44A      0.057582  
      45A      0.062322    46A      0.082598    47A      0.125569  
      48A      0.149226    49A      0.157646    50A      0.158404  
      51A      0.201439    52A      0.242079    53A      0.298201  
      54A      0.348587    55A      0.354781    56A      0.380876  
      57A      0.387477    58A      0.397581    59A      0.421280  
      60A      0.422347    61A      0.442529    62A      0.448091  
      63A      0.453073    64A      0.470358    65A      0.471491  
      66A      0.475246    67A      0.485695    68A      0.508362  
      69A      0.525593    70A      0.533373    71A      0.539626  
      72A      0.588849    73A      0.606085    74A      0.654876  
      75A      0.657829    76A      0.681069    77A      0.686915  
      78A      0.704533    79A      0.716478    80A      0.719887  
      81A      0.744459    82A      0.774554    83A      0.776766  
      84A      0.800249    85A      0.812465    86A      0.832975  
      87A      0.848838    88A      0.941064    89A      0.962794  
      90A      0.997093    91A      0.999949    92A      1.027788  
      93A      1.056525    94A      1.072942    95A      1.143998  
      96A      1.173965    97A      1.230026    98A      1.267867  
      99A      1.280498   100A      1.308133   101A      1.321522  
     102A      1.343945   103A      1.363187   104A      1.370069  
     105A      1.432622   106A      1.451464   107A      1.481690  
     108A      1.600934   109A      1.619932   110A      1.655132  
     111A      1.668391   112A      1.735768   113A      1.753719  
     114A      1.793918   115A      1.825694   116A      1.855146  
     117A      1.903464   118A      1.911518   119A      1.957316  
     120A      1.974868   121A      1.997387   122A      2.018805  
     123A      2.040904   124A      2.082497   125A      2.115571  
     126A      2.130438   127A      2.150985   128A      2.209701  
     129A      2.221766   130A      2.258466   131A      2.344126  
     132A      2.367693   133A      2.442235   134A      2.453429  
     135A      2.489653   136A      2.518618   137A      2.549931  
     138A      2.588125   139A      2.605932   140A      2.629352  
     141A      2.737375   142A      2.886059   143A      2.981115  
     144A      3.258609   145A      3.635619   146A      3.657630  
     147A      3.913361   148A      3.948825   149A      3.963577  
     150A      4.056263   151A      4.174103   152A      4.257344  
     153A      4.545661  

    Final Occupation by Irrep:
              A 
    DOCC [    32 ]

  Energy converged.

  @DF-RKS Final Energy:  -381.46986747697821

   => Energetics <=

    Nuclear Repulsion Energy =            416.7845924625268594
    One-Electron Energy =               -1328.7711218655181256
    Two-Electron Energy =                 574.9317277097651413
    DFT Exchange-Correlation Energy =     -44.4031619937520432
    Empirical Dispersion Energy =          -0.0119037900000000
    VV10 Nonlocal Energy =                  0.0000000000000000
    Total Energy =                       -381.4698674769781519



Properties will be evaluated at   0.000000,   0.000000,   0.000000 [a0]

Properties computed using the SCF density matrix

  Nuclear Dipole Moment: [e a0]
     X:     0.2304      Y:    -0.3308      Z:     0.0483

  Electronic Dipole Moment: [e a0]
     X:    -0.2318      Y:     0.3274      Z:    -2.3149

  Dipole Moment: [e a0]
     X:    -0.0014      Y:    -0.0034      Z:    -2.2666     Total:     2.2666

  Dipole Moment: [D]
     X:    -0.0036      Y:    -0.0086      Z:    -5.7610     Total:     5.7610


*** tstop() called on oliva.prib.upf.edu at Sat Sep 29 20:29:43 2018
Module time:
	user time   =      82.72 seconds =       1.38 minutes
	system time =       0.60 seconds =       0.01 minutes
	total time  =         23 seconds =       0.38 minutes
Total time:
	user time   =     211.28 seconds =       3.52 minutes
	system time =       1.67 seconds =       0.03 minutes
	total time  =         59 seconds =       0.98 minutes

*** tstart() called on oliva.prib.upf.edu
*** at Sat Sep 29 20:29:43 2018


         ------------------------------------------------------------
                                   SCF GRAD                          
                          Rob Parrish, Justin Turney,                
                       Andy Simmonett, and Alex Sokolov              
         ------------------------------------------------------------

  ==> Geometry <==

    Molecular point group: c1
    Full point group: C1

    Geometry (in Angstrom), charge = 1, multiplicity = 1:

       Center              X                  Y                   Z               Mass       
    ------------   -----------------  -----------------  -----------------  -----------------
         C            0.014858594694    -0.015947052091    -0.177670531679    12.000000000000
         C            0.047423409184     1.207040162261     0.516976539002    12.000000000000
         C            0.029384310855     1.209525960089     1.908585944919    12.000000000000
         C           -0.004407301732     0.001598118296     2.611325933045    12.000000000000
         C           -0.025796854203    -1.215875208791     1.924151052431    12.000000000000
         C           -0.019922613281    -1.230625764186     0.533018176759    12.000000000000
         C            0.017027474877    -0.016894183822    -1.646463708606    12.000000000000
         H            0.031614707976     2.149071149753    -0.023848073244     1.007825032070
         H            0.033207880117     2.153077228133     2.444599134452     1.007825032070
         H           -0.012548256594     0.008669068357     3.696943158691     1.007825032070
         H           -0.035836481972    -2.152296264316     2.472432724373     1.007825032070
         H            0.011089092010    -2.181703203861     0.007971457766     1.007825032070
         N           -0.740523005380    -0.883784742181    -2.314865462720    14.003074004780
         N            0.712153889560     0.906874489576    -2.304515346444    14.003074004780
         H            0.669143541543     1.017319651542    -3.310873309071     1.007825032070
         H            1.354482561860     1.506782025471    -1.803172065576     1.007825032070
         H           -1.320140441692    -1.544709103279    -1.812585205264     1.007825032070
         H           -0.761900507823    -0.925803330952    -3.329784418834     1.007825032070

  Nuclear repulsion =  416.784592462526859

  ==> Basis Set <==

  Basis Set: 6-31G*
    Blend: 6-31G*
    Number of shells: 72
    Number of basis function: 153
    Number of Cartesian functions: 153
    Spherical Harmonics?: false
    Max angular momentum: 2

  ==> DFJKGrad: Density-Fitted SCF Gradients <==

    Gradient:                    1
    J tasked:                  Yes
    K tasked:                  Yes
    wK tasked:                  No
    OpenMP threads:              4
    Integrals threads:           4
    Memory (MB):              2002
    Schwarz Cutoff:          0E+00
    Fitting Condition:       1E-12

   => Auxiliary Basis Set <=

  Basis Set: (6-31G* AUX)
    Blend: CC-PVDZ-JKFIT
    Number of shells: 297
    Number of basis function: 954
    Number of Cartesian functions: 954
    Spherical Harmonics?: false
    Max angular momentum: 3

  ==> DFT Potential <==

   => Composite Functional: B3LYP-D3ZERO <= 

    B3LYP-d3zero Hyb-GGA Exchange-Correlation Functional

    P. J. Stephens, F. J. Devlin, C. F. Chabalowski, and M. J. Frisch, J. Phys. Chem. 98, 11623 (1994)

    Deriv               =              1
    GGA                 =           TRUE
    Meta                =          FALSE

    Exchange Hybrid     =           TRUE
    MP2 Hybrid          =          FALSE

   => Exchange Functionals <=

    0.0800   Slater exchange
    0.7200         Becke 88

   => Exact (HF) Exchange <=

    0.2000               HF 

   => Correlation Functionals <=

    0.1900   Vosko, Wilk & Nusair (VWN5_RPA)
    0.8100   Lee, Yang & Parr

   => Molecular Quadrature <=

    Radial Scheme       =       TREUTLER
    Pruning Scheme      =           FLAT
    Nuclear Scheme      =       TREUTLER

    BS radius alpha     =              1
    Pruning alpha       =              1
    Radial Points       =             75
    Spherical Points    =            302
    Total Points        =         396927
    Total Blocks        =           2988
    Max Points          =            256
    Max Functions       =            149


  -Total Gradient:
     Atom            X                  Y                   Z
    ------   -----------------  -----------------  -----------------
       1       -0.002867953108     0.002799930185    -0.000355766116
       2        0.000410026106    -0.000081409223    -0.000176266692
       3       -0.000131267971    -0.000065475665     0.000022746797
       4       -0.000004716138     0.000016449005    -0.000046062054
       5       -0.000054523088    -0.000127719011    -0.000100679025
       6       -0.000052097446    -0.000042044078     0.000668168699
       7        0.006849876420    -0.004530199811     0.001054847783
       8        0.000145344122    -0.000094777822    -0.000295729661
       9       -0.000020760554    -0.000009159876     0.000038904356
      10        0.000056181924    -0.000023181903     0.000033754889
      11        0.000001487463    -0.000002349239     0.000045685875
      12        0.000291775885    -0.000180938780     0.000334880286
      13       -0.003780906816     0.001542753066     0.000732807531
      14       -0.000568959307     0.000730284055    -0.000123543088
      15        0.000009839086     0.000009138630    -0.000029229444
      16       -0.000271653540     0.000717080379     0.000295889087
      17        0.000927958829    -0.001921826866     0.000301613032
      18       -0.000943502041     0.001258872721    -0.002425166469


*** tstop() called on oliva.prib.upf.edu at Sat Sep 29 20:29:51 2018
Module time:
	user time   =      28.88 seconds =       0.48 minutes
	system time =       0.24 seconds =       0.00 minutes
	total time  =          8 seconds =       0.13 minutes
Total time:
	user time   =     240.23 seconds =       4.00 minutes
	system time =       1.92 seconds =       0.03 minutes
	total time  =         67 seconds =       1.12 minutes

			-----------------------------------------
			 OPTKING 2.0: for geometry optimizations 
			  - R.A. King,  Bethel University        
			-----------------------------------------
	At level 1: Red. Int., RFO, no backsteps, dynamic trust

	Previous internal coordinate definitions found.
	---Fragment 1 Geometry and Gradient---
	 C           0.0280786747       -0.0301355611       -0.3357486468
	 C           0.0896172556        2.2809753381        0.9769440758
	 C           0.0555283001        2.2856728152        3.6067047370
	 C          -0.0083285933        0.0030200059        4.9346908572
	 C          -0.0487489895       -2.2976711564        3.6361185274
	 C          -0.0376482830       -2.3255456664        1.0072583779
	 C           0.0321772643       -0.0319253807       -3.1113654970
	 H           0.0597431398        4.0611559131       -0.0450663272
	 H           0.0627537989        4.0687263041        4.6196228688
	 H          -0.0237127684        0.0163821650        6.9862100988
	 H          -0.0677211365       -4.0672504964        4.6722207310
	 H           0.0209553470       -4.1228215585        0.0150638721
	 N          -1.3993856753       -1.6701111231       -4.3744617590
	 N           1.3457758157        1.7137444222       -4.3549028738
	 H           1.2644980371        1.9224555310       -6.2566438148
	 H           2.5596010937        2.8474053701       -3.4075013744
	 H          -2.4947038917       -2.9190771602       -3.4252896305
	 H          -1.4397833003       -1.7495147484       -6.2923806331
	            -0.0028679531        0.0027999302       -0.0003557661
	             0.0004100261       -0.0000814092       -0.0001762667
	            -0.0001312680       -0.0000654757        0.0000227468
	            -0.0000047161        0.0000164490       -0.0000460621
	            -0.0000545231       -0.0001277190       -0.0001006790
	            -0.0000520974       -0.0000420441        0.0006681687
	             0.0068498764       -0.0045301998        0.0010548478
	             0.0001453441       -0.0000947778       -0.0002957297
	            -0.0000207606       -0.0000091599        0.0000389044
	             0.0000561819       -0.0000231819        0.0000337549
	             0.0000014875       -0.0000023492        0.0000456859
	             0.0002917759       -0.0001809388        0.0003348803
	            -0.0037809068        0.0015427531        0.0007328075
	            -0.0005689593        0.0007302841       -0.0001235431
	             0.0000098391        0.0000091386       -0.0000292294
	            -0.0002716535        0.0007170804        0.0002958891
	             0.0009279588       -0.0019218269        0.0003016130
	            -0.0009435020        0.0012588727       -0.0024251665

	---Fragment 1 Intrafragment Coordinates---
	 - Coordinate -           - BOHR/RAD -       - ANG/DEG -
	 R(1,2)           =         2.658605	       1.406873
	 R(1,6)           =         2.660243	       1.407740
	 R(1,7)           =         2.775620	       1.468795
	 R(2,3)           =         2.629986	       1.391729
	 R(2,8)           =         2.052910	       1.086353
	 R(3,4)           =         2.641615	       1.397882
	 R(3,9)           =         2.050691	       1.085179
	 R(4,5)           =         2.642178	       1.398180
	 R(4,10)          =         2.051620	       1.085671
	 R(5,6)           =         2.629031	       1.391223
	 R(5,11)          =         2.050678	       1.085172
	 R(6,12)          =         2.053798	       1.086823
	 R(7,13)          =         2.515639	       1.331219
	 R(7,14)          =         2.513820	       1.330256
	 R(13,17)         =         1.913261	       1.012454
	 R(13,18)         =         1.919987	       1.016013
	 R(14,15)         =         1.914885	       1.013314
	 R(14,16)         =         1.912101	       1.011840
	 B(1,2,3)         =         2.088588	     119.667294
	 B(1,2,8)         =         2.103268	     120.508383
	 B(1,6,5)         =         2.089514	     119.720312
	 B(1,6,12)        =         2.106550	     120.696414
	 B(1,7,13)        =         2.096332	     120.110988
	 B(1,7,14)        =         2.088635	     119.669988
	 B(2,1,6)         =         2.095991	     120.091413
	 B(2,1,7)         =         2.087801	     119.622159
	 B(2,3,4)         =         2.096064	     120.095609
	 B(2,3,9)         =         2.089097	     119.696452
	 B(3,2,8)         =         2.089846	     119.739332
	 B(3,4,5)         =         2.101020	     120.379567
	 B(3,4,10)        =         2.091218	     119.817968
	 B(4,3,9)         =         2.097989	     120.205929
	 B(4,5,6)         =         2.095104	     120.040609
	 B(4,5,11)        =         2.098116	     120.213196
	 B(5,4,10)        =         2.090946	     119.802398
	 B(5,6,12)        =         2.085721	     119.503036
	 B(6,1,7)         =         2.099394	     120.286427
	 B(6,5,11)        =         2.089904	     119.742684
	 B(7,13,17)       =         2.096465	     120.118609
	 B(7,13,18)       =         2.141782	     122.715068
	 B(7,14,15)       =         2.146939	     123.010566
	 B(7,14,16)       =         2.092477	     119.890081
	 B(13,7,14)       =         2.095782	     120.079460
	 B(15,14,16)      =         2.042494	     117.026290
	 B(17,13,18)      =         2.044882	     117.163089
	 D(1,2,3,4)       =         0.013601	       0.779272
	 D(1,2,3,9)       =        -3.119010	    -178.706134
	 D(1,6,5,4)       =         0.005927	       0.339591
	 D(1,6,5,11)      =        -3.123793	    -178.980174
	*D(1,7,13,17)     =        -0.000000	      -0.000000
	 D(1,7,13,18)     =        -3.129855	    -179.327454
	 D(1,7,14,15)     =        -3.020913	    -173.085569
	 D(1,7,14,16)     =         0.176578	      10.117200
	 D(2,1,6,5)       =         0.003194	       0.183001
	 D(2,1,6,12)      =        -3.081269	    -176.543689
	 D(2,1,7,13)      =        -2.449981	    -140.373559
	 D(2,1,7,14)      =         0.616730	      35.336040
	 D(2,3,4,5)       =        -0.004534	      -0.259798
	 D(2,3,4,10)      =         3.135408	     179.645666
	 D(3,2,1,6)       =        -0.012966	      -0.742923
	 D(3,2,1,7)       =         3.128343	     179.240873
	 D(3,4,5,6)       =        -0.005330	      -0.305374
	 D(3,4,5,11)      =         3.124334	     179.011161
	 D(4,3,2,8)       =         3.096993	     177.444625
	 D(4,5,6,12)      =         3.091076	     177.105608
	 D(5,4,3,9)       =         3.128031	     179.222963
	 D(5,6,1,7)       =        -3.138114	    -179.800687
	 D(6,1,2,8)       =        -3.095903	    -177.382173
	 D(6,1,7,13)      =         0.691328	      39.610205
	 D(6,1,7,14)      =        -2.525146	    -144.680196
	 D(6,5,4,10)      =         3.137913	     179.789147
	 D(7,1,2,8)       =         0.045407	       2.601623
	 D(7,1,6,12)      =         0.060609	       3.472623
	 D(8,2,3,9)       =        -0.035618	      -2.040781
	 D(9,3,4,10)      =        -0.015212	      -0.871572
	 D(10,4,5,11)     =        -0.015609	      -0.894318
	 D(11,5,6,12)     =        -0.038644	      -2.214157
	 D(13,7,14,15)    =         0.045822	       2.625400
	 D(13,7,14,16)    =        -3.039872	    -174.171831
	 D(14,7,13,17)    =        -3.066411	    -175.692436
	 D(14,7,13,18)    =         0.086928	       4.980630

	Current energy   :      -381.4698674770

	Energy change for the previous step:
		Projected    :        -0.0009926237
		Actual       :        -0.0005573547

	Performing BFGS update.
	Previous computed or guess Hessian on step 1.
	Steps to be used in Hessian update: 1
	Taking RFO optimization step.
	Going to follow RFO solution 1.
	Using RFO vector 1.
	Norm of target step-size    0.16461
	Projected energy change by RFO approximation:        -0.0004901657

	Back-transformation to cartesian coordinates...
	Could not converge backtransformation.
	Using first guess instead.

	Back-transformation to cartesian coordinates to adjust frozen coordinates...
	Successfully converged to displaced geometry.

	--- Internal Coordinate Step in ANG or DEG, aJ/ANG or AJ/DEG ---
	 ---------------------------------------------------------------------------
	   Coordinate                Previous        Force       Change         New 
	   ----------                --------       ------       ------       ------
	    1 R(1,2)          =      1.406873     0.002944     0.000164     1.407037
	    2 R(1,6)          =      1.407740    -0.006663    -0.000736     1.407005
	    3 R(1,7)          =      1.468795    -0.001553     0.000555     1.469350
	    4 R(2,3)          =      1.391729    -0.000726     0.000140     1.391869
	    5 R(2,8)          =      1.086353    -0.000514    -0.000028     1.086326
	    6 R(3,4)          =      1.397882     0.000236    -0.000067     1.397815
	    7 R(3,9)          =      1.085179    -0.000098     0.000019     1.085198
	    8 R(4,5)          =      1.398180     0.000499     0.000054     1.398234
	    9 R(4,10)         =      1.085671    -0.000284    -0.000007     1.085664
	   10 R(5,6)          =      1.391223     0.000711     0.000090     1.391314
	   11 R(5,11)         =      1.085172    -0.000211     0.000007     1.085179
	   12 R(6,12)         =      1.086823    -0.000034     0.000201     1.087024
	   13 R(7,13)         =      1.331219    -0.018807    -0.001461     1.329757
	   14 R(7,14)         =      1.330256    -0.004167    -0.000001     1.330255
	   15 R(13,17)        =      1.012454    -0.007193    -0.000544     1.011910
	   16 R(13,18)        =      1.016013    -0.019683     0.002571     1.018584
	   17 R(14,15)        =      1.013314    -0.000233     0.000139     1.013452
	   18 R(14,16)        =      1.011840    -0.003299    -0.000174     1.011666
	   19 B(1,2,3)        =    119.667294    -0.000012    -0.027645   119.639649
	   20 B(1,2,8)        =    120.508383     0.000030     0.109893   120.618276
	   21 B(1,6,5)        =    119.720312    -0.000003     0.012507   119.732819
	   22 B(1,6,12)       =    120.696414    -0.000028    -0.041684   120.654730
	   23 B(1,7,13)       =    120.110988    -0.000129    -0.215602   119.895385
	   24 B(1,7,14)       =    119.669988     0.000110     0.224954   119.894942
	   25 B(2,1,6)        =    120.091413     0.000019     0.019673   120.111085
	   26 B(2,1,7)        =    119.622159     0.000109     0.174415   119.796573
	   27 B(2,3,4)        =    120.095609    -0.000003     0.016268   120.111877
	   28 B(2,3,9)        =    119.696452    -0.000002    -0.026517   119.669935
	   29 B(3,2,8)        =    119.739332    -0.000017    -0.084644   119.654688
	   30 B(3,4,5)        =    120.379567    -0.000001    -0.014424   120.365142
	   31 B(3,4,10)       =    119.817968    -0.000001     0.003247   119.821215
	   32 B(4,3,9)        =    120.205929     0.000005     0.009381   120.215310
	   33 B(4,5,6)        =    120.040609     0.000000    -0.004452   120.036157
	   34 B(4,5,11)       =    120.213196     0.000003     0.013045   120.226241
	   35 B(5,4,10)       =    119.802398     0.000002     0.011199   119.813596
	   36 B(5,6,12)       =    119.503036     0.000031     0.037849   119.540886
	   37 B(6,1,7)        =    120.286427    -0.000127    -0.196537   120.089890
	   38 B(6,5,11)       =    119.742684    -0.000003    -0.007675   119.735009
	   39 B(7,13,17)      =    120.118609    -0.000036    -0.114513   120.004096
	   40 B(7,13,18)      =    122.715068     0.000048     0.009044   122.724112
	   41 B(7,14,15)      =    123.010566    -0.000001     0.030492   123.041058
	   42 B(7,14,16)      =    119.890081    -0.000001    -0.011532   119.878548
	   43 B(13,7,14)      =    120.079460     0.000026     0.103843   120.183303
	   44 B(15,14,16)     =    117.026290     0.000000    -0.065482   116.960809
	   45 B(17,13,18)     =    117.163089    -0.000014    -0.298850   116.864239
	   46 D(1,2,3,4)      =      0.779272    -0.000002    -0.160179     0.619093
	   47 D(1,2,3,9)      =   -178.706134    -0.000001    -0.059020  -178.765154
	   48 D(1,6,5,4)      =      0.339591     0.000001     0.078878     0.418469
	   49 D(1,6,5,11)     =   -178.980174    -0.000000    -0.016942  -178.997116
	   50 *D(1,7,13,17)   =      0.000000     0.000000     0.000000     0.000000
	   51 D(1,7,13,18)    =   -179.327454     0.000035     6.887607  -172.439848
	   52 D(1,7,14,15)    =   -173.085569    -0.000012    -1.753669  -174.839239
	   53 D(1,7,14,16)    =     10.117200    -0.000002    -0.857383     9.259817
	   54 D(2,1,6,5)      =      0.183001    -0.000002    -0.285977    -0.102976
	   55 D(2,1,6,12)     =   -176.543689    -0.000004    -0.468975  -177.012665
	   56 D(2,1,7,13)     =   -140.373559    -0.000010    -0.315758  -140.689317
	   57 D(2,1,7,14)     =     35.336040     0.000015     2.110459    37.446499
	   58 D(2,3,4,5)      =     -0.259798    -0.000000    -0.046818    -0.306616
	   59 D(2,3,4,10)     =    179.645666     0.000001     0.126069   179.771736
	   60 D(3,2,1,6)      =     -0.742923     0.000003     0.326620    -0.416303
	   61 D(3,2,1,7)      =    179.240873    -0.000000    -0.226172   179.014701
	   62 D(3,4,5,6)      =     -0.305374     0.000001     0.087820    -0.217554
	   63 D(3,4,5,11)     =    179.011161     0.000001     0.183973   179.195134
	   64 D(4,3,2,8)      =    177.444625    -0.000001    -0.203044   177.241581
	   65 D(4,5,6,12)     =    177.105608     0.000002     0.257211   177.362819
	   66 D(5,4,3,9)      =    179.222963    -0.000001    -0.148718   179.074245
	   67 D(5,6,1,7)      =   -179.800687     0.000001     0.268387  -179.532299
	   68 D(6,1,2,8)      =   -177.382173     0.000003     0.376560  -177.005614
	   69 D(6,1,7,13)     =     39.610205    -0.000013    -0.868397    38.741809
	   70 D(6,1,7,14)     =   -144.680196     0.000012     1.557821  -143.122376
	   71 D(6,5,4,10)     =    179.789147    -0.000001    -0.085047   179.704101
	   72 D(7,1,2,8)      =      2.601623    -0.000000    -0.176233     2.425390
	   73 D(7,1,6,12)     =      3.472623    -0.000001     0.085389     3.558012
	   74 D(8,2,3,9)      =     -2.040781    -0.000000    -0.101886    -2.142666
	   75 D(9,3,4,10)     =     -0.871572     0.000000     0.024169    -0.847403
	   76 D(10,4,5,11)    =     -0.894318     0.000000     0.011106    -0.883212
	   77 D(11,5,6,12)    =     -2.214157     0.000001     0.161390    -2.052767
	   78 D(13,7,14,15)   =      2.625400     0.000012     0.665751     3.291150
	   79 D(13,7,14,16)   =   -174.171831     0.000022     1.562037  -172.609794
	   80 D(14,7,13,17)   =   -175.692436    -0.000026    -2.438536  -178.130972
	   81 D(14,7,13,18)   =      4.980630     0.000009     4.449142     9.429772
	 ---------------------------------------------------------------------------
	Successfully symmetrized geometry.

  ==> Convergence Check <==

  Measures of convergence in internal coordinates in au.
  Criteria marked as inactive (o), active & met (*), and active & unmet ( ).
  ---------------------------------------------------------------------------------------------
   Step     Total Energy     Delta E     MAX Force     RMS Force      MAX Disp      RMS Disp   
  ---------------------------------------------------------------------------------------------
    Convergence Criteria    1.00e-06 *    3.00e-04 *             o    1.20e-03 *             o
  ---------------------------------------------------------------------------------------------
      2    -381.46986748   -5.57e-04      2.39e-03      6.64e-04 o    1.20e-01      1.83e-02 o  ~
  ---------------------------------------------------------------------------------------------

	Writing optimization data to binary file.
	Structure for next step:
	Cartesian Geometry (in Angstrom)
	    C     0.0075643224  -0.0009525102  -0.1777391612
	    C     0.0395535265   1.2174374398   0.5252945499
	    C     0.0297442497   1.2095111525   1.9171059663
	    C     0.0013847535  -0.0034115119   2.6112973484
	    C    -0.0237767414  -1.2157900597   1.9151906303
	    C    -0.0252579852  -1.2200951588   0.5238844450
	    C    -0.0041215920   0.0039607753  -1.6470343388
	    H     0.0161805852   2.1641353297  -0.0069839206
	    H     0.0340871215   2.1493204790   2.4596867609
	    H    -0.0024080987  -0.0041640813   3.6969544180
	    H    -0.0326005496  -2.1563650570   2.4563504442
	    H    -0.0013798066  -2.1671480788  -0.0091644661
	    N    -0.7588422324  -0.8697795616  -2.3067529574
	    N     0.7114375252   0.9063916115  -2.3127465835
	    H     0.6796034154   1.0022862991  -3.3211494032
	    H     1.3683872365   1.4943772730  -1.8166042648
	    H    -1.3239328900  -1.5366858191  -1.7969781550
	    H    -0.7163128401  -0.9807095216  -3.3183853124
			--------------------------
			 OPTKING Finished Execution 
			--------------------------

    Structure for next step:
    Molecular point group: c1
    Full point group: C1

    Geometry (in Angstrom), charge = 1, multiplicity = 1:

    C            0.007564322442    -0.000952510225    -0.177739161225
    C            0.039553526501     1.217437439835     0.525294549898
    C            0.029744249721     1.209511152529     1.917105966261
    C            0.001384753544    -0.003411511884     2.611297348386
    C           -0.023776741355    -1.215790059719     1.915190630310
    C           -0.025257985171    -1.220095158771     0.523884445025
    C           -0.004121592047     0.003960775280    -1.647034338753
    H            0.016180585194     2.164135329699    -0.006983920647
    H            0.034087121475     2.149320479035     2.459686760864
    H           -0.002408098708    -0.004164081261     3.696954417995
    H           -0.032600549638    -2.156365056977     2.456350444164
    H           -0.001379806612    -2.167148078831    -0.009164466056
    N           -0.758842232376    -0.869779561627    -2.306752957358
    N            0.711437525239     0.906391611542    -2.312746583479
    H            0.679603415433     1.002286299092    -3.321149403177
    H            1.368387236472     1.494377273001    -1.816604264813
    H           -1.323932889979    -1.536685819103    -1.796978154969
    H           -0.716312840136    -0.980709521616    -3.318385312425

gradient() will perform analytic gradient computation.

*** tstart() called on oliva.prib.upf.edu
*** at Sat Sep 29 20:29:51 2018

   => Loading Basis Set <=

    Name: 6-31G*
    Role: ORBITAL
    Keyword: BASIS
    atoms 1-7         entry C          line   111 file /shared/joao/test_parameterize/miniconda3/share/psi4/basis/6-31gs.gbs 
    atoms 8-12, 15-18 entry H          line    44 file /shared/joao/test_parameterize/miniconda3/share/psi4/basis/6-31gs.gbs 
    atoms 13-14       entry N          line   128 file /shared/joao/test_parameterize/miniconda3/share/psi4/basis/6-31gs.gbs 


         ---------------------------------------------------------
                                   SCF
            by Justin Turney, Rob Parrish, Andy Simmonett
                             and Daniel Smith
                              RKS Reference
                        4 Threads,   2861 MiB Core
         ---------------------------------------------------------

  ==> Geometry <==

    Molecular point group: c1
    Full point group: C1

    Geometry (in Angstrom), charge = 1, multiplicity = 1:

       Center              X                  Y                   Z               Mass       
[...]
	            -0.0000048066        0.0000141027        0.0000237012
	             0.0000151630       -0.0000158830       -0.0000285445
	             0.0026594465       -0.0022854003       -0.0000786481
	            -0.0000007019       -0.0000007093       -0.0000070874
	            -0.0000014912        0.0000008052       -0.0000055092
	             0.0000021883       -0.0000041038       -0.0000014755
	             0.0000009648       -0.0000015101       -0.0000001568
	            -0.0000117773        0.0000026095       -0.0000027038
	            -0.0032133306        0.0027696931        0.0000103492
	            -0.0000223731        0.0000054694        0.0000267014
	             0.0000070307       -0.0000011480       -0.0000047742
	             0.0000095398        0.0000009984        0.0000040069
	             0.0018257955       -0.0015785573        0.0000069813
	            -0.0000076339       -0.0000088207       -0.0000035748

	---Fragment 1 Intrafragment Coordinates---
	 - Coordinate -           - BOHR/RAD -       - ANG/DEG -
	 R(1,2)           =         2.658995	       1.407079
	 R(1,6)           =         2.659137	       1.407155
	 R(1,7)           =         2.774492	       1.468198
	 R(2,3)           =         2.629665	       1.391559
	 R(2,8)           =         2.052886	       1.086341
	 R(3,4)           =         2.642035	       1.398105
	 R(3,9)           =         2.050644	       1.085154
	 R(4,5)           =         2.642207	       1.398196
	 R(4,10)          =         2.051545	       1.085631
	 R(5,6)           =         2.629316	       1.391374
	 R(5,11)          =         2.050619	       1.085141
	 R(6,12)          =         2.053577	       1.086706
	 R(7,13)          =         2.512518	       1.329567
	 R(7,14)          =         2.512985	       1.329814
	 R(13,17)         =         1.911654	       1.011604
	 R(13,18)         =         1.915193	       1.013476
	 R(14,15)         =         1.914939	       1.013342
	 R(14,16)         =         1.911429	       1.011485
	 B(1,2,3)         =         2.088016	     119.634479
	 B(1,2,8)         =         2.103793	     120.538487
	 B(1,6,5)         =         2.088951	     119.688060
	 B(1,6,12)        =         2.105193	     120.618697
	 B(1,7,13)        =         2.093909	     119.972166
	 B(1,7,14)        =         2.091590	     119.839279
	 B(2,1,6)         =         2.097174	     120.159205
	 B(2,1,7)         =         2.091871	     119.855379
	 B(2,3,4)         =         2.095776	     120.079098
	 B(2,3,9)         =         2.089190	     119.701793
	 B(3,2,8)         =         2.090045	     119.750764
	 B(3,4,5)         =         2.101476	     120.405679
	 B(3,4,10)        =         2.090946	     119.802363
	 B(4,3,9)         =         2.098171	     120.216359
	 B(4,5,6)         =         2.094927	     120.030496
	 B(4,5,11)        =         2.098339	     120.225981
	 B(5,4,10)        =         2.090764	     119.791957
	 B(5,6,12)        =         2.087774	     119.620613
	 B(6,1,7)         =         2.094140	     119.985375
	 B(6,5,11)        =         2.089870	     119.740720
	 B(7,13,17)       =         2.092241	     119.876587
	 B(7,13,18)       =         2.143369	     122.805975
	 B(7,14,15)       =         2.145970	     122.955006
	 B(7,14,16)       =         2.091961	     119.860553
	 B(13,7,14)       =         2.097001	     120.149286
	 B(15,14,16)      =         2.043660	     117.093079
	 B(17,13,18)      =         2.040476	     116.910662
	 D(1,2,3,4)       =         0.009801	       0.561583
	 D(1,2,3,9)       =        -3.121287	    -178.836551
	 D(1,6,5,4)       =         0.007702	       0.441276
	 D(1,6,5,11)      =        -3.123288	    -178.951231
	*D(1,7,13,17)     =        -0.000000	      -0.000000
	 D(1,7,13,18)     =        -3.009820	    -172.449981
	 D(1,7,14,15)     =        -3.025380	    -173.341487
	 D(1,7,14,16)     =         0.178673	      10.237219
	 D(2,1,6,5)       =        -0.002263	      -0.129644
	 D(2,1,6,12)      =        -3.089563	    -177.018929
	 D(2,1,7,13)      =        -2.460681	    -140.986642
	 D(2,1,7,14)      =         0.641196	      36.737850
	 D(2,3,4,5)       =        -0.004408	      -0.252581
	 D(2,3,4,10)      =         3.137291	     179.753506
	 D(3,2,1,6)       =        -0.006502	      -0.372526
	 D(3,2,1,7)       =         3.133802	     179.553642
	 D(3,4,5,6)       =        -0.004437	      -0.254245
	 D(3,4,5,11)      =         3.126501	     179.135285
	 D(4,3,2,8)       =         3.096274	     177.403455
	 D(4,5,6,12)      =         3.095549	     177.361871
	 D(5,4,3,9)       =         3.126625	     179.142428
	 D(5,6,1,7)       =         3.140620	     179.944284
	 D(6,1,2,8)       =        -3.092532	    -177.189057
	 D(6,1,7,13)      =         0.679625	      38.939656
	 D(6,1,7,14)      =        -2.501683	    -143.335852
	 D(6,5,4,10)      =         3.137049	     179.739668
	 D(7,1,2,8)       =         0.047772	       2.737112
	 D(7,1,6,12)      =         0.053320	       3.054999
	 D(8,2,3,9)       =        -0.034814	      -1.994679
	 D(9,3,4,10)      =        -0.014861	      -0.851484
	 D(10,4,5,11)     =        -0.015198	      -0.870802
	 D(11,5,6,12)     =        -0.035441	      -2.030636
	 D(13,7,14,15)    =         0.076427	       4.378928
	 D(13,7,14,16)    =        -3.002706	    -172.042366
	 D(14,7,13,17)    =        -3.101763	    -177.717939
	 D(14,7,13,18)    =         0.171612	       9.832649

	Current energy   :      -381.4701305940

	Energy change for the previous step:
		Projected    :         0.0000008839
		Actual       :        -0.0000004241

	Performing BFGS update.
	Previous computed or guess Hessian on step 1.
	Steps to be used in Hessian update: 5 4
	Taking RFO optimization step.
	Going to follow RFO solution 1.
	Rejecting RFO root 1 because normalization gives large value.
	Using RFO vector 2.
	Norm of target step-size    0.00103
	Projected energy change by RFO approximation:        -0.0000000272

	Back-transformation to cartesian coordinates...
	Successfully converged to displaced geometry.

	Back-transformation to cartesian coordinates to adjust frozen coordinates...
	Successfully converged to displaced geometry.

	--- Internal Coordinate Step in ANG or DEG, aJ/ANG or AJ/DEG ---
	 ---------------------------------------------------------------------------
	   Coordinate                Previous        Force       Change         New 
	   ----------                --------       ------       ------       ------
	    1 R(1,2)          =      1.407079     0.000244     0.000038     1.407117
	    2 R(1,6)          =      1.407155    -0.000011    -0.000001     1.407153
	    3 R(1,7)          =      1.468198    -0.000222    -0.000054     1.468144
	    4 R(2,3)          =      1.391559    -0.000090    -0.000014     1.391544
	    5 R(2,8)          =      1.086341    -0.000020    -0.000004     1.086337
	    6 R(3,4)          =      1.398105    -0.000085    -0.000011     1.398094
	    7 R(3,9)          =      1.085154     0.000013     0.000002     1.085156
	    8 R(4,5)          =      1.398196     0.000102     0.000016     1.398211
	    9 R(4,10)         =      1.085631     0.000004     0.000001     1.085632
	   10 R(5,6)          =      1.391374    -0.000131    -0.000019     1.391355
	   11 R(5,11)         =      1.085141    -0.000014    -0.000003     1.085139
	   12 R(6,12)         =      1.086706     0.000014     0.000004     1.086710
	   13 R(7,13)         =      1.329567    -0.000009     0.000003     1.329570
	   14 R(7,14)         =      1.329814     0.000101     0.000019     1.329834
	   15 R(13,17)        =      1.011604    -0.000141    -0.000017     1.011587
	   16 R(13,18)        =      1.013476    -0.000027     0.000013     1.013489
	   17 R(14,15)        =      1.013342    -0.000026    -0.000004     1.013338
	   18 R(14,16)        =      1.011485    -0.000082    -0.000011     1.011473
	   19 B(1,2,3)        =    119.634479     0.000001     0.002601   119.637080
	   20 B(1,2,8)        =    120.538487     0.000000     0.000199   120.538686
	   21 B(1,6,5)        =    119.688060     0.000001     0.001379   119.689440
	   22 B(1,6,12)       =    120.618697    -0.000000    -0.000603   120.618094
	   23 B(1,7,13)       =    119.972166     0.000001     0.003401   119.975567
	   24 B(1,7,14)       =    119.839279     0.000002     0.007354   119.846633
	   25 B(2,1,6)        =    120.159205    -0.000001    -0.003371   120.155834
	   26 B(2,1,7)        =    119.855379    -0.000000    -0.000993   119.854386
	   27 B(2,3,4)        =    120.079098    -0.000000    -0.001158   120.077940
	   28 B(2,3,9)        =    119.701793     0.000000     0.002243   119.704036
	   29 B(3,2,8)        =    119.750764    -0.000001    -0.002315   119.748450
	   30 B(3,4,5)        =    120.405679     0.000000     0.000057   120.405737
	   31 B(3,4,10)       =    119.802363    -0.000000    -0.001801   119.800562
	   32 B(4,3,9)        =    120.216359    -0.000000    -0.001119   120.215240
	   33 B(4,5,6)        =    120.030496     0.000000     0.000533   120.031029
	   34 B(4,5,11)       =    120.225981    -0.000000    -0.000447   120.225534
	   35 B(5,4,10)       =    119.791957     0.000000     0.001744   119.793701
	   36 B(5,6,12)       =    119.620613    -0.000001    -0.001734   119.618879
	   37 B(6,1,7)        =    119.985375     0.000002     0.004366   119.989740
	   38 B(6,5,11)       =    119.740720    -0.000000    -0.000087   119.740633
	   39 B(7,13,17)      =    119.876587     0.000001     0.005880   119.882467
	   40 B(7,13,18)      =    122.805975    -0.000001    -0.007884   122.798091
	   41 B(7,14,15)      =    122.955006    -0.000001    -0.002212   122.952794
	   42 B(7,14,16)      =    119.860553     0.000000     0.002313   119.862866
	   43 B(13,7,14)      =    120.149286    -0.000004    -0.010804   120.138482
	   44 B(15,14,16)     =    117.093079     0.000000     0.001547   117.094626
	   45 B(17,13,18)     =    116.910662     0.000000     0.001535   116.912198
	   46 D(1,2,3,4)      =      0.561583    -0.000000    -0.010267     0.551316
	   47 D(1,2,3,9)      =   -178.836551    -0.000000    -0.006570  -178.843121
	   48 D(1,6,5,4)      =      0.441276     0.000000     0.004361     0.445637
	   49 D(1,6,5,11)     =   -178.951231     0.000000     0.004527  -178.946704
	   50 *D(1,7,13,17)   =      0.000000    -0.000000     0.000000     0.000000
	   51 D(1,7,13,18)    =   -172.449981     0.000000     0.004182  -172.445799
	   52 D(1,7,14,15)    =   -173.341487     0.000000     0.020203  -173.321284
	   53 D(1,7,14,16)    =     10.237219    -0.000000    -0.012256    10.224963
	   54 D(2,1,6,5)      =     -0.129644     0.000000    -0.003299    -0.132943
	   55 D(2,1,6,12)     =   -177.018929     0.000000     0.017172  -177.001757
	   56 D(2,1,7,13)     =   -140.986642     0.000000     0.004915  -140.981726
	   57 D(2,1,7,14)     =     36.737850     0.000000     0.003232    36.741082
	   58 D(2,3,4,5)      =     -0.252581     0.000000     0.011431    -0.241150
	   59 D(2,3,4,10)     =    179.753506     0.000000     0.005484   179.758991
	   60 D(3,2,1,6)      =     -0.372526     0.000000     0.006245    -0.366281
	   61 D(3,2,1,7)      =    179.553642     0.000000     0.007733   179.561375
	   62 D(3,4,5,6)      =     -0.254245    -0.000000    -0.008434    -0.262680
	   63 D(3,4,5,11)     =    179.135285    -0.000000    -0.008598   179.126687
	   64 D(4,3,2,8)      =    177.403455    -0.000000    -0.000197   177.403258
	   65 D(4,5,6,12)     =    177.361871    -0.000000    -0.015869   177.346001
	   66 D(5,4,3,9)      =    179.142428     0.000000     0.007735   179.150164
	   67 D(5,6,1,7)      =    179.944284    -0.000000    -0.004785   179.939500
	   68 D(6,1,2,8)      =   -177.189057    -0.000000    -0.003826  -177.192883
	   69 D(6,1,7,13)     =     38.939656     0.000000     0.006395    38.946051
	   70 D(6,1,7,14)     =   -143.335852     0.000000     0.004711  -143.331141
	   71 D(6,5,4,10)     =    179.739668    -0.000000    -0.002488   179.737180
	   72 D(7,1,2,8)      =      2.737112     0.000000    -0.002338     2.734773
	   73 D(7,1,6,12)     =      3.054999     0.000000     0.015686     3.070686
	   74 D(8,2,3,9)      =     -1.994679     0.000000     0.003500    -1.991178
	   75 D(9,3,4,10)     =     -0.851484     0.000000     0.001788    -0.849696
	   76 D(10,4,5,11)    =     -0.870802    -0.000000    -0.002652    -0.873454
	   77 D(11,5,6,12)    =     -2.030636    -0.000000    -0.015704    -2.046339
	   78 D(13,7,14,15)   =      4.378928     0.000000     0.018844     4.397772
	   79 D(13,7,14,16)   =   -172.042366    -0.000000    -0.013615  -172.055981
	   80 D(14,7,13,17)   =   -177.717939    -0.000000     0.001270  -177.716669
	   81 D(14,7,13,18)   =      9.832649    -0.000000     0.005452     9.838101
	 ---------------------------------------------------------------------------
	Successfully symmetrized geometry.

  ==> Convergence Check <==

  Measures of convergence in internal coordinates in au.
  Criteria marked as inactive (o), active & met (*), and active & unmet ( ).
  ---------------------------------------------------------------------------------------------
   Step     Total Energy     Delta E     MAX Force     RMS Force      MAX Disp      RMS Disp   
  ---------------------------------------------------------------------------------------------
    Convergence Criteria    1.00e-06 *    3.00e-04 *             o    1.20e-03 *             o
  ---------------------------------------------------------------------------------------------
      6    -381.47013059   -4.24e-07 *    4.79e-05 *    1.02e-05 o    3.53e-04 *    1.14e-04 o  ~
  ---------------------------------------------------------------------------------------------


  **** Optimization is complete! (in 6 steps) ****

  ==> Optimization Summary <==

  Measures of convergence in internal coordinates in au.
  --------------------------------------------------------------------------------------------------------------- ~
   Step         Total Energy             Delta E       MAX Force       RMS Force        MAX Disp        RMS Disp  ~
  --------------------------------------------------------------------------------------------------------------- ~
      1    -381.469310122265   -381.469310122265      0.00354910      0.00067484      0.16534486      0.02733791  ~
      2    -381.469867476978     -0.000557354714      0.00238912      0.00066391      0.12021141      0.01829669  ~
      3    -381.470087907793     -0.000220430815      0.00438101      0.00052534      0.01777653      0.00413257  ~
      4    -381.470128332933     -0.000040425140      0.00026743      0.00006785      0.00640917      0.00150168  ~
      5    -381.470130169901     -0.000001836968      0.00021335      0.00003674      0.00211061      0.00059487  ~
      6    -381.470130593990     -0.000000424089      0.00004788      0.00001019      0.00035261      0.00011393  ~
  --------------------------------------------------------------------------------------------------------------- ~

	Writing optimization data to binary file.
	Final energy is   -381.4701305939900
	Final (previous) structure:
	Cartesian Geometry (in Angstrom)
	    C     0.0019125906  -0.0012762288  -0.1780683437
	    C     0.0371313279   1.2176163496   0.5240234463
	    C     0.0315750980   1.2105551780   1.9155532506
	    C     0.0030445421  -0.0025387594   2.6100214671
	    C    -0.0253995962  -1.2153778162   1.9149213320
	    C    -0.0307881861  -1.2205886028   0.5235671602
	    C    -0.0023167341   0.0008051801  -1.6462586253
	    H     0.0166063371   2.1632198194  -0.0103440891
	    H     0.0395766978   2.1503421795   2.4580438203
	    H     0.0028731979  -0.0028958718   3.6956521206
	    H    -0.0333566255  -2.1555069512   2.4567931826
	    H    -0.0094584049  -2.1669961370  -0.0100884498
	    N    -0.7533421268  -0.8731165301  -2.3095617981
	    N     0.7106481229   0.9070345571  -2.3087050868
	    H     0.6662736275   1.0150286948  -3.3152985271
	    H     1.3713473847   1.4896432373  -1.8115686677
	    H    -1.3208049535  -1.5382808676  -1.8007547505
	    H    -0.7062122994  -0.9853484310  -3.3157014416
	Saving final (previous) structure.
	Removing binary optimization data file.
			--------------------------
			 OPTKING Finished Execution 
			--------------------------

    Final optimized geometry and variables:
    Molecular point group: c1
    Full point group: C1

    Geometry (in Angstrom), charge = 1, multiplicity = 1:

    C            0.001912590587    -0.001276228838    -0.178068343743
    C            0.037131327853     1.217616349633     0.524023446317
    C            0.031575098037     1.210555178005     1.915553250587
    C            0.003044542061    -0.002538759377     2.610021467145
    C           -0.025399596182    -1.215377816236     1.914921332007
    C           -0.030788186069    -1.220588602804     0.523567160164
    C           -0.002316734133     0.000805180050    -1.646258625299
    H            0.016606337056     2.163219819446    -0.010344089051
    H            0.039576697815     2.150342179520     2.458043820259
    H            0.002873197902    -0.002895871780     3.695652120559
    H           -0.033356625471    -2.155506951158     2.456793182607
    H           -0.009458404893    -2.166996137017    -0.010088449751
    N           -0.753342126815    -0.873116530149    -2.309561798127
    N            0.710648122933     0.907034557104    -2.308705086792
    H            0.666273627498     1.015028694826    -3.315298527084
    H            1.371347384724     1.489643237311    -1.811568667682
    H           -1.320804953503    -1.538280867559    -1.800754750537
    H           -0.706212299401    -0.985348430977    -3.315701441579

	Removing binary optimization data file.
	Cleaning optimization helper files.


Properties will be evaluated at   0.000000,   0.000000,   0.000000 [a0]
OEProp: No title given, name of density matrix used for the following properties is 'SCF density'
  Nuclear Dipole Moment: [e a0]
     X:    -0.3422      Y:     0.2680      Z:     0.0027

  Electronic Dipole Moment: [e a0]
     X:     0.3916      Y:    -0.3073      Z:    -2.2552

  Dipole Moment: [e a0]
     X:     0.0495      Y:    -0.0393      Z:    -2.2525     Total:     2.2534

  Dipole Moment: [D]
     X:     0.1257      Y:    -0.0998      Z:    -5.7252     Total:     5.7275

  Quadrupole Moment: [D A]
    XX:   -49.8874     YY:   -37.5213     ZZ:   -13.3124
    XY:     6.3971     XZ:    -0.1878     YZ:     0.1371

  Traceless Quadrupole Moment: [D A]
    XX:   -16.3137     YY:    -3.9476     ZZ:    20.2613
    XY:     6.3971     XZ:    -0.1878     YZ:     0.1371

  Mulliken Charges: (a.u.)
   Center  Symbol    Alpha    Beta     Spin     Total
       1     C     2.95486  2.95486  0.00000  0.09028
       2     C     3.08163  3.08163  0.00000 -0.16327
       3     C     3.06243  3.06243  0.00000 -0.12485
       4     C     3.05159  3.05159  0.00000 -0.10317
       5     C     3.06241  3.06241  0.00000 -0.12482
       6     C     3.08351  3.08351  0.00000 -0.16703
       7     C     2.72339  2.72339  0.00000  0.55322
       8     H     0.41413  0.41413  0.00000  0.17174
       9     H     0.40539  0.40539  0.00000  0.18923
      10     H     0.40391  0.40391  0.00000  0.19219
      11     H     0.40546  0.40546  0.00000  0.18909
      12     H     0.41542  0.41542  0.00000  0.16917
      13     N     3.86142  3.86142  0.00000 -0.72284
      14     N     3.86390  3.86390  0.00000 -0.72779
      15     H     0.30554  0.30554  0.00000  0.38892
      16     H     0.29955  0.29955  0.00000  0.40091
      17     H     0.29964  0.29964  0.00000  0.40073
      18     H     0.30585  0.30585  0.00000  0.38831

   Total alpha = 32.00000, Total beta = 32.00000, Total charge =  1.00000


    Psi4 stopped on: Saturday, 29 September 2018 08:31PM
    Psi4 wall time for execution: 0:02:52.22

*** Psi4 exiting successfully. Buy a developer a beer!
