
    -----------------------------------------------------------------------
          Psi4: An Open-Source Ab Initio Electronic Structure Package
                               Psi4 1.2.1 release

                         Git: Rev {HEAD} 406f4de 


    R. M. Parrish, L. A. Burns, D. G. A. Smith, A. C. Simmonett,
    A. E. DePrince III, E. G. Hohenstein, U. Bozkaya, A. Yu. Sokolov,
    R. Di Remigio, R. M. Richard, J. F. Gonthier, A. M. James,
    H. R. McAlexander, A. Kumar, M. Saitow, X. Wang, B. P. Pritchard,
    P. Verma, H. F. Schaefer III, K. Patkowski, R. A. King, E. F. Valeev,
    F. A. Evangelista, J. M. Turney, T. D. Crawford, and C. D. Sherrill,
    J. Chem. Theory Comput. 13(7) pp 3185--3197 (2017).
    (doi: 10.1021/acs.jctc.7b00174)


                         Additional Contributions by
    P. Kraus, H. Kruse, M. H. Lechner, M. C. Schieber, and R. A. Shaw

    -----------------------------------------------------------------------


    Psi4 started on: Saturday, 29 September 2018 08:49PM

    Process ID: 28856
    Host:       oliva.prib.upf.edu
    PSIDATADIR: /shared/joao/test_parameterize/miniconda3/share/psi4
    Memory:     500.0 MiB
    Threads:    1
    
  ==> Input File <==

--------------------------------------------------------------------------
set_num_threads(4)
set_memory('3000 MB')

set { scf_mem_safety_factor 0.7 }

set { reference rks }
set { basis 6-31G* }

molecule MOL {
    1 1
    noreorient
    nocom
    symmetry c1
    C   -0.000000  -0.000000  -0.177864
    C    0.036678   1.219374   0.524165
    C    0.031765   1.213120   1.915444
    C    0.000000   0.000000   2.610107
    C   -0.031765  -1.213120   1.915444
    C   -0.036678  -1.219375   0.524165
    C   -0.000000   0.000000  -1.644734
    H    0.018170   2.164705  -0.010854
    H    0.042402   2.152895   2.457886
    H    0.000000   0.000000   3.695756
    H   -0.042402  -2.152895   2.457886
    H   -0.018170  -2.164705  -0.010853
    N    1.094470   0.361476  -2.308460
    N   -1.094470  -0.361476  -2.308460
    H   -1.117362  -0.466896  -3.315997
    H   -1.968877  -0.477787  -1.813317
    H    1.968877   0.477787  -1.813316
    H    1.117362   0.466897  -3.315996
}

set optking { frozen_dihedral = (" 2 1 7 13 ") }

set optking { dynamic_level = 1 
 geom_maxiter = 250
 print_trajectory_xyz_file = True }

energy, wfn = optimize('B3LYP-D3', return_wfn=True)

import os
os.chdir(os.environ['HTMD_PSI4_WORKDIR'])

oeprop(wfn, 'DIPOLE', 'QUADRUPOLE', 'MULLIKEN_CHARGES')

with open('psi4out.xyz', 'w') as f:
    f.write('18 ' )
    f.write('%.12f\n' % energy)
    f.write(MOL.save_string_xyz())
--------------------------------------------------------------------------
  Threads set to 4 by Python driver.

  Memory set to   2.794 GiB by Python driver.
gradient() will perform analytic gradient computation.

*** tstart() called on oliva.prib.upf.edu
*** at Sat Sep 29 20:49:48 2018

   => Loading Basis Set <=

    Name: 6-31G*
    Role: ORBITAL
    Keyword: BASIS
    atoms 1-7         entry C          line   111 file /shared/joao/test_parameterize/miniconda3/share/psi4/basis/6-31gs.gbs 
    atoms 8-12, 15-18 entry H          line    44 file /shared/joao/test_parameterize/miniconda3/share/psi4/basis/6-31gs.gbs 
    atoms 13-14       entry N          line   128 file /shared/joao/test_parameterize/miniconda3/share/psi4/basis/6-31gs.gbs 


         ---------------------------------------------------------
                                   SCF
            by Justin Turney, Rob Parrish, Andy Simmonett
                             and Daniel Smith
                              RKS Reference
                        4 Threads,   2861 MiB Core
         ---------------------------------------------------------

  ==> Geometry <==

    Molecular point group: c1
    Full point group: C1

    Geometry (in Angstrom), charge = 1, multiplicity = 1:

       Center              X                  Y                   Z               Mass       
    ------------   -----------------  -----------------  -----------------  -----------------
         C            0.000000000000     0.000000000000    -0.177864000000    12.000000000000
         C            0.036678000000     1.219374000000     0.524165000000    12.000000000000
         C            0.031765000000     1.213120000000     1.915444000000    12.000000000000
         C            0.000000000000     0.000000000000     2.610107000000    12.000000000000
         C           -0.031765000000    -1.213120000000     1.915444000000    12.000000000000
         C           -0.036678000000    -1.219375000000     0.524165000000    12.000000000000
         C            0.000000000000     0.000000000000    -1.644734000000    12.000000000000
         H            0.018170000000     2.164705000000    -0.010854000000     1.007825032070
         H            0.042402000000     2.152895000000     2.457886000000     1.007825032070
         H            0.000000000000     0.000000000000     3.695756000000     1.007825032070
         H           -0.042402000000    -2.152895000000     2.457886000000     1.007825032070
         H           -0.018170000000    -2.164705000000    -0.010853000000     1.007825032070
         N            1.094470000000     0.361476000000    -2.308460000000    14.003074004780
         N           -1.094470000000    -0.361476000000    -2.308460000000    14.003074004780
         H           -1.117362000000    -0.466896000000    -3.315997000000     1.007825032070
         H           -1.968877000000    -0.477787000000    -1.813317000000     1.007825032070
         H            1.968877000000     0.477787000000    -1.813316000000     1.007825032070
         H            1.117362000000     0.466897000000    -3.315996000000     1.007825032070

  Running in c1 symmetry.

  Rotational constants: A =      0.12190  B =      0.03727  C =      0.03290 [cm^-1]
  Rotational constants: A =   3654.48762  B =   1117.22171  C =    986.34262 [MHz]
  Nuclear repulsion =  415.955077217777387

  Charge       = 1
  Multiplicity = 1
  Electrons    = 64
  Nalpha       = 32
  Nbeta        = 32

  ==> Algorithm <==

  SCF Algorithm Type is DF.
  DIIS enabled.
  MOM disabled.
  Fractional occupation disabled.
  Guess Type is SAD.
  Energy threshold   = 1.00e-08
  Density threshold  = 1.00e-08
  Integral threshold = 0.00e+00

  ==> Primary Basis <==

  Basis Set: 6-31G*
    Blend: 6-31G*
    Number of shells: 72
    Number of basis function: 153
    Number of Cartesian functions: 153
    Spherical Harmonics?: false
    Max angular momentum: 2

  ==> DFT Potential <==

   => Composite Functional: B3LYP-D3ZERO <= 

    B3LYP-d3zero Hyb-GGA Exchange-Correlation Functional

    P. J. Stephens, F. J. Devlin, C. F. Chabalowski, and M. J. Frisch, J. Phys. Chem. 98, 11623 (1994)

    Deriv               =              1
    GGA                 =           TRUE
    Meta                =          FALSE

    Exchange Hybrid     =           TRUE
    MP2 Hybrid          =          FALSE

   => Exchange Functionals <=

    0.0800   Slater exchange
    0.7200         Becke 88

   => Exact (HF) Exchange <=

    0.2000               HF 

   => Correlation Functionals <=

    0.1900   Vosko, Wilk & Nusair (VWN5_RPA)
    0.8100   Lee, Yang & Parr

   => Molecular Quadrature <=

    Radial Scheme       =       TREUTLER
    Pruning Scheme      =           FLAT
    Nuclear Scheme      =       TREUTLER

    BS radius alpha     =              1
    Pruning alpha       =              1
    Radial Points       =             75
    Spherical Points    =            302
    Total Points        =         397304
    Total Blocks        =           3006
    Max Points          =            256
    Max Functions       =            148

   => -D3ZERO: Empirical Dispersion <=

    Grimme's -D3 (zero-damping) Dispersion Correction
    Grimme S.; Antony J.; Ehrlich S.; Krieg H. (2010), J. Chem. Phys., 132: 154104

        S6 =   1.000000E+00
        S8 =   1.703000E+00
       SR6 =   1.261000E+00
       SR8 =   1.000000E+00
    ALPHA6 =   1.400000E+01

   => Loading Basis Set <=

    Name: (6-31G* AUX)
    Role: JKFIT
    Keyword: DF_BASIS_SCF
    atoms 1-7         entry C          line   121 file /shared/joao/test_parameterize/miniconda3/share/psi4/basis/cc-pvdz-jkfit.gbs 
    atoms 8-12, 15-18 entry H          line    51 file /shared/joao/test_parameterize/miniconda3/share/psi4/basis/cc-pvdz-jkfit.gbs 
    atoms 13-14       entry N          line   171 file /shared/joao/test_parameterize/miniconda3/share/psi4/basis/cc-pvdz-jkfit.gbs 

  ==> Pre-Iterations <==

   -------------------------------------------------------
    Irrep   Nso     Nmo     Nalpha   Nbeta   Ndocc  Nsocc
   -------------------------------------------------------
     A        153     153       0       0       0       0
   -------------------------------------------------------
    Total     153     153      32      32      32       0
   -------------------------------------------------------

  ==> Integral Setup <==

  ==> DiskDFJK: Density-Fitted J/K Matrices <==

    J tasked:                  Yes
    K tasked:                  Yes
    wK tasked:                  No
    OpenMP threads:              4
    Integrals threads:           4
    Memory (MB):              2002
    Algorithm:                Core
    Integral Cache:           NONE
    Schwarz Cutoff:          1E-12
    Fitting Condition:       1E-12

   => Auxiliary Basis Set <=

  Basis Set: (6-31G* AUX)
    Blend: CC-PVDZ-JKFIT
    Number of shells: 297
    Number of basis function: 954
    Number of Cartesian functions: 954
    Spherical Harmonics?: false
    Max angular momentum: 3

  Minimum eigenvalue in the overlap matrix is 4.8864939520E-04.
  Using Symmetric Orthogonalization.

  SCF Guess: Superposition of Atomic Densities via on-the-fly atomic UHF.

  ==> Iterations <==

                           Total Energy        Delta E     RMS |[F,P]|

   @DF-RKS iter   0:  -379.69726315559342   -3.79697e+02   6.76475e-02 
   @DF-RKS iter   1:  -381.05917285963596   -1.36191e+00   1.15452e-02 
   @DF-RKS iter   2:  -381.00485108510998    5.43218e-02   1.22420e-02 DIIS
   @DF-RKS iter   3:  -381.46046900720148   -4.55618e-01   1.23489e-03 DIIS
   @DF-RKS iter   4:  -381.46370901380271   -3.24001e-03   6.30334e-04 DIIS
   @DF-RKS iter   5:  -381.46473922366988   -1.03021e-03   2.14049e-04 DIIS
   @DF-RKS iter   6:  -381.46486806021778   -1.28837e-04   8.65524e-05 DIIS
   @DF-RKS iter   7:  -381.46489234368806   -2.42835e-05   1.32121e-05 DIIS
   @DF-RKS iter   8:  -381.46489277497011   -4.31282e-07   4.96871e-06 DIIS
   @DF-RKS iter   9:  -381.46489284583134   -7.08612e-08   8.38710e-07 DIIS
   @DF-RKS iter  10:  -381.46489284662391   -7.92568e-10   6.64478e-07 DIIS
   @DF-RKS iter  11:  -381.46489284802146   -1.39755e-09   1.00263e-07 DIIS
   @DF-RKS iter  12:  -381.46489284804505   -2.35900e-11   5.24704e-08 DIIS
   @DF-RKS iter  13:  -381.46489284805438   -9.32232e-12   1.15815e-08 DIIS
   @DF-RKS iter  14:  -381.46489284805415    2.27374e-13   4.04565e-09 DIIS

  ==> Post-Iterations <==

    Orbital Energies [Eh]
    ---------------------

    Doubly Occupied:                                                      

       1A    -14.574131     2A    -14.574124     3A    -10.502452  
       4A    -10.368634     5A    -10.350277     6A    -10.350269  
       7A    -10.335380     8A    -10.334292     9A    -10.334158  
      10A     -1.188077    11A     -1.095790    12A     -1.009503  
      13A     -0.924155    14A     -0.896079    15A     -0.845113  
      16A     -0.787636    17A     -0.764406    18A     -0.752187  
      19A     -0.728964    20A     -0.691668    21A     -0.668163  
      22A     -0.620929    23A     -0.618388    24A     -0.575913  
      25A     -0.574899    26A     -0.566971    27A     -0.515894  
      28A     -0.498641    29A     -0.491481    30A     -0.478042  
      31A     -0.405964    32A     -0.399534  

    Virtual:                                                              

      33A     -0.205701    34A     -0.156084    35A     -0.148525  
      36A     -0.112759    37A     -0.066809    38A     -0.063102  
      39A     -0.035089    40A     -0.027847    41A      0.008435  
      42A      0.013851    43A      0.024620    44A      0.057904  
      45A      0.059093    46A      0.074071    47A      0.141372  
      48A      0.145836    49A      0.164618    50A      0.175431  
      51A      0.202632    52A      0.223767    53A      0.292562  
      54A      0.345961    55A      0.356753    56A      0.379249  
      57A      0.392780    58A      0.398949    59A      0.405535  
      60A      0.425071    61A      0.442380    62A      0.451831  
      63A      0.454735    64A      0.466493    65A      0.477189  
      66A      0.480675    67A      0.484420    68A      0.495685  
      69A      0.511858    70A      0.532326    71A      0.561530  
      72A      0.580622    73A      0.595901    74A      0.633939  
      75A      0.666683    76A      0.679792    77A      0.682604  
      78A      0.689172    79A      0.699894    80A      0.710415  
      81A      0.730285    82A      0.749658    83A      0.779114  
      84A      0.788391    85A      0.811724    86A      0.830365  
      87A      0.852266    88A      0.940108    89A      0.967572  
      90A      1.003151    91A      1.018092    92A      1.027453  
      93A      1.033070    94A      1.088349    95A      1.142249  
      96A      1.186967    97A      1.197161    98A      1.290261  
      99A      1.292087   100A      1.327328   101A      1.328151  
     102A      1.352632   103A      1.361750   104A      1.373142  
     105A      1.449655   106A      1.460822   107A      1.491895  
     108A      1.603524   109A      1.604791   110A      1.665815  
     111A      1.666264   112A      1.736762   113A      1.761948  
     114A      1.796055   115A      1.829016   116A      1.845518  
     117A      1.891858   118A      1.910863   119A      1.978572  
     120A      1.985187   121A      1.998435   122A      2.002675  
     123A      2.041477   124A      2.063431   125A      2.122900  
     126A      2.128961   127A      2.165587   128A      2.204087  
     129A      2.214396   130A      2.273572   131A      2.382572  
     132A      2.394231   133A      2.403681   134A      2.442432  
     135A      2.504548   136A      2.571379   137A      2.585973  
     138A      2.589527   139A      2.602237   140A      2.629230  
     141A      2.721255   142A      2.887104   143A      2.927328  
     144A      3.258085   145A      3.631259   146A      3.634023  
     147A      3.941834   148A      3.969801   149A      3.976905  
     150A      4.102715   151A      4.181458   152A      4.262326  
     153A      4.552811  

    Final Occupation by Irrep:
              A 
    DOCC [    32 ]

  Energy converged.

  @DF-RKS Final Energy:  -381.46489284805415

   => Energetics <=

    Nuclear Repulsion Energy =            415.9550772177773865
    One-Electron Energy =               -1327.2506375102693710
    Two-Electron Energy =                 574.2448515946241514
    DFT Exchange-Correlation Energy =     -44.4025442701863113
    Empirical Dispersion Energy =          -0.0116398800000000
    VV10 Nonlocal Energy =                  0.0000000000000000
    Total Energy =                       -381.4648928480540917



Properties will be evaluated at   0.000000,   0.000000,   0.000000 [a0]

Properties computed using the SCF density matrix

  Nuclear Dipole Moment: [e a0]
     X:    -0.0000      Y:    -0.0000      Z:     0.0248

  Electronic Dipole Moment: [e a0]
     X:     0.0000      Y:     0.0000      Z:    -2.5181

  Dipole Moment: [e a0]
     X:     0.0000      Y:     0.0000      Z:    -2.4934     Total:     2.4934

  Dipole Moment: [D]
     X:     0.0000      Y:     0.0000      Z:    -6.3375     Total:     6.3375


*** tstop() called on oliva.prib.upf.edu at Sat Sep 29 20:50:16 2018
Module time:
	user time   =      96.96 seconds =       1.62 minutes
	system time =       0.72 seconds =       0.01 minutes
	total time  =         28 seconds =       0.47 minutes
Total time:
	user time   =      96.96 seconds =       1.62 minutes
	system time =       0.72 seconds =       0.01 minutes
	total time  =         28 seconds =       0.47 minutes

*** tstart() called on oliva.prib.upf.edu
*** at Sat Sep 29 20:50:16 2018


         ------------------------------------------------------------
                                   SCF GRAD                          
                          Rob Parrish, Justin Turney,                
                       Andy Simmonett, and Alex Sokolov              
         ------------------------------------------------------------

  ==> Geometry <==

    Molecular point group: c1
    Full point group: C1

    Geometry (in Angstrom), charge = 1, multiplicity = 1:

       Center              X                  Y                   Z               Mass       
    ------------   -----------------  -----------------  -----------------  -----------------
         C            0.000000000000     0.000000000000    -0.177864000000    12.000000000000
         C            0.036678000000     1.219374000000     0.524165000000    12.000000000000
         C            0.031765000000     1.213120000000     1.915444000000    12.000000000000
         C            0.000000000000     0.000000000000     2.610107000000    12.000000000000
         C           -0.031765000000    -1.213120000000     1.915444000000    12.000000000000
         C           -0.036678000000    -1.219375000000     0.524165000000    12.000000000000
         C            0.000000000000     0.000000000000    -1.644734000000    12.000000000000
         H            0.018170000000     2.164705000000    -0.010854000000     1.007825032070
         H            0.042402000000     2.152895000000     2.457886000000     1.007825032070
         H            0.000000000000     0.000000000000     3.695756000000     1.007825032070
         H           -0.042402000000    -2.152895000000     2.457886000000     1.007825032070
         H           -0.018170000000    -2.164705000000    -0.010853000000     1.007825032070
         N            1.094470000000     0.361476000000    -2.308460000000    14.003074004780
         N           -1.094470000000    -0.361476000000    -2.308460000000    14.003074004780
         H           -1.117362000000    -0.466896000000    -3.315997000000     1.007825032070
         H           -1.968877000000    -0.477787000000    -1.813317000000     1.007825032070
         H            1.968877000000     0.477787000000    -1.813316000000     1.007825032070
         H            1.117362000000     0.466897000000    -3.315996000000     1.007825032070

  Nuclear repulsion =  415.955077217777387

  ==> Basis Set <==

  Basis Set: 6-31G*
    Blend: 6-31G*
    Number of shells: 72
    Number of basis function: 153
    Number of Cartesian functions: 153
    Spherical Harmonics?: false
    Max angular momentum: 2

  ==> DFJKGrad: Density-Fitted SCF Gradients <==

    Gradient:                    1
    J tasked:                  Yes
    K tasked:                  Yes
    wK tasked:                  No
    OpenMP threads:              4
    Integrals threads:           4
    Memory (MB):              2002
    Schwarz Cutoff:          0E+00
    Fitting Condition:       1E-12

   => Auxiliary Basis Set <=

  Basis Set: (6-31G* AUX)
    Blend: CC-PVDZ-JKFIT
    Number of shells: 297
    Number of basis function: 954
    Number of Cartesian functions: 954
    Spherical Harmonics?: false
    Max angular momentum: 3

  ==> DFT Potential <==

   => Composite Functional: B3LYP-D3ZERO <= 

    B3LYP-d3zero Hyb-GGA Exchange-Correlation Functional

    P. J. Stephens, F. J. Devlin, C. F. Chabalowski, and M. J. Frisch, J. Phys. Chem. 98, 11623 (1994)

    Deriv               =              1
    GGA                 =           TRUE
    Meta                =          FALSE

    Exchange Hybrid     =           TRUE
    MP2 Hybrid          =          FALSE

   => Exchange Functionals <=

    0.0800   Slater exchange
    0.7200         Becke 88

   => Exact (HF) Exchange <=

    0.2000               HF 

   => Correlation Functionals <=

    0.1900   Vosko, Wilk & Nusair (VWN5_RPA)
    0.8100   Lee, Yang & Parr

   => Molecular Quadrature <=

    Radial Scheme       =       TREUTLER
    Pruning Scheme      =           FLAT
    Nuclear Scheme      =       TREUTLER

    BS radius alpha     =              1
    Pruning alpha       =              1
    Radial Points       =             75
    Spherical Points    =            302
    Total Points        =         397304
    Total Blocks        =           3006
    Max Points          =            256
    Max Functions       =            148


  -Total Gradient:
     Atom            X                  Y                   Z
    ------   -----------------  -----------------  -----------------
       1        0.000000012801     0.000000531657    -0.011723228075
       2        0.000068534187    -0.000365853669     0.003891396975
       3        0.000788107628     0.001964909058    -0.001661495792
       4       -0.000000000890    -0.000000097737     0.000122870253
       5       -0.000788105975    -0.001964691262    -0.001661379051
       6       -0.000068531801     0.000364428954     0.003891054289
       7        0.000000008793    -0.000000012316     0.012368960827
       8       -0.001858878725     0.000373840121     0.000962106718
       9       -0.000117494146    -0.000126877569     0.000138781950
      10        0.000000000506     0.000000007840    -0.000016999258
      11        0.000117493589     0.000126905683     0.000138707836
      12        0.001858864383    -0.000373083489     0.000962578780
      13        0.003333351291     0.000658663194    -0.003297347322
      14       -0.003333680619    -0.000658641332    -0.003296252506
      15        0.000457756063    -0.000604623383     0.001220280142
      16       -0.000184880867     0.001823271198    -0.001640481839
      17        0.000185237350    -0.001823241592    -0.001640190685
      18       -0.000457793562     0.000604564546     0.001221041426


*** tstop() called on oliva.prib.upf.edu at Sat Sep 29 20:50:23 2018
Module time:
	user time   =      29.07 seconds =       0.48 minutes
	system time =       0.29 seconds =       0.00 minutes
	total time  =          7 seconds =       0.12 minutes
Total time:
	user time   =     126.13 seconds =       2.10 minutes
	system time =       1.02 seconds =       0.02 minutes
	total time  =         35 seconds =       0.58 minutes

			-----------------------------------------
			 OPTKING 2.0: for geometry optimizations 
			  - R.A. King,  Bethel University        
			-----------------------------------------
	At level 1: Red. Int., RFO, no backsteps, dynamic trust

	Internal coordinates to be generated automatically.
	Detected frag 1 with atoms:  1 2 3 4 5 6 7 8 9 10 11 12 13 14 15 16 17 18
	---Fragment 1 Bond Connectivity---
	 1 : 2 6 7
	 2 : 1 3 8
	 3 : 2 4 9
	 4 : 3 5 10
	 5 : 4 6 11
	 6 : 1 5 12
	 7 : 1 13 14
	 8 : 2
	 9 : 3
	 10 : 4
	 11 : 5
	 12 : 6
	 13 : 7 17 18
	 14 : 7 15 16
	 15 : 14
	 16 : 14
	 17 : 13
	 18 : 13

	Assuming in current code that numbering for constraints corresponds to unified fragment.
	Frozen dihedral atom list: 
	     2     1     7    13
	---Fragment 1 Geometry and Gradient---
	 C           0.0000000000        0.0000000000       -0.3361142489
	 C           0.0693113751        2.3042829136        0.9905282984
	 C           0.0600271506        2.2924645663        3.6196645829
	 C           0.0000000000        0.0000000000        4.9323874075
	 C          -0.0600271506       -2.2924645663        3.6196645829
	 C          -0.0693113751       -2.3042848033        0.9905282984
	 C           0.0000000000        0.0000000000       -3.1080968214
	 H           0.0343363238        4.0906996085       -0.0205110874
	 H           0.0801281675        4.0683819429        4.6447314059
	 H           0.0000000000        0.0000000000        6.9839666940
	 H          -0.0801281675       -4.0683819429        4.6447314059
	 H          -0.0343363238       -4.0906996085       -0.0205091977
	 N           2.0682485607        0.6830906436       -4.3623571887
	 N          -2.0682485607       -0.6830906436       -4.3623571887
	 H          -2.1115081713       -0.8823055725       -6.2663261875
	 H          -3.7206383193       -0.9028865799       -3.4266725221
	 H           3.7206383193        0.9028865799       -3.4266706324
	 H           2.1115081713        0.8823074623       -6.2663242977
	             0.0000000128        0.0000005317       -0.0117232281
	             0.0000685342       -0.0003658537        0.0038913970
	             0.0007881076        0.0019649091       -0.0016614958
	            -0.0000000009       -0.0000000977        0.0001228703
	            -0.0007881060       -0.0019646913       -0.0016613791
	            -0.0000685318        0.0003644290        0.0038910543
	             0.0000000088       -0.0000000123        0.0123689608
	            -0.0018588787        0.0003738401        0.0009621067
	            -0.0001174941       -0.0001268776        0.0001387820
	             0.0000000005        0.0000000078       -0.0000169993
	             0.0001174936        0.0001269057        0.0001387078
	             0.0018588644       -0.0003730835        0.0009625788
	             0.0033333513        0.0006586632       -0.0032973473
	            -0.0033336806       -0.0006586413       -0.0032962525
	             0.0004577561       -0.0006046234        0.0012202801
	            -0.0001848809        0.0018232712       -0.0016404818
	             0.0001852373       -0.0018232416       -0.0016401907
	            -0.0004577936        0.0006045645        0.0012210414

	Previous optimization step data not found.  Starting new optimization.

	---Fragment 1 Intrafragment Coordinates---
	 - Coordinate -           - BOHR/RAD -       - ANG/DEG -
	 R(1,2)           =         2.659794	       1.407502
	 R(1,6)           =         2.659796	       1.407503
	 R(1,7)           =         2.771983	       1.466870
	 R(2,3)           =         2.629179	       1.391302
	 R(2,8)           =         2.052976	       1.086388
	 R(3,4)           =         2.642393	       1.398294
	 R(3,9)           =         2.050622	       1.085142
	 R(4,5)           =         2.642393	       1.398294
	 R(4,10)          =         2.051579	       1.085649
	 R(5,6)           =         2.629179	       1.391302
	 R(5,11)          =         2.050622	       1.085142
	 R(6,12)          =         2.052973	       1.086386
	 R(7,13)          =         2.513451	       1.330061
	 R(7,14)          =         2.513451	       1.330061
	 R(13,17)         =         1.911599	       1.011575
	 R(13,18)         =         1.914850	       1.013295
	 R(14,15)         =         1.914851	       1.013296
	 R(14,16)         =         1.911598	       1.011574
	 B(1,2,3)         =         2.088380	     119.655376
	 B(1,2,8)         =         2.103396	     120.515689
	 B(1,6,5)         =         2.088379	     119.655315
	 B(1,6,12)        =         2.103396	     120.515729
	 B(1,7,13)        =         2.093263	     119.935139
	 B(1,7,14)        =         2.093263	     119.935139
	 B(2,1,6)         =         2.097220	     120.161857
	 B(2,1,7)         =         2.092983	     119.919082
	 B(2,3,4)         =         2.095279	     120.050636
	 B(2,3,9)         =         2.089719	     119.732108
	 B(3,2,8)         =         2.090149	     119.756722
	 B(3,4,5)         =         2.101793	     120.423859
	 B(3,4,10)        =         2.090696	     119.788070
	 B(4,3,9)         =         2.098135	     120.214297
	 B(4,5,6)         =         2.095280	     120.050677
	 B(4,5,11)        =         2.098135	     120.214297
	 B(5,4,10)        =         2.090696	     119.788070
	 B(5,6,12)        =         2.090149	     119.756743
	 B(6,1,7)         =         2.092982	     119.919061
	 B(6,5,11)        =         2.089719	     119.732067
	 B(7,13,17)       =         2.092412	     119.886377
	 B(7,13,18)       =         2.144859	     122.891375
	 B(7,14,15)       =         2.144859	     122.891358
	 B(7,14,16)       =         2.092413	     119.886426
	 B(13,7,14)       =         2.096659	     120.129723
	 B(15,14,16)      =         2.043399	     117.078155
	 B(17,13,18)      =         2.043400	     117.078192
	 D(1,2,3,4)       =         0.007799	       0.446825
	 D(1,2,3,9)       =        -3.122896	    -178.928735
	 D(1,6,5,4)       =         0.007799	       0.446822
	 D(1,6,5,11)      =        -3.122896	    -178.928737
	 D(1,7,13,17)     =         0.187845	      10.762703
	 D(1,7,13,18)     =        -3.032164	    -173.730197
	 D(1,7,14,15)     =        -3.032165	    -173.730268
	 D(1,7,14,16)     =         0.187845	      10.762713
	 D(2,1,6,5)       =        -0.003906	      -0.223802
	 D(2,1,6,12)      =        -3.091437	    -177.126283
	*D(2,1,7,13)      =         1.221731	      70.000005
	 D(2,1,7,14)      =        -1.919862	    -109.999995
	 D(2,3,4,5)       =        -0.003942	      -0.225875
	 D(2,3,4,10)      =         3.137650	     179.774125
	 D(3,2,1,6)       =        -0.003906	      -0.223806
	 D(3,2,1,7)       =         3.137687	     179.776196
	 D(3,4,5,6)       =        -0.003942	      -0.225874
	 D(3,4,5,11)      =         3.126699	     179.146646
	 D(4,3,2,8)       =         3.095744	     177.373058
	 D(4,5,6,12)      =         3.095744	     177.373055
	 D(5,4,3,9)       =         3.126699	     179.146646
	 D(5,6,1,7)       =         3.137687	     179.776197
	 D(6,1,2,8)       =        -3.091437	    -177.126287
	 D(6,1,7,13)      =        -1.919862	    -109.999994
	 D(6,1,7,14)      =         1.221731	      70.000006
	 D(6,5,4,10)      =         3.137650	     179.774126
	 D(7,1,2,8)       =         0.050156	       2.873714
	 D(7,1,6,12)      =         0.050156	       2.873716
	 D(8,2,3,9)       =        -0.034950	      -2.002503
	 D(9,3,4,10)      =        -0.014894	      -0.853354
	 D(10,4,5,11)     =        -0.014894	      -0.853354
	 D(11,5,6,12)     =        -0.034950	      -2.002504
	 D(13,7,14,15)    =         0.109427	       6.269732
	 D(13,7,14,16)    =        -2.953748	    -169.237287
	 D(14,7,13,17)    =        -2.953748	    -169.237297
	 D(14,7,13,18)    =         0.109429	       6.269803

	Current energy   :      -381.4648928481

	Generating empirical Hessian (Schlegel '84) for each fragment.
	Taking RFO optimization step.
	Going to follow RFO solution 1.
	Using RFO vector 1.
	Norm of target step-size    0.31955
	Projected energy change by RFO approximation:        -0.0006619180

	Back-transformation to cartesian coordinates...
	Could not converge backtransformation.
	Using first guess instead.

	Back-transformation to cartesian coordinates to adjust frozen coordinates...
	Successfully converged to displaced geometry.

	--- Internal Coordinate Step in ANG or DEG, aJ/ANG or AJ/DEG ---
	 ---------------------------------------------------------------------------
	   Coordinate                Previous        Force       Change         New 
	   ----------                --------       ------       ------       ------
	    1 R(1,2)          =      1.407502    -0.023875    -0.003526     1.403977
	    2 R(1,6)          =      1.407503    -0.023873    -0.001920     1.405583
	    3 R(1,7)          =      1.466870     0.040729     0.007690     1.474560
	    4 R(2,3)          =      1.391302     0.012128     0.001858     1.393160
	    5 R(2,8)          =      1.086388     0.000967     0.001850     1.088237
	    6 R(3,4)          =      1.398294    -0.003200     0.000096     1.398390
	    7 R(3,9)          =      1.085142     0.000339     0.000305     1.085447
	    8 R(4,5)          =      1.398294    -0.003193    -0.000059     1.398235
	    9 R(4,10)         =      1.085649     0.000131     0.000169     1.085818
	   10 R(5,6)          =      1.391302     0.012140     0.001743     1.393045
	   11 R(5,11)         =      1.085142     0.000339     0.001290     1.086432
	   12 R(6,12)         =      1.086386     0.000975     0.002736     1.089122
	   13 R(7,13)         =      1.330061    -0.034762    -0.003443     1.326618
	   14 R(7,14)         =      1.330061    -0.034762    -0.000098     1.329963
	   15 R(13,17)        =      1.011575     0.007017     0.005732     1.017306
	   16 R(13,18)        =      1.013295     0.009579     0.002182     1.015477
	   17 R(14,15)        =      1.013296     0.009573     0.001779     1.015075
	   18 R(14,16)        =      1.011574     0.007020     0.008106     1.019680
	   19 B(1,2,3)        =    119.655376    -0.000120    -0.398740   119.256637
	   20 B(1,2,8)        =    120.515689    -0.000016    -0.145483   120.370207
	   21 B(1,6,5)        =    119.655315    -0.000120    -0.411195   119.244120
	   22 B(1,6,12)       =    120.515729    -0.000017    -0.020810   120.494920
	   23 B(1,7,13)       =    119.935139    -0.000186    -0.536395   119.398744
	   24 B(1,7,14)       =    119.935139    -0.000186    -0.714096   119.221043
	   25 B(2,1,6)        =    120.161857     0.000236     0.645251   120.807108
	   26 B(2,1,7)        =    119.919082    -0.000118    -0.340143   119.578938
	   27 B(2,3,4)        =    120.050636     0.000011     0.076801   120.127437
	   28 B(2,3,9)        =    119.732108    -0.000020    -0.126983   119.605125
	   29 B(3,2,8)        =    119.756722     0.000138     0.614428   120.371149
	   30 B(3,4,5)        =    120.423859    -0.000020    -0.003088   120.420772
	   31 B(3,4,10)       =    119.788070     0.000010     0.017981   119.806051
	   32 B(4,3,9)        =    120.214297     0.000009     0.053103   120.267400
	   33 B(4,5,6)        =    120.050677     0.000011     0.050749   120.101426
	   34 B(4,5,11)       =    120.214297     0.000009     0.055777   120.270073
	   35 B(5,4,10)       =    119.788070     0.000010    -0.017336   119.770735
	   36 B(5,6,12)       =    119.756743     0.000139     0.495419   120.252162
	   37 B(6,1,7)        =    119.919061    -0.000118    -0.458138   119.460924
	   38 B(6,5,11)       =    119.732067    -0.000020    -0.106589   119.625477
	   39 B(7,13,17)      =    119.886377    -0.000110    -0.520036   119.366341
	   40 B(7,13,18)      =    122.891375     0.000074     0.308665   123.200041
	   41 B(7,14,15)      =    122.891358     0.000074     0.275031   123.166389
	   42 B(7,14,16)      =    119.886426    -0.000110    -0.212478   119.673948
	   43 B(13,7,14)      =    120.129723     0.000371     1.107418   121.237141
	   44 B(15,14,16)     =    117.078155     0.000041     0.050906   117.129062
	   45 B(17,13,18)     =    117.078192     0.000041     0.325229   117.403421
	   46 D(1,2,3,4)      =      0.446825    -0.000001    -0.483561    -0.036737
	   47 D(1,2,3,9)      =   -178.928735    -0.000006    -1.179489  -180.108224
	   48 D(1,6,5,4)      =      0.446822     0.000006     1.184842     1.631664
	   49 D(1,6,5,11)     =   -178.928737    -0.000001    -0.070300  -178.999037
	   50 D(1,7,13,17)    =     10.762703    -0.000041    -6.309334     4.453369
	   51 D(1,7,13,18)    =   -173.730197    -0.000023    -3.868880  -177.599076
	   52 D(1,7,14,15)    =   -173.730268    -0.000001     0.410240  -173.320028
	   53 D(1,7,14,16)    =     10.762713    -0.000019    -2.011316     8.751397
	   54 D(2,1,6,5)      =     -0.223802    -0.000011    -2.296093    -2.519895
	   55 D(2,1,6,12)     =   -177.126283    -0.000024    -4.317391  -181.443674
	   56 *D(2,1,7,13)    =     70.000005     0.000000    -0.000000    70.000005
	   57 D(2,1,7,14)     =   -109.999995    -0.000022    -4.293123  -114.293118
	   58 D(2,3,4,5)      =     -0.225875    -0.000003    -0.608092    -0.833968
	   59 D(2,3,4,10)     =    179.774125    -0.000001    -0.038279   179.735846
	   60 D(3,2,1,6)      =     -0.223806     0.000008     1.945593     1.721787
	   61 D(3,2,1,7)      =    179.776196    -0.000012    -2.575008   177.201188
	   62 D(3,4,5,6)      =     -0.225874     0.000001     0.249324     0.023450
	   63 D(3,4,5,11)     =    179.146646     0.000008     1.511606   180.658252
	   64 D(4,3,2,8)      =    177.373058     0.000013     2.076713   179.449771
	   65 D(4,5,6,12)     =    177.373055     0.000018     3.185057   180.558112
	   66 D(5,4,3,9)      =    179.146646     0.000002     0.091351   179.237997
	   67 D(5,6,1,7)      =    179.776197     0.000010     2.219228   181.995425
	   68 D(6,1,2,8)      =   -177.126287    -0.000008    -0.638438  -177.764725
	   69 D(6,1,7,13)     =   -109.999994    -0.000020    -4.459237  -114.459231
	   70 D(6,1,7,14)     =     70.000006    -0.000042    -8.752360    61.247646
	   71 D(6,5,4,10)     =    179.774126    -0.000002    -0.320288   179.453838
	   72 D(7,1,2,8)      =      2.873714    -0.000028    -5.159039    -2.285325
	   73 D(7,1,6,12)     =      2.873716    -0.000004     0.197930     3.071646
	   74 D(8,2,3,9)      =     -2.002503     0.000009     1.380786    -0.621717
	   75 D(9,3,4,10)     =     -0.853354     0.000004     0.661164    -0.192189
	   76 D(10,4,5,11)    =     -0.853354     0.000005     0.941993     0.088640
	   77 D(11,5,6,12)    =     -2.002504     0.000011     1.929915    -0.072589
	   78 D(13,7,14,15)   =      6.269732    -0.000023    -3.964362     2.305370
	   79 D(13,7,14,16)   =   -169.237287    -0.000041    -6.385918  -175.623204
	   80 D(14,7,13,17)   =   -169.237297    -0.000019    -1.927094  -171.164391
	   81 D(14,7,13,18)   =      6.269803    -0.000001     0.513361     6.783164
	 ---------------------------------------------------------------------------
	Successfully symmetrized geometry.

  ==> Convergence Check <==

  Measures of convergence in internal coordinates in au.
  Criteria marked as inactive (o), active & met (*), and active & unmet ( ).
  --------------------------------------------------------------------------------------------- ~
   Step     Total Energy     Delta E     MAX Force     RMS Force      MAX Disp      RMS Disp    ~
  --------------------------------------------------------------------------------------------- ~
    Convergence Criteria    1.00e-06 *    3.00e-04 *             o    1.20e-03 *             o  ~
  --------------------------------------------------------------------------------------------- ~
      1    -381.46489285   -3.81e+02      4.94e-03      1.53e-03 o    1.53e-01      3.55e-02 o  ~
  ---------------------------------------------------------------------------------------------

	Writing optimization data to binary file.
	Structure for next step:
	Cartesian Geometry (in Angstrom)
	    C     0.0413419729   0.0173982436  -0.1765007790
	    C     0.0808218898   1.2318200135   0.5268996312
	    C     0.0550512787   1.2130850359   1.9196948400
	    C    -0.0102232001  -0.0045831445   2.6041781585
	    C    -0.0676745953  -1.2107907005   1.8993210318
	    C    -0.0597286981  -1.2070309952   0.5063036275
	    C     0.0056577132   0.0308593571  -1.6505670509
	    H     0.1225838523   2.1774916898  -0.0099632139
	    H     0.0871101950   2.1485867627   2.4692443662
	    H    -0.0257060744  -0.0132943483   3.6898505742
	    H    -0.1290932353  -2.1548394913   2.4334876471
	    H    -0.1135416740  -2.1446227265  -0.0452517751
	    N     1.0828244701   0.4120575005  -2.3245965308
	    N    -1.0763798057  -0.4211900635  -2.2779798948
	    H    -1.1285449281  -0.5314767946  -3.2856965324
	    H    -1.9144426482  -0.6445593113  -1.7417852783
	    H     1.9391629684   0.6241446990  -1.8180239226
	    H     1.1107805188   0.4769442735  -3.3376128984
			--------------------------
			 OPTKING Finished Execution 
			--------------------------

    Structure for next step:
    Molecular point group: c1
    Full point group: C1

    Geometry (in Angstrom), charge = 1, multiplicity = 1:

    C            0.041341972857     0.017398243601    -0.176500779030
    C            0.080821889815     1.231820013537     0.526899631187
    C            0.055051278728     1.213085035868     1.919694839951
    C           -0.010223200144    -0.004583144457     2.604178158514
    C           -0.067674595306    -1.210790700487     1.899321031752
    C           -0.059728698131    -1.207030995181     0.506303627484
    C            0.005657713214     0.030859357086    -1.650567050935
    H            0.122583852268     2.177491689773    -0.009963213940
    H            0.087110195041     2.148586762750     2.469244366177
    H           -0.025706074356    -0.013294348309     3.689850574166
    H           -0.129093235344    -2.154839491275     2.433487647128
    H           -0.113541673954    -2.144622726545    -0.045251775084
    N            1.082824470102     0.412057500464    -2.324596530775
    N           -1.076379805681    -0.421190063466    -2.277979894818
    H           -1.128544928067    -0.531476794583    -3.285696532420
    H           -1.914442648223    -0.644559311272    -1.741785278305
    H            1.939162968364     0.624144698962    -1.818023922645
    H            1.110780518815     0.476944273534    -3.337612898406

gradient() will perform analytic gradient computation.

*** tstart() called on oliva.prib.upf.edu
*** at Sat Sep 29 20:50:24 2018

   => Loading Basis Set <=

    Name: 6-31G*
    Role: ORBITAL
    Keyword: BASIS
    atoms 1-7         entry C          line   111 file /shared/joao/test_parameterize/miniconda3/share/psi4/basis/6-31gs.gbs 
    atoms 8-12, 15-18 entry H          line    44 file /shared/joao/test_parameterize/miniconda3/share/psi4/basis/6-31gs.gbs 
    atoms 13-14       entry N          line   128 file /shared/joao/test_parameterize/miniconda3/share/psi4/basis/6-31gs.gbs 


         ---------------------------------------------------------
                                   SCF
            by Justin Turney, Rob Parrish, Andy Simmonett
                             and Daniel Smith
                              RKS Reference
                        4 Threads,   2861 MiB Core
         ---------------------------------------------------------

  ==> Geometry <==

    Molecular point group: c1
    Full point group: C1

    Geometry (in Angstrom), charge = 1, multiplicity = 1:

       Center              X                  Y                   Z               Mass       
    ------------   -----------------  -----------------  -----------------  -----------------
         C            0.041341972857     0.017398243601    -0.176500779030    12.000000000000
         C            0.080821889815     1.231820013537     0.526899631187    12.000000000000
         C            0.055051278728     1.213085035868     1.919694839951    12.000000000000
         C           -0.010223200144    -0.004583144457     2.604178158514    12.000000000000
         C           -0.067674595306    -1.210790700487     1.899321031752    12.000000000000
         C           -0.059728698131    -1.207030995181     0.506303627484    12.000000000000
         C            0.005657713214     0.030859357086    -1.650567050935    12.000000000000
         H            0.122583852268     2.177491689773    -0.009963213940     1.007825032070
         H            0.087110195041     2.148586762750     2.469244366177     1.007825032070
         H           -0.025706074356    -0.013294348309     3.689850574166     1.007825032070
         H           -0.129093235344    -2.154839491275     2.433487647128     1.007825032070
         H           -0.113541673954    -2.144622726545    -0.045251775084     1.007825032070
         N            1.082824470102     0.412057500464    -2.324596530775    14.003074004780
         N           -1.076379805681    -0.421190063466    -2.277979894818    14.003074004780
         H           -1.128544928067    -0.531476794583    -3.285696532420     1.007825032070
         H           -1.914442648223    -0.644559311272    -1.741785278305     1.007825032070
         H            1.939162968364     0.624144698962    -1.818023922645     1.007825032070
         H            1.110780518815     0.476944273534    -3.337612898406     1.007825032070

  Running in c1 symmetry.

  Rotational constants: A =      0.12143  B =      0.03774  C =      0.03278 [cm^-1]
  Rotational constants: A =   3640.47608  B =   1131.52923  C =    982.70199 [MHz]
  Nuclear repulsion =  416.185167359876971

  Charge       = 1
  Multiplicity = 1
  Electrons    = 64
  Nalpha       = 32
  Nbeta        = 32

  ==> Algorithm <==

  SCF Algorithm Type is DF.
  DIIS enabled.
  MOM disabled.
  Fractional occupation disabled.
  Guess Type is READ.
  Energy threshold   = 1.00e-08
  Density threshold  = 1.00e-08
  Integral threshold = 0.00e+00

  ==> Primary Basis <==

  Basis Set: 6-31G*
    Blend: 6-31G*
    Number of shells: 72
    Number of basis function: 153
    Number of Cartesian functions: 153
    Spherical Harmonics?: false
    Max angular momentum: 2

  ==> DFT Potential <==

   => Composite Functional: B3LYP-D3ZERO <= 

    B3LYP-d3zero Hyb-GGA Exchange-Correlation Functional

    P. J. Stephens, F. J. Devlin, C. F. Chabalowski, and M. J. Frisch, J. Phys. Chem. 98, 11623 (1994)

    Deriv               =              1
    GGA                 =           TRUE
    Meta                =          FALSE

    Exchange Hybrid     =           TRUE
    MP2 Hybrid          =          FALSE

   => Exchange Functionals <=

    0.0800   Slater exchange
    0.7200         Becke 88

   => Exact (HF) Exchange <=

    0.2000               HF 

   => Correlation Functionals <=

    0.1900   Vosko, Wilk & Nusair (VWN5_RPA)
    0.8100   Lee, Yang & Parr

   => Molecular Quadrature <=

    Radial Scheme       =       TREUTLER
    Pruning Scheme      =           FLAT
    Nuclear Scheme      =       TREUTLER

    BS radius alpha     =              1
    Pruning alpha       =              1
    Radial Points       =             75
    Spherical Points    =            302
    Total Points        =         397246
    Total Blocks        =           2997
    Max Points          =            256
    Max Functions       =            151

   => -D3ZERO: Empirical Dispersion <=

    Grimme's -D3 (zero-damping) Dispersion Correction
    Grimme S.; Antony J.; Ehrlich S.; Krieg H. (2010), J. Chem. Phys., 132: 154104

        S6 =   1.000000E+00
        S8 =   1.703000E+00
       SR6 =   1.261000E+00
       SR8 =   1.000000E+00
    ALPHA6 =   1.400000E+01

   => Loading Basis Set <=

    Name: (6-31G* AUX)
    Role: JKFIT
    Keyword: DF_BASIS_SCF
    atoms 1-7         entry C          line   121 file /shared/joao/test_parameterize/miniconda3/share/psi4/basis/cc-pvdz-jkfit.gbs 
    atoms 8-12, 15-18 entry H          line    51 file /shared/joao/test_parameterize/miniconda3/share/psi4/basis/cc-pvdz-jkfit.gbs 
    atoms 13-14       entry N          line   171 file /shared/joao/test_parameterize/miniconda3/share/psi4/basis/cc-pvdz-jkfit.gbs 

  Reading orbitals from file 180, no projection.

  ==> Pre-Iterations <==

   -------------------------------------------------------
    Irrep   Nso     Nmo     Nalpha   Nbeta   Ndocc  Nsocc
   -------------------------------------------------------
     A        153     153       0       0       0       0
   -------------------------------------------------------
    Total     153     153      32      32      32       0
   -------------------------------------------------------

  ==> Integral Setup <==

  ==> DiskDFJK: Density-Fitted J/K Matrices <==

    J tasked:                  Yes
    K tasked:                  Yes
    wK tasked:                  No
    OpenMP threads:              4
    Integrals threads:           4
    Memory (MB):              2002
    Algorithm:                Core
    Integral Cache:           NONE
    Schwarz Cutoff:          1E-12
    Fitting Condition:       1E-12

   => Auxiliary Basis Set <=

  Basis Set: (6-31G* AUX)
    Blend: CC-PVDZ-JKFIT
    Number of shells: 297
    Number of basis function: 954
    Number of Cartesian functions: 954
    Spherical Harmonics?: false
    Max angular momentum: 3

  Minimum eigenvalue in the overlap matrix is 4.8911277306E-04.
  Using Symmetric Orthogonalization.

  SCF Guess: Orbitals guess was supplied from a previous computation.

  ==> Iterations <==

                           Total Energy        Delta E     RMS |[F,P]|

   @DF-RKS iter   0:  -381.44492681503323   -3.81445e+02   2.02873e-03 
   @DF-RKS iter   1:  -381.46580199563351   -2.08752e-02   2.27674e-04 
   @DF-RKS iter   2:  -381.46570429694361    9.76987e-05   3.23085e-04 DIIS
   @DF-RKS iter   3:  -381.46601692750818   -3.12631e-04   6.50401e-05 DIIS
   @DF-RKS iter   4:  -381.46602800473937   -1.10772e-05   2.52046e-05 DIIS
   @DF-RKS iter   5:  -381.46602970927586   -1.70454e-06   9.32721e-06 DIIS
   @DF-RKS iter   6:  -381.46602994807836   -2.38802e-07   3.06126e-06 DIIS
   @DF-RKS iter   7:  -381.46602997418864   -2.61103e-08   7.25430e-07 DIIS
   @DF-RKS iter   8:  -381.46602997554351   -1.35486e-09   2.50774e-07 DIIS
   @DF-RKS iter   9:  -381.46602997571182   -1.68313e-10   5.97652e-08 DIIS
   @DF-RKS iter  10:  -381.46602997571927   -7.44649e-12   3.10969e-08 DIIS
   @DF-RKS iter  11:  -381.46602997572205   -2.78533e-12   6.71744e-09 DIIS

  ==> Post-Iterations <==

    Orbital Energies [Eh]
    ---------------------

    Doubly Occupied:                                                      

       1A    -14.574656     2A    -14.574220     3A    -10.501465  
       4A    -10.368954     5A    -10.350850     6A    -10.350716  
       7A    -10.335973     8A    -10.335286     9A    -10.334955  
      10A     -1.186970    11A     -1.095623    12A     -1.009841  
      13A     -0.923173    14A     -0.896452    15A     -0.844213  
      16A     -0.786079    17A     -0.766386    18A     -0.750855  
      19A     -0.728301    20A     -0.689655    21A     -0.667190  
      22A     -0.621511    23A     -0.617803    24A     -0.577967  
      25A     -0.574384    26A     -0.567858    27A     -0.516207  
      28A     -0.498740    29A     -0.492626    30A     -0.477482  
      31A     -0.406377    32A     -0.399966  

    Virtual:                                                              

      33A     -0.204253    34A     -0.153126    35A     -0.150450  
      36A     -0.113013    37A     -0.068238    38A     -0.065106  
      39A     -0.036368    40A     -0.031223    41A      0.008343  
      42A      0.013526    43A      0.023612    44A      0.057209  
      45A      0.059189    46A      0.074283    47A      0.140263  
      48A      0.142580    49A      0.163151    50A      0.175546  
      51A      0.199885    52A      0.227010    53A      0.293090  
      54A      0.343864    55A      0.357217    56A      0.383676  
      57A      0.387824    58A      0.399627    59A      0.408864  
      60A      0.425482    61A      0.445928    62A      0.450129  
      63A      0.451203    64A      0.466780    65A      0.475868  
      66A      0.480249    67A      0.484665    68A      0.498183  
      69A      0.513280    70A      0.533347    71A      0.554869  
      72A      0.584219    73A      0.586604    74A      0.640534  
      75A      0.663487    76A      0.679242    77A      0.680241  
      78A      0.689065    79A      0.699096    80A      0.709970  
      81A      0.729518    82A      0.748717    83A      0.778413  
      84A      0.793849    85A      0.812317    86A      0.832205  
      87A      0.851649    88A      0.939513    89A      0.968948  
      90A      1.005570    91A      1.010614    92A      1.026994  
      93A      1.033712    94A      1.083975    95A      1.146719  
      96A      1.187443    97A      1.202021    98A      1.282477  
      99A      1.304108   100A      1.323141   101A      1.329790  
     102A      1.347006   103A      1.359630   104A      1.373144  
     105A      1.450073   106A      1.456367   107A      1.487591  
     108A      1.589886   109A      1.617724   110A      1.659675  
     111A      1.669051   112A      1.738011   113A      1.764608  
     114A      1.795573   115A      1.824232   116A      1.851405  
     117A      1.895174   118A      1.912394   119A      1.972806  
     120A      1.986329   121A      2.000238   122A      2.001557  
     123A      2.040771   124A      2.071478   125A      2.124763  
     126A      2.131650   127A      2.163702   128A      2.180138  
     129A      2.220269   130A      2.272177   131A      2.374291  
     132A      2.389425   133A      2.411056   134A      2.445187  
     135A      2.501910   136A      2.566454   137A      2.581986  
     138A      2.587729   139A      2.599507   140A      2.632117  
     141A      2.722784   142A      2.885946   143A      2.932314  
     144A      3.258412   145A      3.630460   146A      3.638841  
     147A      3.939861   148A      3.969759   149A      3.972744  
     150A      4.095863   151A      4.183203   152A      4.261282  
     153A      4.551478  

    Final Occupation by Irrep:
              A 
    DOCC [    32 ]

  Energy converged.

  @DF-RKS Final Energy:  -381.46602997572205

   => Energetics <=

    Nuclear Repulsion Energy =            416.1851673598769707
    One-Electron Energy =               -1327.7168254501284537
    Two-Electron Energy =                 574.4724855806214237
    DFT Exchange-Correlation Energy =     -44.3950851660919028
    Empirical Dispersion Energy =          -0.0117723000000000
    VV10 Nonlocal Energy =                  0.0000000000000000
    Total Energy =                       -381.4660299757220514



Properties will be evaluated at   0.000000,   0.000000,   0.000000 [a0]

Properties computed using the SCF density matrix

  Nuclear Dipole Moment: [e a0]
     X:     0.5006      Y:     0.5650      Z:    -0.1659

  Electronic Dipole Moment: [e a0]
     X:    -0.5098      Y:    -0.5759      Z:    -2.3070

  Dipole Moment: [e a0]
     X:    -0.0093      Y:    -0.0109      Z:    -2.4729     Total:     2.4730

  Dipole Moment: [D]
     X:    -0.0235      Y:    -0.0277      Z:    -6.2856     Total:     6.2857


*** tstop() called on oliva.prib.upf.edu at Sat Sep 29 20:50:47 2018
Module time:
	user time   =      81.05 seconds =       1.35 minutes
	system time =       0.68 seconds =       0.01 minutes
	total time  =         23 seconds =       0.38 minutes
Total time:
	user time   =     208.15 seconds =       3.47 minutes
	system time =       1.76 seconds =       0.03 minutes
	total time  =         59 seconds =       0.98 minutes

*** tstart() called on oliva.prib.upf.edu
*** at Sat Sep 29 20:50:47 2018


         ------------------------------------------------------------
                                   SCF GRAD                          
                          Rob Parrish, Justin Turney,                
                       Andy Simmonett, and Alex Sokolov              
         ------------------------------------------------------------

  ==> Geometry <==

    Molecular point group: c1
    Full point group: C1

    Geometry (in Angstrom), charge = 1, multiplicity = 1:

       Center              X                  Y                   Z               Mass       
    ------------   -----------------  -----------------  -----------------  -----------------
         C            0.041341972857     0.017398243601    -0.176500779030    12.000000000000
         C            0.080821889815     1.231820013537     0.526899631187    12.000000000000
         C            0.055051278728     1.213085035868     1.919694839951    12.000000000000
         C           -0.010223200144    -0.004583144457     2.604178158514    12.000000000000
         C           -0.067674595306    -1.210790700487     1.899321031752    12.000000000000
         C           -0.059728698131    -1.207030995181     0.506303627484    12.000000000000
         C            0.005657713214     0.030859357086    -1.650567050935    12.000000000000
         H            0.122583852268     2.177491689773    -0.009963213940     1.007825032070
         H            0.087110195041     2.148586762750     2.469244366177     1.007825032070
         H           -0.025706074356    -0.013294348309     3.689850574166     1.007825032070
         H           -0.129093235344    -2.154839491275     2.433487647128     1.007825032070
         H           -0.113541673954    -2.144622726545    -0.045251775084     1.007825032070
         N            1.082824470102     0.412057500464    -2.324596530775    14.003074004780
         N           -1.076379805681    -0.421190063466    -2.277979894818    14.003074004780
         H           -1.128544928067    -0.531476794583    -3.285696532420     1.007825032070
         H           -1.914442648223    -0.644559311272    -1.741785278305     1.007825032070
         H            1.939162968364     0.624144698962    -1.818023922645     1.007825032070
         H            1.110780518815     0.476944273534    -3.337612898406     1.007825032070

  Nuclear repulsion =  416.185167359876971

  ==> Basis Set <==

  Basis Set: 6-31G*
    Blend: 6-31G*
    Number of shells: 72
    Number of basis function: 153
    Number of Cartesian functions: 153
    Spherical Harmonics?: false
    Max angular momentum: 2

  ==> DFJKGrad: Density-Fitted SCF Gradients <==

    Gradient:                    1
    J tasked:                  Yes
    K tasked:                  Yes
    wK tasked:                  No
    OpenMP threads:              4
    Integrals threads:           4
    Memory (MB):              2002
    Schwarz Cutoff:          0E+00
    Fitting Condition:       1E-12

   => Auxiliary Basis Set <=

  Basis Set: (6-31G* AUX)
    Blend: CC-PVDZ-JKFIT
    Number of shells: 297
    Number of basis function: 954
    Number of Cartesian functions: 954
    Spherical Harmonics?: false
    Max angular momentum: 3

  ==> DFT Potential <==

   => Composite Functional: B3LYP-D3ZERO <= 

    B3LYP-d3zero Hyb-GGA Exchange-Correlation Functional

    P. J. Stephens, F. J. Devlin, C. F. Chabalowski, and M. J. Frisch, J. Phys. Chem. 98, 11623 (1994)

    Deriv               =              1
    GGA                 =           TRUE
    Meta                =          FALSE

    Exchange Hybrid     =           TRUE
    MP2 Hybrid          =          FALSE

   => Exchange Functionals <=

    0.0800   Slater exchange
    0.7200         Becke 88

   => Exact (HF) Exchange <=

    0.2000               HF 

   => Correlation Functionals <=

    0.1900   Vosko, Wilk & Nusair (VWN5_RPA)
    0.8100   Lee, Yang & Parr

   => Molecular Quadrature <=

    Radial Scheme       =       TREUTLER
    Pruning Scheme      =           FLAT
    Nuclear Scheme      =       TREUTLER

    BS radius alpha     =              1
    Pruning alpha       =              1
    Radial Points       =             75
    Spherical Points    =            302
    Total Points        =         397246
    Total Blocks        =           2997
    Max Points          =            256
    Max Functions       =            151


  -Total Gradient:
     Atom            X                  Y                   Z
    ------   -----------------  -----------------  -----------------
       1        0.006788904491    -0.001989559470    -0.003050739777
       2       -0.004644223900    -0.000789313682     0.001247335600
       3       -0.000610262538     0.000331488350    -0.000806624423
       4        0.000298850571    -0.000464982223     0.000533848336
       5        0.000393448817     0.000218618538    -0.000377006723
       6        0.001112549304     0.001108850180     0.001597669923
       7       -0.001850863887     0.010266593453     0.003827611277
       8       -0.000063418991     0.001105566329    -0.000602214719
       9        0.000356572275     0.000156001346    -0.000037945526
      10       -0.000082899564    -0.000052245874     0.000149515563
      11       -0.000405956616    -0.000697019448     0.000344539924
      12       -0.000526457362    -0.001783327139    -0.000620913418
      13       -0.000527785008    -0.004122739622    -0.001508783773
      14        0.001673643305    -0.000887253787    -0.003848499965
      15        0.000172389092    -0.000342537896    -0.000429295476
      16       -0.005732977850    -0.001570348406     0.002523698608
      17        0.004028848874    -0.000212885565     0.001896772784
      18       -0.000370713185    -0.000268859747    -0.000844129968


*** tstop() called on oliva.prib.upf.edu at Sat Sep 29 20:50:55 2018
Module time:
	user time   =      30.13 seconds =       0.50 minutes
	system time =       0.27 seconds =       0.00 minutes
	total time  =          8 seconds =       0.13 minutes
Total time:
	user time   =     238.33 seconds =       3.97 minutes
	system time =       2.04 seconds =       0.03 minutes
	total time  =         67 seconds =       1.12 minutes

			-----------------------------------------
			 OPTKING 2.0: for geometry optimizations 
			  - R.A. King,  Bethel University        
			-----------------------------------------
	At level 1: Red. Int., RFO, no backsteps, dynamic trust

	Previous internal coordinate definitions found.
	---Fragment 1 Geometry and Gradient---
	 C           0.0781250065        0.0328779156       -0.3335381346
	 C           0.1527312373        2.3278024706        0.9956960025
	 C           0.1040318401        2.2923984937        3.6276975062
	 C          -0.0193190485       -0.0086608879        4.9211835208
	 C          -0.1278864513       -2.2880628282        3.5891965884
	 C          -0.1128708817       -2.2809580148        0.9567751960
	 C           0.0106915285        0.0583157335       -3.1191196902
	 H           0.2316499091        4.1148629503       -0.0188277458
	 H           0.1646144120        4.0602405543        4.6661956072
	 H          -0.0485774405       -0.0251226774        6.9728070564
	 H          -0.2439508604       -4.0720564988        4.5986252008
	 H          -0.2145626684       -4.0527496115       -0.0855134619
	 N           2.0462416985        0.7786758269       -4.3928508126
	 N          -2.0340630477       -0.7959338698       -4.3047581374
	 H          -2.1326408427       -1.0043455877       -6.2090666020
	 H          -3.6177723023       -1.2180405747       -3.2914971583
	 H           3.6644869372        1.1794625483       -3.4355673168
	 H           2.0990709743        0.9012940576       -6.3071743156
	             0.0067889045       -0.0019895595       -0.0030507398
	            -0.0046442239       -0.0007893137        0.0012473356
	            -0.0006102625        0.0003314883       -0.0008066244
	             0.0002988506       -0.0004649822        0.0005338483
	             0.0003934488        0.0002186185       -0.0003770067
	             0.0011125493        0.0011088502        0.0015976699
	            -0.0018508639        0.0102665935        0.0038276113
	            -0.0000634190        0.0011055663       -0.0006022147
	             0.0003565723        0.0001560013       -0.0000379455
	            -0.0000828996       -0.0000522459        0.0001495156
	            -0.0004059566       -0.0006970194        0.0003445399
	            -0.0005264574       -0.0017833271       -0.0006209134
	            -0.0005277850       -0.0041227396       -0.0015087838
	             0.0016736433       -0.0008872538       -0.0038485000
	             0.0001723891       -0.0003425379       -0.0004292955
	            -0.0057329779       -0.0015703484        0.0025236986
	             0.0040288489       -0.0002128856        0.0018967728
	            -0.0003707132       -0.0002688597       -0.0008441300

	---Fragment 1 Intrafragment Coordinates---
	 - Coordinate -           - BOHR/RAD -       - ANG/DEG -
	 R(1,2)           =         2.653132	       1.403977
	 R(1,6)           =         2.656167	       1.405583
	 R(1,7)           =         2.786514	       1.474560
	 R(2,3)           =         2.632690	       1.393160
	 R(2,8)           =         2.056471	       1.088237
	 R(3,4)           =         2.642574	       1.398390
	 R(3,9)           =         2.051198	       1.085447
	 R(4,5)           =         2.642281	       1.398235
	 R(4,10)          =         2.051898	       1.085818
	 R(5,6)           =         2.632474	       1.393045
	 R(5,11)          =         2.053059	       1.086432
	 R(6,12)          =         2.058143	       1.089122
	 R(7,13)          =         2.506945	       1.326618
	 R(7,14)          =         2.513265	       1.329963
	 R(13,17)         =         1.922431	       1.017306
	 R(13,18)         =         1.918974	       1.015477
	 R(14,15)         =         1.918214	       1.015075
	 R(14,16)         =         1.926916	       1.019680
	 B(1,2,3)         =         2.081421	     119.256637
	 B(1,2,8)         =         2.100856	     120.370207
	 B(1,6,5)         =         2.081203	     119.244120
	 B(1,6,12)        =         2.103033	     120.494920
	 B(1,7,13)        =         2.083901	     119.398744
	 B(1,7,14)        =         2.080800	     119.221043
	 B(2,1,6)         =         2.108482	     120.807108
	 B(2,1,7)         =         2.087046	     119.578938
	 B(2,3,4)         =         2.096619	     120.127437
	 B(2,3,9)         =         2.087503	     119.605125
	 B(3,2,8)         =         2.100873	     120.371149
	 B(3,4,5)         =         2.101739	     120.420772
	 B(3,4,10)        =         2.091010	     119.806051
	 B(4,3,9)         =         2.099062	     120.267400
	 B(4,5,6)         =         2.096165	     120.101426
	 B(4,5,11)        =         2.099109	     120.270073
	 B(5,4,10)        =         2.090394	     119.770735
	 B(5,6,12)        =         2.098796	     120.252162
	 B(6,1,7)         =         2.084986	     119.460924
	 B(6,5,11)        =         2.087858	     119.625477
	 B(7,13,17)       =         2.083336	     119.366341
	 B(7,13,18)       =         2.150246	     123.200041
	 B(7,14,15)       =         2.149659	     123.166389
	 B(7,14,16)       =         2.088704	     119.673948
	 B(13,7,14)       =         2.115987	     121.237141
	 B(15,14,16)      =         2.044288	     117.129062
	 B(17,13,18)      =         2.049076	     117.403421
	 D(1,2,3,4)       =        -0.000641	      -0.036737
	 D(1,2,3,9)       =         3.139704	     179.891776
	 D(1,6,5,4)       =         0.028478	       1.631664
	 D(1,6,5,11)      =        -3.124123	    -178.999037
	 D(1,7,13,17)     =         0.077726	       4.453369
	 D(1,7,13,18)     =        -3.099689	    -177.599076
	 D(1,7,14,15)     =        -3.025005	    -173.320028
	 D(1,7,14,16)     =         0.152741	       8.751397
	 D(2,1,6,5)       =        -0.043980	      -2.519895
	 D(2,1,6,12)      =         3.116396	     178.556326
	*D(2,1,7,13)      =         1.221731	      70.000005
	 D(2,1,7,14)      =        -1.994791	    -114.293118
	 D(2,3,4,5)       =        -0.014555	      -0.833968
	 D(2,3,4,10)      =         3.136982	     179.735846
	 D(3,2,1,6)       =         0.030051	       1.721787
	 D(3,2,1,7)       =         3.092744	     177.201188
	 D(3,4,5,6)       =         0.000409	       0.023450
	 D(3,4,5,11)      =        -3.130104	    -179.341748
	 D(4,3,2,8)       =         3.131989	     179.449771
	 D(4,5,6,12)      =        -3.131852	    -179.441888
	 D(5,4,3,9)       =         3.128293	     179.237997
	 D(5,6,1,7)       =        -3.106766	    -178.004575
	 D(6,1,2,8)       =        -3.102580	    -177.764725
	 D(6,1,7,13)      =        -1.997690	    -114.459231
	 D(6,1,7,14)      =         1.068973	      61.247646
	 D(6,5,4,10)      =         3.132060	     179.453838
	 D(7,1,2,8)       =        -0.039886	      -2.285325
	 D(7,1,6,12)      =         0.053610	       3.071646
	 D(8,2,3,9)       =        -0.010851	      -0.621717
	 D(9,3,4,10)      =        -0.003354	      -0.192189
	 D(10,4,5,11)     =         0.001547	       0.088640
	 D(11,5,6,12)     =        -0.001267	      -0.072589
	 D(13,7,14,15)    =         0.040236	       2.305370
	 D(13,7,14,16)    =        -3.065203	    -175.623204
	 D(14,7,13,17)    =        -2.987382	    -171.164391
	 D(14,7,13,18)    =         0.118389	       6.783164

	Current energy   :      -381.4660299757

	Energy change for the previous step:
		Projected    :        -0.0006619180
		Actual       :        -0.0011371277
	Energy ratio indicates good step: Trust radius increased to 1.000e+00.


	Performing BFGS update.
	Previous computed or guess Hessian on step 1.
	Steps to be used in Hessian update: 1
	Taking RFO optimization step.
	Going to follow RFO solution 1.
	Using RFO vector 1.
	Norm of target step-size    0.11644
	Projected energy change by RFO approximation:        -0.0002870914

	Back-transformation to cartesian coordinates...
	Could not converge backtransformation.
	Using first guess instead.

	Back-transformation to cartesian coordinates to adjust frozen coordinates...
	Successfully converged to displaced geometry.

	--- Internal Coordinate Step in ANG or DEG, aJ/ANG or AJ/DEG ---
	 ---------------------------------------------------------------------------
	   Coordinate                Previous        Force       Change         New 
	   ----------                --------       ------       ------       ------
	    1 R(1,2)          =      1.403977    -0.001864    -0.000576     1.403401
	    2 R(1,6)          =      1.405583    -0.011169    -0.001677     1.403906
	    3 R(1,7)          =      1.474560     0.012600     0.003089     1.477649
	    4 R(2,3)          =      1.393160     0.001818     0.000571     1.393731
	    5 R(2,8)          =      1.088237    -0.010340    -0.001619     1.086618
	    6 R(3,4)          =      1.398390    -0.006952    -0.000908     1.397482
	    7 R(3,9)          =      1.085447    -0.001036    -0.000103     1.085344
	    8 R(4,5)          =      1.398235    -0.001069    -0.000187     1.398048
	    9 R(4,10)         =      1.085818    -0.001247    -0.000154     1.085663
	   10 R(5,6)          =      1.393045    -0.000262     0.000189     1.393234
	   11 R(5,11)         =      1.086432    -0.006577    -0.001045     1.085387
	   12 R(6,12)         =      1.089122    -0.015453    -0.002502     1.086620
	   13 R(7,13)         =      1.326618    -0.011919    -0.001558     1.325060
	   14 R(7,14)         =      1.329963    -0.040737    -0.004205     1.325758
	   15 R(13,17)        =      1.017306    -0.035345    -0.003306     1.014001
	   16 R(13,18)        =      1.015477    -0.006713    -0.000604     1.014873
	   17 R(14,15)        =      1.015075    -0.003739     0.000123     1.015198
	   18 R(14,16)        =      1.019680    -0.052602    -0.006243     1.013437
	   19 B(1,2,3)        =    119.256637    -0.000009    -0.058540   119.198097
	   20 B(1,2,8)        =    120.370207     0.000003    -0.023460   120.346747
	   21 B(1,6,5)        =    119.244120    -0.000024    -0.122085   119.122035
	   22 B(1,6,12)       =    120.494920    -0.000019    -0.120385   120.374535
	   23 B(1,7,13)       =    119.398744    -0.000006    -0.041403   119.357341
	   24 B(1,7,14)       =    119.221043    -0.000011    -0.080497   119.140546
	   25 B(2,1,6)        =    120.807108     0.000036     0.145445   120.952553
	   26 B(2,1,7)        =    119.578938     0.000002    -0.074814   119.504124
	   27 B(2,3,4)        =    120.127437    -0.000023    -0.055435   120.072001
	   28 B(2,3,9)        =    119.605125     0.000021     0.068760   119.673885
	   29 B(3,2,8)        =    120.371149     0.000006     0.083255   120.454405
	   30 B(3,4,5)        =    120.420772     0.000012     0.038275   120.459047
	   31 B(3,4,10)       =    119.806051    -0.000010    -0.034926   119.771125
	   32 B(4,3,9)        =    120.267400     0.000002    -0.014473   120.252927
	   33 B(4,5,6)        =    120.101426     0.000007     0.027690   120.129117
	   34 B(4,5,11)       =    120.270073    -0.000007    -0.022362   120.247712
	   35 B(5,4,10)       =    119.770735    -0.000002    -0.001951   119.768783
	   36 B(5,6,12)       =    120.252162     0.000042     0.230680   120.482843
	   37 B(6,1,7)        =    119.460924    -0.000039    -0.213664   119.247260
	   38 B(6,5,11)       =    119.625477     0.000000    -0.003349   119.622128
	   39 B(7,13,17)      =    119.366341    -0.000038    -0.216566   119.149776
	   40 B(7,13,18)      =    123.200041     0.000055     0.316652   123.516693
	   41 B(7,14,15)      =    123.166389     0.000055     0.286078   123.452467
	   42 B(7,14,16)      =    119.673948    -0.000099    -0.508682   119.165266
	   43 B(13,7,14)      =    121.237141     0.000020     0.203663   121.440804
	   44 B(15,14,16)     =    117.129062     0.000044     0.213046   117.342107
	   45 B(17,13,18)     =    117.403421    -0.000014    -0.081520   117.321900
	   46 D(1,2,3,4)      =     -0.036737    -0.000001    -0.193592    -0.230329
	   47 D(1,2,3,9)      =    179.891776     0.000003     0.273093   180.164869
	   48 D(1,6,5,4)      =      1.631664     0.000002     0.540787     2.172450
	   49 D(1,6,5,11)     =   -178.999037     0.000005     0.800883  -178.198154
	   50 D(1,7,13,17)    =      4.453369    -0.000013    -2.362870     2.090499
	   51 D(1,7,13,18)    =   -177.599076     0.000008     0.964816  -176.634260
	   52 D(1,7,14,15)    =   -173.320028    -0.000010    -1.689703  -175.009731
	   53 D(1,7,14,16)    =      8.751397    -0.000006    -1.392460     7.358937
	   54 D(2,1,6,5)      =     -2.519895    -0.000002    -0.688881    -3.208776
	   55 D(2,1,6,12)     =    178.556326     0.000002    -0.122743   178.433583
	   56 *D(2,1,7,13)    =     70.000005    -0.000000    -0.000000    70.000005
	   57 D(2,1,7,14)     =   -114.293118     0.000010     1.487276  -112.805842
	   58 D(2,3,4,5)      =     -0.833968     0.000001     0.057468    -0.776499
	   59 D(2,3,4,10)     =    179.735846    -0.000001    -0.139632   179.596213
	   60 D(3,2,1,6)      =      1.721787     0.000002     0.516935     2.238722
	   61 D(3,2,1,7)      =    177.201188    -0.000005    -1.258672   175.942515
	   62 D(3,4,5,6)      =      0.023450    -0.000002    -0.234283    -0.210832
	   63 D(3,4,5,11)     =   -179.341748    -0.000004    -0.496143  -179.837891
	   64 D(4,3,2,8)      =    179.449771    -0.000001     0.005609   179.455379
	   65 D(4,5,6,12)     =   -179.441888    -0.000002    -0.029845  -179.471734
	   66 D(5,4,3,9)      =    179.237997    -0.000002    -0.412004   178.825993
	   67 D(5,6,1,7)      =   -178.004575     0.000004     1.076074  -176.928502
	   68 D(6,1,2,8)      =   -177.764725     0.000002     0.317393  -177.447332
	   69 D(6,1,7,13)     =   -114.459231    -0.000006    -1.728840  -116.188071
	   70 D(6,1,7,14)     =     61.247646     0.000004    -0.241564    61.006082
	   71 D(6,5,4,10)     =    179.453838     0.000000    -0.037374   179.416464
	   72 D(7,1,2,8)      =     -2.285325    -0.000005    -1.458214    -3.743539
	   73 D(7,1,6,12)     =      3.071646     0.000009     1.642211     4.713857
	   74 D(8,2,3,9)      =     -0.621717     0.000002     0.472294    -0.149423
	   75 D(9,3,4,10)     =     -0.192189    -0.000004    -0.609104    -0.801294
	   76 D(10,4,5,11)    =      0.088640    -0.000002    -0.299235    -0.210595
	   77 D(11,5,6,12)    =     -0.072589     0.000000     0.230251     0.157662
	   78 D(13,7,14,15)   =      2.305370     0.000000    -0.181508     2.123862
	   79 D(13,7,14,16)   =   -175.623204     0.000004     0.115734  -175.507470
	   80 D(14,7,13,17)   =   -171.164391    -0.000023    -3.872618  -175.037009
	   81 D(14,7,13,18)   =      6.783164    -0.000002    -0.544931     6.238232
	 ---------------------------------------------------------------------------
	Successfully symmetrized geometry.

  ==> Convergence Check <==

  Measures of convergence in internal coordinates in au.
  Criteria marked as inactive (o), active & met (*), and active & unmet ( ).
  ---------------------------------------------------------------------------------------------
   Step     Total Energy     Delta E     MAX Force     RMS Force      MAX Disp      RMS Disp   
  ---------------------------------------------------------------------------------------------
    Convergence Criteria    1.00e-06 *    3.00e-04 *             o    1.20e-03 *             o
  ---------------------------------------------------------------------------------------------
      2    -381.46602998   -1.14e-03      6.38e-03      1.15e-03 o    6.76e-02      1.29e-02 o  ~
  ---------------------------------------------------------------------------------------------

	Writing optimization data to binary file.
	Structure for next step:
	Cartesian Geometry (in Angstrom)
	    C     0.0638938751   0.0068980899  -0.1754092686
	    C     0.0961105036   1.2241849299   0.5222364548
	    C     0.0544992841   1.2107679465   1.9152812400
	    C    -0.0232439138  -0.0039394571   2.6018658906
	    C    -0.0762189431  -1.2122446319   1.9006305901
	    C    -0.0562293592  -1.2137990805   0.5075407844
	    C     0.0166479638   0.0155790395  -1.6522769476
	    H     0.1476835195   2.1654742273  -0.0181834091
	    H     0.0762798655   2.1477903699   2.4625346008
	    H    -0.0487581183  -0.0090218455   3.6872175400
	    H    -0.1392029735  -2.1535561483   2.4373152058
	    H    -0.1057631545  -2.1490792825  -0.0434044766
	    N     1.0838033078   0.4055824643  -2.3340843755
	    N    -1.0745584554  -0.4207937107  -2.2658574725
	    H    -1.1508697436  -0.5126192522  -3.2740102576
	    H    -1.8947230312  -0.6454763963  -1.7145839067
	    H     1.9257482248   0.6610625750  -1.8300442512
	    H     1.1049011486   0.4831901628  -3.3457659412
			--------------------------
			 OPTKING Finished Execution 
			--------------------------

    Structure for next step:
    Molecular point group: c1
    Full point group: C1

    Geometry (in Angstrom), charge = 1, multiplicity = 1:

    C            0.063893875121     0.006898089916    -0.175409268598
    C            0.096110503647     1.224184929908     0.522236454806
    C            0.054499284119     1.210767946479     1.915281240038
    C           -0.023243913810    -0.003939457092     2.601865890583
    C           -0.076218943149    -1.212244631859     1.900630590116
    C           -0.056229359227    -1.213799080522     0.507540784360
    C            0.016647963755     0.015579039463    -1.652276947588
    H            0.147683519539     2.165474227299    -0.018183409052
    H            0.076279865467     2.147790369917     2.462534600764
    H           -0.048758118325    -0.009021845477     3.687217540021
    H           -0.139202973532    -2.153556148336     2.437315205769
    H           -0.105763154544    -2.149079282515    -0.043404476559
    N            1.083803307787     0.405582464265    -2.334084375531
    N           -1.074558455398    -0.420793710707    -2.265857472464
    H           -1.150869743619    -0.512619252234    -3.274010257641
    H           -1.894723031225    -0.645476396327    -1.714583906673
    H            1.925748224788     0.661062575013    -1.830044251183
    H            1.104901148607     0.483190162807    -3.345765941168

gradient() will perform analytic gradient computation.

*** tstart() called on oliva.prib.upf.edu
*** at Sat Sep 29 20:50:55 2018

   => Loading Basis Set <=

    Name: 6-31G*
    Role: ORBITAL
    Keyword: BASIS
    atoms 1-7         entry C          line   111 file /shared/joao/test_parameterize/miniconda3/share/psi4/basis/6-31gs.gbs 
    atoms 8-12, 15-18 entry H          line    44 file /shared/joao/test_parameterize/miniconda3/share/psi4/basis/6-31gs.gbs 
    atoms 13-14       entry N          line   128 file /shared/joao/test_parameterize/miniconda3/share/psi4/basis/6-31gs.gbs 


         ---------------------------------------------------------
                                   SCF
            by Justin Turney, Rob Parrish, Andy Simmonett
                             and Daniel Smith
                              RKS Reference
                        4 Threads,   2861 MiB Core
         ---------------------------------------------------------

  ==> Geometry <==

    Molecular point group: c1
    Full point group: C1

    Geometry (in Angstrom), charge = 1, multiplicity = 1:

[...]
	             0.0000127868       -0.0000018843        0.0000036688
	            -0.0044125441        0.0066695347        0.0001154062
	            -0.0000075359        0.0000036856       -0.0000015484
	            -0.0000000368       -0.0000014621        0.0000018309
	             0.0000028695       -0.0000004881        0.0000024734
	            -0.0000024933       -0.0000000814        0.0000048253
	             0.0000019784       -0.0000054045       -0.0000056337
	             0.0015693237       -0.0045887973       -0.0000534192
	             0.0000293575       -0.0000255544       -0.0000131018
	             0.0000000591        0.0000133199        0.0000064526
	            -0.0000132383       -0.0000012705        0.0000127729
	            -0.0000054093       -0.0000037842       -0.0000016484
	             0.0000032484       -0.0000045650       -0.0000000047

	---Fragment 1 Intrafragment Coordinates---
	 - Coordinate -           - BOHR/RAD -       - ANG/DEG -
	 R(1,2)           =         2.652118	       1.403440
	 R(1,6)           =         2.653058	       1.403938
	 R(1,7)           =         2.793666	       1.478344
	 R(2,3)           =         2.633695	       1.393691
	 R(2,8)           =         2.053065	       1.086435
	 R(3,4)           =         2.640742	       1.397421
	 R(3,9)           =         2.050836	       1.085256
	 R(4,5)           =         2.641893	       1.398029
	 R(4,10)          =         2.051548	       1.085633
	 R(5,6)           =         2.632773	       1.393203
	 R(5,11)          =         2.050899	       1.085289
	 R(6,12)          =         2.052940	       1.086369
	 R(7,13)          =         2.504393	       1.325268
	 R(7,14)          =         2.504278	       1.325207
	 R(13,17)         =         1.913282	       1.012465
	 R(13,18)         =         1.917245	       1.014563
	 R(14,15)         =         1.917179	       1.014527
	 R(14,16)         =         1.913234	       1.012440
	 B(1,2,3)         =         2.080173	     119.185153
	 B(1,2,8)         =         2.101840	     120.426567
	 B(1,6,5)         =         2.079232	     119.131215
	 B(1,6,12)        =         2.101285	     120.394772
	 B(1,7,13)        =         2.082399	     119.312646
	 B(1,7,14)        =         2.078737	     119.102856
	 B(2,1,6)         =         2.111427	     120.975879
	 B(2,1,7)         =         2.084485	     119.432170
	 B(2,3,4)         =         2.095526	     120.064810
	 B(2,3,9)         =         2.088852	     119.682383
	 B(3,2,8)         =         2.101132	     120.385970
	 B(3,4,5)         =         2.103009	     120.493543
	 B(3,4,10)        =         2.090257	     119.762891
	 B(4,3,9)         =         2.098785	     120.251532
	 B(4,5,6)         =         2.096195	     120.103139
	 B(4,5,11)        =         2.098352	     120.226726
	 B(5,4,10)        =         2.089905	     119.742760
	 B(5,6,12)        =         2.102255	     120.450346
	 B(6,1,7)         =         2.083376	     119.368641
	 B(6,5,11)        =         2.088629	     119.669635
	 B(7,13,17)       =         2.079651	     119.155198
	 B(7,13,18)       =         2.155561	     123.504558
	 B(7,14,15)       =         2.154752	     123.458167
	 B(7,14,16)       =         2.079669	     119.156244
	 B(13,7,14)       =         2.120569	     121.499633
	 B(15,14,16)      =         2.048475	     117.368995
	 B(17,13,18)      =         2.047073	     117.288630
	 D(1,2,3,4)       =        -0.002562	      -0.146768
	 D(1,2,3,9)       =        -3.137002	    -179.736985
	 D(1,6,5,4)       =         0.032463	       1.859975
	 D(1,6,5,11)      =        -3.113609	    -178.396640
	 D(1,7,13,17)     =         0.020374	       1.167371
	 D(1,7,13,18)     =        -3.074328	    -176.146016
	 D(1,7,14,15)     =        -3.052050	    -174.869583
	 D(1,7,14,16)     =         0.116114	       6.652861
	 D(2,1,6,5)       =        -0.046499	      -2.664203
	 D(2,1,6,12)      =         3.125837	     179.097273
	*D(2,1,7,13)      =         1.221731	      70.000005
	 D(2,1,7,14)      =        -1.977435	    -113.298693
	 D(2,3,4,5)       =        -0.011044	      -0.632746
	 D(2,3,4,10)      =         3.136265	     179.694724
	 D(3,2,1,6)       =         0.031554	       1.807890
	 D(3,2,1,7)       =         3.077783	     176.343960
	 D(3,4,5,6)       =        -0.004158	      -0.238207
	 D(3,4,5,11)      =        -3.141246	    -179.980150
	 D(4,3,2,8)       =         3.129422	     179.302684
	 D(4,5,6,12)      =        -3.139891	    -179.902505
	 D(5,4,3,9)       =         3.123356	     178.955117
	 D(5,6,1,7)       =        -3.092788	    -177.203697
	 D(6,1,2,8)       =        -3.100426	    -177.641333
	 D(6,1,7,13)      =        -2.013678	    -115.375271
	 D(6,1,7,14)      =         1.070341	      61.326032
	 D(6,5,4,10)      =         3.131721	     179.434388
	 D(7,1,2,8)       =        -0.054197	      -3.105263
	 D(7,1,6,12)      =         0.079548	       4.557780
	 D(8,2,3,9)       =        -0.005018	      -0.287533
	 D(9,3,4,10)      =        -0.012521	      -0.717413
	 D(10,4,5,11)     =        -0.005368	      -0.307555
	 D(11,5,6,12)     =        -0.002777	      -0.159120
	 D(13,7,14,15)    =         0.030664	       1.756898
	 D(13,7,14,16)    =        -3.084357	    -176.720659
	 D(14,7,13,17)    =        -3.062218	    -175.452189
	 D(14,7,13,18)    =         0.126265	       7.234424

	Current energy   :      -381.4662661605

	Energy change for the previous step:
		Projected    :        -0.0000005987
		Actual       :        -0.0000002809

	Performing BFGS update.
	Previous computed or guess Hessian on step 1.
	Steps to be used in Hessian update: 5 4
	Taking RFO optimization step.
	Going to follow RFO solution 1.
	Rejecting RFO root 1 because normalization gives large value.
	Rejecting RFO root 2 because normalization gives large value.
	Using RFO vector 3.
	Norm of target step-size    0.00144
	Projected energy change by RFO approximation:        -0.0000000208

	Back-transformation to cartesian coordinates...
	Could not converge backtransformation.
	Using first guess instead.

	Back-transformation to cartesian coordinates to adjust frozen coordinates...
	Successfully converged to displaced geometry.

	--- Internal Coordinate Step in ANG or DEG, aJ/ANG or AJ/DEG ---
	 ---------------------------------------------------------------------------
	   Coordinate                Previous        Force       Change         New 
	   ----------                --------       ------       ------       ------
	    1 R(1,2)          =      1.403440     0.000079     0.000013     1.403453
	    2 R(1,6)          =      1.403938    -0.000065    -0.000012     1.403926
	    3 R(1,7)          =      1.478344    -0.000253    -0.000048     1.478297
	    4 R(2,3)          =      1.393691    -0.000038    -0.000003     1.393688
	    5 R(2,8)          =      1.086435    -0.000029    -0.000001     1.086434
	    6 R(3,4)          =      1.397421     0.000035     0.000003     1.397424
	    7 R(3,9)          =      1.085256     0.000005     0.000001     1.085257
	    8 R(4,5)          =      1.398029     0.000006    -0.000002     1.398027
	    9 R(4,10)         =      1.085633    -0.000018    -0.000002     1.085630
	   10 R(5,6)          =      1.393203    -0.000029    -0.000004     1.393200
	   11 R(5,11)         =      1.085289    -0.000023    -0.000002     1.085287
	   12 R(6,12)         =      1.086369    -0.000064    -0.000005     1.086365
	   13 R(7,13)         =      1.325268     0.000220     0.000022     1.325290
	   14 R(7,14)         =      1.325207     0.000060     0.000009     1.325216
	   15 R(13,17)        =      1.012465     0.000069     0.000022     1.012487
	   16 R(13,18)        =      1.014563    -0.000003     0.000004     1.014566
	   17 R(14,15)        =      1.014527     0.000065     0.000013     1.014540
	   18 R(14,16)        =      1.012440    -0.000163    -0.000007     1.012432
	   19 B(1,2,3)        =    119.185153     0.000000     0.002223   119.187375
	   20 B(1,2,8)        =    120.426567    -0.000000    -0.000117   120.426450
	   21 B(1,6,5)        =    119.131215     0.000000     0.001983   119.133199
	   22 B(1,6,12)       =    120.394772     0.000000     0.000047   120.394819
	   23 B(1,7,13)       =    119.312646     0.000001     0.002539   119.315185
	   24 B(1,7,14)       =    119.102856     0.000000     0.003879   119.106736
	   25 B(2,1,6)        =    120.975879    -0.000000    -0.003831   120.972047
	   26 B(2,1,7)        =    119.432170     0.000000     0.000210   119.432380
	   27 B(2,3,4)        =    120.064810    -0.000000    -0.000046   120.064765
	   28 B(2,3,9)        =    119.682383    -0.000000    -0.000589   119.681793
	   29 B(3,2,8)        =    120.385970    -0.000000    -0.001919   120.384051
	   30 B(3,4,5)        =    120.493543    -0.000000    -0.001855   120.491688
	   31 B(3,4,10)       =    119.762891     0.000000     0.000883   119.763774
	   32 B(4,3,9)        =    120.251532     0.000000     0.000705   120.252237
	   33 B(4,5,6)        =    120.103139     0.000000     0.000918   120.104057
	   34 B(4,5,11)       =    120.226726     0.000000     0.000937   120.227663
	   35 B(5,4,10)       =    119.742760     0.000000     0.000930   119.743690
	   36 B(5,6,12)       =    120.450346    -0.000000    -0.002421   120.447926
	   37 B(6,1,7)        =    119.368641     0.000000     0.003675   119.372316
	   38 B(6,5,11)       =    119.669635    -0.000000    -0.001791   119.667844
	   39 B(7,13,17)      =    119.155198     0.000000     0.000406   119.155604
	   40 B(7,13,18)      =    123.504558    -0.000000    -0.001538   123.503020
	   41 B(7,14,15)      =    123.458167    -0.000000    -0.000440   123.457728
	   42 B(7,14,16)      =    119.156244     0.000000     0.002452   119.158696
	   43 B(13,7,14)      =    121.499633    -0.000001    -0.006041   121.493593
	   44 B(15,14,16)     =    117.368995    -0.000000    -0.001039   117.367955
	   45 B(17,13,18)     =    117.288630    -0.000000     0.000031   117.288661
	   46 D(1,2,3,4)      =     -0.146768    -0.000000    -0.005301    -0.152069
	   47 D(1,2,3,9)      =   -179.736985    -0.000000    -0.016741  -179.753726
	   48 D(1,6,5,4)      =      1.859975     0.000000     0.000980     1.860955
	   49 D(1,6,5,11)     =   -178.396640     0.000000     0.017935  -178.378705
	   50 D(1,7,13,17)    =      1.167371    -0.000000    -0.005784     1.161587
	   51 D(1,7,13,18)    =   -176.146016     0.000000     0.022712  -176.123304
	   52 D(1,7,14,15)    =   -174.869583     0.000000     0.027999  -174.841584
	   53 D(1,7,14,16)    =      6.652861    -0.000000    -0.017318     6.635542
	   54 D(2,1,6,5)      =     -2.664203    -0.000000    -0.017086    -2.681290
	   55 D(2,1,6,12)     =    179.097273    -0.000000    -0.002583   179.094689
	   56 *D(2,1,7,13)    =     70.000005     0.000000    -0.000000    70.000005
	   57 D(2,1,7,14)     =   -113.298693     0.000000     0.007142  -113.291551
	   58 D(2,3,4,5)      =     -0.632746    -0.000000    -0.010720    -0.643466
	   59 D(2,3,4,10)     =    179.694724     0.000000    -0.002175   179.692549
	   60 D(3,2,1,6)      =      1.807890     0.000000     0.019270     1.827161
	   61 D(3,2,1,7)      =    176.343960     0.000000     0.020132   176.364092
	   62 D(3,4,5,6)      =     -0.238207     0.000000     0.012954    -0.225253
	   63 D(3,4,5,11)     =   -179.980150    -0.000000    -0.004090  -179.984240
	   64 D(4,3,2,8)      =    179.302684     0.000000     0.017349   179.320033
	   65 D(4,5,6,12)     =   -179.902505    -0.000000    -0.013487  -179.915991
	   66 D(5,4,3,9)      =    178.955117    -0.000000     0.000781   178.955898
	   67 D(5,6,1,7)      =   -177.203697    -0.000000    -0.017761  -177.221458
	   68 D(6,1,2,8)      =   -177.641333    -0.000000    -0.003380  -177.644712
	   69 D(6,1,7,13)     =   -115.375271     0.000000     0.000437  -115.374834
	   70 D(6,1,7,14)     =     61.326032     0.000000     0.007578    61.333610
	   71 D(6,5,4,10)     =    179.434388    -0.000000     0.004411   179.438799
	   72 D(7,1,2,8)      =     -3.105263    -0.000000    -0.002518    -3.107781
	   73 D(7,1,6,12)     =      4.557780    -0.000000    -0.003258     4.554521
	   74 D(8,2,3,9)      =     -0.287533     0.000000     0.005909    -0.281624
	   75 D(9,3,4,10)     =     -0.717413     0.000000     0.009325    -0.708087
	   76 D(10,4,5,11)    =     -0.307555    -0.000000    -0.012632    -0.320187
	   77 D(11,5,6,12)    =     -0.159120    -0.000000     0.003469    -0.155651
	   78 D(13,7,14,15)   =      1.756898     0.000000     0.035605     1.792502
	   79 D(13,7,14,16)   =   -176.720659    -0.000000    -0.009713  -176.730371
	   80 D(14,7,13,17)   =   -175.452189    -0.000000    -0.013448  -175.465637
	   81 D(14,7,13,18)   =      7.234424     0.000000     0.015048     7.249472
	 ---------------------------------------------------------------------------
	Successfully symmetrized geometry.

  ==> Convergence Check <==

  Measures of convergence in internal coordinates in au.
  Criteria marked as inactive (o), active & met (*), and active & unmet ( ).
  ---------------------------------------------------------------------------------------------
   Step     Total Energy     Delta E     MAX Force     RMS Force      MAX Disp      RMS Disp   
  ---------------------------------------------------------------------------------------------
    Convergence Criteria    1.00e-06 *    3.00e-04 *             o    1.20e-03 *             o
  ---------------------------------------------------------------------------------------------
      6    -381.46626616   -2.81e-07 *    3.08e-05 *    6.63e-06 o    6.21e-04 *    1.60e-04 o  ~
  ---------------------------------------------------------------------------------------------


  **** Optimization is complete! (in 6 steps) ****

  ==> Optimization Summary <==

  Measures of convergence in internal coordinates in au.
  --------------------------------------------------------------------------------------------------------------- ~
   Step         Total Energy             Delta E       MAX Force       RMS Force        MAX Disp        RMS Disp  ~
  --------------------------------------------------------------------------------------------------------------- ~
      1    -381.464892848054   -381.464892848054      0.00494363      0.00152655      0.15275750      0.03548595  ~
      2    -381.466029975722     -0.001137127668      0.00638478      0.00114553      0.06758993      0.01293386  ~
      3    -381.466242461259     -0.000212485536      0.00134740      0.00024212      0.01968342      0.00503923  ~
      4    -381.466262663174     -0.000020201915      0.00070021      0.00011505      0.00595728      0.00154762  ~
      5    -381.466265879623     -0.000003216449      0.00013839      0.00002781      0.00253033      0.00058162  ~
      6    -381.466266160511     -0.000000280888      0.00003076      0.00000663      0.00062142      0.00016031  ~
  --------------------------------------------------------------------------------------------------------------- ~

	Writing optimization data to binary file.
	Final energy is   -381.4662661605112
	Final (previous) structure:
	Cartesian Geometry (in Angstrom)
	    C     0.0553469238   0.0073174664  -0.1757183110
	    C     0.0967283007   1.2244748711   0.5217483884
	    C     0.0588882769   1.2110899671   1.9148616920
	    C    -0.0223987920  -0.0033664590   2.6013547107
	    C    -0.0797168088  -1.2118363380   1.9007823346
	    C    -0.0611041034  -1.2135073670   0.5077044606
	    C     0.0130746047   0.0178922438  -1.6534203943
	    H     0.1485204422   2.1661735273  -0.0175685493
	    H     0.0861167278   2.1477982881   2.4622335157
	    H    -0.0465670064  -0.0083464312   3.6867068365
	    H    -0.1431036496  -2.1525164446   2.4383284063
	    H    -0.1069763176  -2.1491786931  -0.0423982558
	    N     1.0868038342   0.3986656377  -2.3305114154
	    N    -1.0763468112  -0.4167553813  -2.2701988682
	    H    -1.1492878224  -0.5094223066  -3.2778487325
	    H    -1.8938031246  -0.6512899134  -1.7208420340
	    H     1.9234122012   0.6587077662  -1.8230170092
	    H     1.1104131245   0.4840995665  -3.3411947753
	Saving final (previous) structure.
	Removing binary optimization data file.
			--------------------------
			 OPTKING Finished Execution 
			--------------------------

    Final optimized geometry and variables:
    Molecular point group: c1
    Full point group: C1

    Geometry (in Angstrom), charge = 1, multiplicity = 1:

    C            0.055346923819     0.007317466353    -0.175718310988
    C            0.096728300736     1.224474871066     0.521748388422
    C            0.058888276869     1.211089967146     1.914861692039
    C           -0.022398792008    -0.003366458973     2.601354710658
    C           -0.079716808799    -1.211836337971     1.900782334624
    C           -0.061104103384    -1.213507367049     0.507704460641
    C            0.013074604730     0.017892243791    -1.653420394268
    H            0.148520442184     2.166173527325    -0.017568549256
    H            0.086116727787     2.147798288131     2.462233515747
    H           -0.046567006371    -0.008346431249     3.686706836506
    H           -0.143103649591    -2.152516444607     2.438328406340
    H           -0.106976317635    -2.149178693064    -0.042398255766
    N            1.086803834171     0.398665637704    -2.330511415447
    N           -1.076346811164    -0.416755381298    -2.270198868209
    H           -1.149287822435    -0.509422306586    -3.277848732546
    H           -1.893803124614    -0.651289913352    -1.720842033964
    H            1.923412201198     0.658707766159    -1.823017009239
    H            1.110413124506     0.484099566474    -3.341194775294

	Removing binary optimization data file.
	Cleaning optimization helper files.


Properties will be evaluated at   0.000000,   0.000000,   0.000000 [a0]
OEProp: No title given, name of density matrix used for the following properties is 'SCF density'
  Nuclear Dipole Moment: [e a0]
     X:     0.6932      Y:     0.0979      Z:    -0.2583

  Electronic Dipole Moment: [e a0]
     X:    -0.7190      Y:    -0.0758      Z:    -2.2168

  Dipole Moment: [e a0]
     X:    -0.0258      Y:     0.0221      Z:    -2.4752     Total:     2.4754

  Dipole Moment: [D]
     X:    -0.0655      Y:     0.0562      Z:    -6.2912     Total:     6.2918

  Quadrupole Moment: [D A]
    XX:   -43.4531     YY:   -43.6285     ZZ:   -13.5789
    XY:     4.7463     XZ:    -0.3124     YZ:    -0.1309

  Traceless Quadrupole Moment: [D A]
    XX:    -9.8996     YY:   -10.0750     ZZ:    19.9746
    XY:     4.7463     XZ:    -0.3124     YZ:    -0.1309

  Mulliken Charges: (a.u.)
   Center  Symbol    Alpha    Beta     Spin     Total
       1     C     2.98579  2.98579  0.00000  0.02843
       2     C     3.07272  3.07272  0.00000 -0.14544
       3     C     3.06194  3.06194  0.00000 -0.12387
       4     C     3.05310  3.05310  0.00000 -0.10620
       5     C     3.06321  3.06321  0.00000 -0.12642
       6     C     3.07427  3.07427  0.00000 -0.14854
       7     C     2.74219  2.74219  0.00000  0.51562
       8     H     0.41336  0.41336  0.00000  0.17328
       9     H     0.40683  0.40683  0.00000  0.18634
      10     H     0.40598  0.40598  0.00000  0.18803
      11     H     0.40680  0.40680  0.00000  0.18639
      12     H     0.41343  0.41343  0.00000  0.17314
      13     N     3.84805  3.84805  0.00000 -0.69610
      14     N     3.84899  3.84899  0.00000 -0.69798
      15     H     0.30518  0.30518  0.00000  0.38964
      16     H     0.29659  0.29659  0.00000  0.40682
      17     H     0.29621  0.29621  0.00000  0.40759
      18     H     0.30536  0.30536  0.00000  0.38927

   Total alpha = 32.00000, Total beta = 32.00000, Total charge =  1.00000


    Psi4 stopped on: Saturday, 29 September 2018 08:52PM
    Psi4 wall time for execution: 0:02:52.49

*** Psi4 exiting successfully. Buy a developer a beer!
