
    -----------------------------------------------------------------------
          Psi4: An Open-Source Ab Initio Electronic Structure Package
                               Psi4 1.2.1 release

                         Git: Rev {HEAD} 406f4de 


    R. M. Parrish, L. A. Burns, D. G. A. Smith, A. C. Simmonett,
    A. E. DePrince III, E. G. Hohenstein, U. Bozkaya, A. Yu. Sokolov,
    R. Di Remigio, R. M. Richard, J. F. Gonthier, A. M. James,
    H. R. McAlexander, A. Kumar, M. Saitow, X. Wang, B. P. Pritchard,
    P. Verma, H. F. Schaefer III, K. Patkowski, R. A. King, E. F. Valeev,
    F. A. Evangelista, J. M. Turney, T. D. Crawford, and C. D. Sherrill,
    J. Chem. Theory Comput. 13(7) pp 3185--3197 (2017).
    (doi: 10.1021/acs.jctc.7b00174)


                         Additional Contributions by
    P. Kraus, H. Kruse, M. H. Lechner, M. C. Schieber, and R. A. Shaw

    -----------------------------------------------------------------------


    Psi4 started on: Saturday, 29 September 2018 04:50PM

    Process ID: 5366
    Host:       loro.prib.upf.edu
    PSIDATADIR: /shared/joao/test_parameterize/miniconda3/share/psi4
    Memory:     500.0 MiB
    Threads:    1
    
  ==> Input File <==

--------------------------------------------------------------------------
set_num_threads(1)
set_memory('5348 MB')

set { scf_mem_safety_factor 0.7 }

set { reference rks }
set { basis cc-pVDZ }

molecule MOL {
    0 1
    noreorient
    nocom
    symmetry c1
    O    1.141000   0.017000   0.083000
    C    2.558000   0.086000  -0.005000
    C    3.192000  -0.789000   1.067000
    O    4.610000  -0.719000   0.979000
    H    0.789000   0.590000  -0.620000
    H    2.874000   1.128000   0.115000
    H    2.871000  -0.243000  -1.001000
    H    2.876000  -1.830000   0.947000
    H    2.879000  -0.459000   2.064000
    H    4.818338   0.093943   0.486450
}

set optking { frozen_dihedral = (" 2 3 4 10 ") }

energy, wfn = energy('B3LYP-D3', return_wfn=True)

import os
os.chdir(os.environ['HTMD_PSI4_WORKDIR'])

oeprop(wfn, 'DIPOLE', 'QUADRUPOLE', 'MULLIKEN_CHARGES')

with open('psi4out.xyz', 'w') as f:
    f.write('10 ' )
    f.write('%.12f\n' % energy)
    f.write(MOL.save_string_xyz())
--------------------------------------------------------------------------
  Threads set to 1 by Python driver.

  Memory set to   4.981 GiB by Python driver.

*** tstart() called on loro.prib.upf.edu
*** at Sat Sep 29 16:50:24 2018

   => Loading Basis Set <=

    Name: CC-PVDZ
    Role: ORBITAL
    Keyword: BASIS
    atoms 1, 4 entry O          line   198 file /shared/joao/test_parameterize/miniconda3/share/psi4/basis/cc-pvdz.gbs 
    atoms 2-3  entry C          line   138 file /shared/joao/test_parameterize/miniconda3/share/psi4/basis/cc-pvdz.gbs 
    atoms 5-10 entry H          line    22 file /shared/joao/test_parameterize/miniconda3/share/psi4/basis/cc-pvdz.gbs 


         ---------------------------------------------------------
                                   SCF
            by Justin Turney, Rob Parrish, Andy Simmonett
                             and Daniel Smith
                              RKS Reference
                        1 Threads,   5100 MiB Core
         ---------------------------------------------------------

  ==> Geometry <==

    Molecular point group: c1
    Full point group: C1

    Geometry (in Angstrom), charge = 0, multiplicity = 1:

       Center              X                  Y                   Z               Mass       
    ------------   -----------------  -----------------  -----------------  -----------------
         O            1.141000000000     0.017000000000     0.083000000000    15.994914619560
         C            2.558000000000     0.086000000000    -0.005000000000    12.000000000000
         C            3.192000000000    -0.789000000000     1.067000000000    12.000000000000
         O            4.610000000000    -0.719000000000     0.979000000000    15.994914619560
         H            0.789000000000     0.590000000000    -0.620000000000     1.007825032070
         H            2.874000000000     1.128000000000     0.115000000000     1.007825032070
         H            2.871000000000    -0.243000000000    -1.001000000000     1.007825032070
         H            2.876000000000    -1.830000000000     0.947000000000     1.007825032070
         H            2.879000000000    -0.459000000000     2.064000000000     1.007825032070
         H            4.818338000000     0.093943000000     0.486450000000     1.007825032070

  Running in c1 symmetry.

  Rotational constants: A =      0.81901  B =      0.02560  C =      0.02506 [cm^-1]
  Rotational constants: A =  24553.37196  B =    767.32663  C =    751.27018 [MHz]
  Nuclear repulsion =  130.112680193214544

  Charge       = 0
  Multiplicity = 1
  Electrons    = 34
  Nalpha       = 17
  Nbeta        = 17

  ==> Algorithm <==

  SCF Algorithm Type is DF.
  DIIS enabled.
  MOM disabled.
  Fractional occupation disabled.
  Guess Type is SAD.
  Energy threshold   = 1.00e-06
  Density threshold  = 1.00e-06
  Integral threshold = 0.00e+00

  ==> Primary Basis <==

  Basis Set: CC-PVDZ
    Blend: CC-PVDZ
    Number of shells: 42
    Number of basis function: 86
    Number of Cartesian functions: 90
    Spherical Harmonics?: true
    Max angular momentum: 2

  ==> DFT Potential <==

   => Composite Functional: B3LYP-D3ZERO <= 

    B3LYP-d3zero Hyb-GGA Exchange-Correlation Functional

    P. J. Stephens, F. J. Devlin, C. F. Chabalowski, and M. J. Frisch, J. Phys. Chem. 98, 11623 (1994)

    Deriv               =              1
    GGA                 =           TRUE
    Meta                =          FALSE

    Exchange Hybrid     =           TRUE
    MP2 Hybrid          =          FALSE

   => Exchange Functionals <=

    0.0800   Slater exchange
    0.7200         Becke 88

   => Exact (HF) Exchange <=

    0.2000               HF 

   => Correlation Functionals <=

    0.1900   Vosko, Wilk & Nusair (VWN5_RPA)
    0.8100   Lee, Yang & Parr

   => Molecular Quadrature <=

    Radial Scheme       =       TREUTLER
    Pruning Scheme      =           FLAT
    Nuclear Scheme      =       TREUTLER

    BS radius alpha     =              1
    Pruning alpha       =              1
    Radial Points       =             75
    Spherical Points    =            302
    Total Points        =         222531
    Total Blocks        =           1748
    Max Points          =            256
    Max Functions       =             86

   => -D3ZERO: Empirical Dispersion <=

    Grimme's -D3 (zero-damping) Dispersion Correction
    Grimme S.; Antony J.; Ehrlich S.; Krieg H. (2010), J. Chem. Phys., 132: 154104

        S6 =   1.000000E+00
        S8 =   1.703000E+00
       SR6 =   1.261000E+00
       SR8 =   1.000000E+00
    ALPHA6 =   1.400000E+01

   => Loading Basis Set <=

    Name: (CC-PVDZ AUX)
    Role: JKFIT
    Keyword: DF_BASIS_SCF
    atoms 1, 4 entry O          line   221 file /shared/joao/test_parameterize/miniconda3/share/psi4/basis/cc-pvdz-jkfit.gbs 
    atoms 2-3  entry C          line   121 file /shared/joao/test_parameterize/miniconda3/share/psi4/basis/cc-pvdz-jkfit.gbs 
    atoms 5-10 entry H          line    51 file /shared/joao/test_parameterize/miniconda3/share/psi4/basis/cc-pvdz-jkfit.gbs 

  ==> Pre-Iterations <==

   -------------------------------------------------------
    Irrep   Nso     Nmo     Nalpha   Nbeta   Ndocc  Nsocc
   -------------------------------------------------------
     A         86      86       0       0       0       0
   -------------------------------------------------------
    Total      86      86      17      17      17       0
   -------------------------------------------------------

  ==> Integral Setup <==

  DFHelper Memory: AOs need 0.030 [GiB]; user supplied 3.486 [GiB]. Using in-core AOs.

  ==> MemDFJK: Density-Fitted J/K Matrices <==

    J tasked:                   Yes
    K tasked:                   Yes
    wK tasked:                   No
    OpenMP threads:               1
    Memory (MB):               3570
    Algorithm:                 Core
    Schwarz Cutoff:           1E-12
    Mask sparsity (%):       0.2704
    Fitting Condition:        1E-12

   => Auxiliary Basis Set <=

  Basis Set: (CC-PVDZ AUX)
    Blend: CC-PVDZ-JKFIT
    Number of shells: 150
    Number of basis function: 418
    Number of Cartesian functions: 474
    Spherical Harmonics?: true
    Max angular momentum: 3

  Minimum eigenvalue in the overlap matrix is 4.9849367635E-03.
  Using Symmetric Orthogonalization.

  SCF Guess: Superposition of Atomic Densities via on-the-fly atomic UHF.

  ==> Iterations <==

                           Total Energy        Delta E     RMS |[F,P]|

   @DF-RKS iter   0:  -231.05401761409630   -2.31054e+02   4.14765e-02 
   @DF-RKS iter   1:  -230.19002867626503    8.63989e-01   4.70114e-03 
   @DF-RKS iter   2:  -230.15738481020210    3.26439e-02   6.06387e-03 DIIS
   @DF-RKS iter   3:  -230.25484642728483   -9.74616e-02   6.92989e-04 DIIS
   @DF-RKS iter   4:  -230.25614440629062   -1.29798e-03   2.10667e-04 DIIS
   @DF-RKS iter   5:  -230.25629988361808   -1.55477e-04   4.82439e-05 DIIS
   @DF-RKS iter   6:  -230.25630797513335   -8.09152e-06   5.79359e-06 DIIS
   @DF-RKS iter   7:  -230.25630803760438   -6.24710e-08   3.76254e-06 DIIS
   @DF-RKS iter   8:  -230.25630807442397   -3.68196e-08   5.29141e-07 DIIS

  ==> Post-Iterations <==

    Orbital Energies [Eh]
    ---------------------

    Doubly Occupied:                                                      

       1A    -19.139119     2A    -19.133443     3A    -10.236593  
       4A    -10.226861     5A     -1.025454     6A     -1.012330  
       7A     -0.733458     8A     -0.625260     9A     -0.518360  
      10A     -0.489410    11A     -0.472964    12A     -0.424196  
      13A     -0.399135    14A     -0.354276    15A     -0.323838  
      16A     -0.272880    17A     -0.266070  

    Virtual:                                                              

      18A      0.039835    19A      0.052973    20A      0.099923  
      21A      0.109136    22A      0.124385    23A      0.164723  
      24A      0.200400    25A      0.230744    26A      0.242667  
      27A      0.432465    28A      0.438439    29A      0.495431  
      30A      0.527047    31A      0.554159    32A      0.579793  
      33A      0.600858    34A      0.620349    35A      0.633496  
      36A      0.652532    37A      0.652858    38A      0.672833  
      39A      0.874274    40A      0.884000    41A      0.911134  
      42A      0.973205    43A      1.025653    44A      1.049864  
      45A      1.054409    46A      1.140094    47A      1.178744  
      48A      1.206961    49A      1.248569    50A      1.302015  
      51A      1.336038    52A      1.373540    53A      1.507405  
      54A      1.538395    55A      1.587732    56A      1.615894  
      57A      1.642630    58A      1.650526    59A      1.657991  
      60A      1.679587    61A      1.722862    62A      1.775429  
      63A      1.795018    64A      1.867043    65A      1.902618  
      66A      1.973331    67A      2.044202    68A      2.055408  
      69A      2.130021    70A      2.141422    71A      2.256095  
      72A      2.282741    73A      2.406543    74A      2.430934  
      75A      2.479379    76A      2.510806    77A      2.923659  
      78A      2.932096    79A      3.013187    80A      3.014391  
      81A      3.067607    82A      3.086831    83A      3.184657  
      84A      3.261462    85A      3.667341    86A      3.692321  

    Final Occupation by Irrep:
              A 
    DOCC [    17 ]

  Energy converged.

  @DF-RKS Final Energy:  -230.25630807442397

   => Energetics <=

    Nuclear Repulsion Energy =            130.1126801932145440
    One-Electron Energy =                -571.7979415221624322
    Two-Electron Energy =                 235.9719547950377887
    DFT Exchange-Correlation Energy =     -24.5383624305138781
    Empirical Dispersion Energy =          -0.0046391100000000
    VV10 Nonlocal Energy =                  0.0000000000000000
    Total Energy =                       -230.2563080744239699



Properties will be evaluated at   0.000000,   0.000000,   0.000000 [a0]

Properties computed using the SCF density matrix

  Nuclear Dipole Moment: [e a0]
     X:   184.4663      Y:   -19.9443      Z:    31.8597

  Electronic Dipole Moment: [e a0]
     X:  -184.6215      Y:    20.7131      Z:   -32.5550

  Dipole Moment: [e a0]
     X:    -0.1552      Y:     0.7688      Z:    -0.6952     Total:     1.0481

  Dipole Moment: [D]
     X:    -0.3946      Y:     1.9541      Z:    -1.7670     Total:     2.6639


*** tstop() called on loro.prib.upf.edu at Sat Sep 29 16:50:40 2018
Module time:
	user time   =      12.95 seconds =       0.22 minutes
	system time =       0.22 seconds =       0.00 minutes
	total time  =         16 seconds =       0.27 minutes
Total time:
	user time   =      12.95 seconds =       0.22 minutes
	system time =       0.22 seconds =       0.00 minutes
	total time  =         16 seconds =       0.27 minutes


Properties will be evaluated at   0.000000,   0.000000,   0.000000 [a0]
OEProp: No title given, name of density matrix used for the following properties is 'SCF density'
  Nuclear Dipole Moment: [e a0]
     X:   184.4663      Y:   -19.9443      Z:    31.8597

  Electronic Dipole Moment: [e a0]
     X:  -184.6215      Y:    20.7131      Z:   -32.5550

  Dipole Moment: [e a0]
     X:    -0.1552      Y:     0.7688      Z:    -0.6952     Total:     1.0481

  Dipole Moment: [D]
     X:    -0.3946      Y:     1.9541      Z:    -1.7670     Total:     2.6639

  Quadrupole Moment: [D A]
    XX:   -29.7872     YY:   -24.4820     ZZ:   -25.0634
    XY:     6.7895     XZ:    -4.8667     YZ:    -0.0236

  Traceless Quadrupole Moment: [D A]
    XX:    -3.3430     YY:     1.9622     ZZ:     1.3808
    XY:     6.7895     XZ:    -4.8667     YZ:    -0.0236

  Mulliken Charges: (a.u.)
   Center  Symbol    Alpha    Beta     Spin     Total
       1     O     4.13684  4.13684  0.00000 -0.27367
       2     C     2.95991  2.95991  0.00000  0.08017
       3     C     2.92028  2.92028  0.00000  0.15944
       4     O     4.13697  4.13697  0.00000 -0.27393
       5     H     0.42798  0.42798  0.00000  0.14404
       6     H     0.50257  0.50257  0.00000 -0.00515
       7     H     0.49840  0.49840  0.00000  0.00320
       8     H     0.48914  0.48914  0.00000  0.02172
       9     H     0.49500  0.49500  0.00000  0.01000
      10     H     0.43291  0.43291  0.00000  0.13418

   Total alpha = 17.00000, Total beta = 17.00000, Total charge =  0.00000


    Psi4 stopped on: Saturday, 29 September 2018 04:50PM
    Psi4 wall time for execution: 0:00:16.13

*** Psi4 exiting successfully. Buy a developer a beer!
