
    -----------------------------------------------------------------------
          Psi4: An Open-Source Ab Initio Electronic Structure Package
                               Psi4 1.2.1 release

                         Git: Rev {HEAD} 406f4de 


    R. M. Parrish, L. A. Burns, D. G. A. Smith, A. C. Simmonett,
    A. E. DePrince III, E. G. Hohenstein, U. Bozkaya, A. Yu. Sokolov,
    R. Di Remigio, R. M. Richard, J. F. Gonthier, A. M. James,
    H. R. McAlexander, A. Kumar, M. Saitow, X. Wang, B. P. Pritchard,
    P. Verma, H. F. Schaefer III, K. Patkowski, R. A. King, E. F. Valeev,
    F. A. Evangelista, J. M. Turney, T. D. Crawford, and C. D. Sherrill,
    J. Chem. Theory Comput. 13(7) pp 3185--3197 (2017).
    (doi: 10.1021/acs.jctc.7b00174)


                         Additional Contributions by
    P. Kraus, H. Kruse, M. H. Lechner, M. C. Schieber, and R. A. Shaw

    -----------------------------------------------------------------------


    Psi4 started on: Saturday, 29 September 2018 08:47PM

    Process ID: 28556
    Host:       oliva.prib.upf.edu
    PSIDATADIR: /shared/joao/test_parameterize/miniconda3/share/psi4
    Memory:     500.0 MiB
    Threads:    1
    
  ==> Input File <==

--------------------------------------------------------------------------
set_num_threads(4)
set_memory('3000 MB')

set { scf_mem_safety_factor 0.7 }

set { reference rks }
set { basis 6-31G* }

molecule MOL {
    1 1
    noreorient
    nocom
    symmetry c1
    C   -0.000000  -0.000000  -0.177864
    C    0.036678   1.219374   0.524165
    C    0.031765   1.213120   1.915444
    C    0.000000   0.000000   2.610107
    C   -0.031765  -1.213120   1.915444
    C   -0.036678  -1.219375   0.524165
    C   -0.000000   0.000000  -1.644734
    H    0.018170   2.164705  -0.010854
    H    0.042402   2.152895   2.457886
    H    0.000000   0.000000   3.695756
    H   -0.042402  -2.152895   2.457886
    H   -0.018170  -2.164705  -0.010853
    N    0.606060   0.980419  -2.308460
    N   -0.606060  -0.980418  -2.308461
    H   -0.555834  -1.075890  -3.315997
    H   -1.201131  -1.631576  -1.813317
    H    1.201131   1.631576  -1.813316
    H    0.555834   1.075891  -3.315996
}

set optking { frozen_dihedral = (" 2 1 7 13 ") }

set optking { dynamic_level = 1 
 geom_maxiter = 250
 print_trajectory_xyz_file = True }

energy, wfn = optimize('B3LYP-D3', return_wfn=True)

import os
os.chdir(os.environ['HTMD_PSI4_WORKDIR'])

oeprop(wfn, 'DIPOLE', 'QUADRUPOLE', 'MULLIKEN_CHARGES')

with open('psi4out.xyz', 'w') as f:
    f.write('18 ' )
    f.write('%.12f\n' % energy)
    f.write(MOL.save_string_xyz())
--------------------------------------------------------------------------
  Threads set to 4 by Python driver.

  Memory set to   2.794 GiB by Python driver.
gradient() will perform analytic gradient computation.

*** tstart() called on oliva.prib.upf.edu
*** at Sat Sep 29 20:47:32 2018

   => Loading Basis Set <=

    Name: 6-31G*
    Role: ORBITAL
    Keyword: BASIS
    atoms 1-7         entry C          line   111 file /shared/joao/test_parameterize/miniconda3/share/psi4/basis/6-31gs.gbs 
    atoms 8-12, 15-18 entry H          line    44 file /shared/joao/test_parameterize/miniconda3/share/psi4/basis/6-31gs.gbs 
    atoms 13-14       entry N          line   128 file /shared/joao/test_parameterize/miniconda3/share/psi4/basis/6-31gs.gbs 


         ---------------------------------------------------------
                                   SCF
            by Justin Turney, Rob Parrish, Andy Simmonett
                             and Daniel Smith
                              RKS Reference
                        4 Threads,   2861 MiB Core
         ---------------------------------------------------------

  ==> Geometry <==

    Molecular point group: c1
    Full point group: C1

    Geometry (in Angstrom), charge = 1, multiplicity = 1:

       Center              X                  Y                   Z               Mass       
    ------------   -----------------  -----------------  -----------------  -----------------
         C            0.000000000000     0.000000000000    -0.177864000000    12.000000000000
         C            0.036678000000     1.219374000000     0.524165000000    12.000000000000
         C            0.031765000000     1.213120000000     1.915444000000    12.000000000000
         C            0.000000000000     0.000000000000     2.610107000000    12.000000000000
         C           -0.031765000000    -1.213120000000     1.915444000000    12.000000000000
         C           -0.036678000000    -1.219375000000     0.524165000000    12.000000000000
         C            0.000000000000     0.000000000000    -1.644734000000    12.000000000000
         H            0.018170000000     2.164705000000    -0.010854000000     1.007825032070
         H            0.042402000000     2.152895000000     2.457886000000     1.007825032070
         H            0.000000000000     0.000000000000     3.695756000000     1.007825032070
         H           -0.042402000000    -2.152895000000     2.457886000000     1.007825032070
         H           -0.018170000000    -2.164705000000    -0.010853000000     1.007825032070
         N            0.606060000000     0.980419000000    -2.308460000000    14.003074004780
         N           -0.606060000000    -0.980418000000    -2.308461000000    14.003074004780
         H           -0.555834000000    -1.075890000000    -3.315997000000     1.007825032070
         H           -1.201131000000    -1.631576000000    -1.813317000000     1.007825032070
         H            1.201131000000     1.631576000000    -1.813316000000     1.007825032070
         H            0.555834000000     1.075891000000    -3.315996000000     1.007825032070

  Running in c1 symmetry.

  Rotational constants: A =      0.12190  B =      0.03994  C =      0.03107 [cm^-1]
  Rotational constants: A =   3654.48783  B =   1197.32741  C =    931.33216 [MHz]
  Nuclear repulsion =  417.130786766355357

  Charge       = 1
  Multiplicity = 1
  Electrons    = 64
  Nalpha       = 32
  Nbeta        = 32

  ==> Algorithm <==

  SCF Algorithm Type is DF.
  DIIS enabled.
  MOM disabled.
  Fractional occupation disabled.
  Guess Type is SAD.
  Energy threshold   = 1.00e-08
  Density threshold  = 1.00e-08
  Integral threshold = 0.00e+00

  ==> Primary Basis <==

  Basis Set: 6-31G*
    Blend: 6-31G*
    Number of shells: 72
    Number of basis function: 153
    Number of Cartesian functions: 153
    Spherical Harmonics?: false
    Max angular momentum: 2

  ==> DFT Potential <==

   => Composite Functional: B3LYP-D3ZERO <= 

    B3LYP-d3zero Hyb-GGA Exchange-Correlation Functional

    P. J. Stephens, F. J. Devlin, C. F. Chabalowski, and M. J. Frisch, J. Phys. Chem. 98, 11623 (1994)

    Deriv               =              1
    GGA                 =           TRUE
    Meta                =          FALSE

    Exchange Hybrid     =           TRUE
    MP2 Hybrid          =          FALSE

   => Exchange Functionals <=

    0.0800   Slater exchange
    0.7200         Becke 88

   => Exact (HF) Exchange <=

    0.2000               HF 

   => Correlation Functionals <=

    0.1900   Vosko, Wilk & Nusair (VWN5_RPA)
    0.8100   Lee, Yang & Parr

   => Molecular Quadrature <=

    Radial Scheme       =       TREUTLER
    Pruning Scheme      =           FLAT
    Nuclear Scheme      =       TREUTLER

    BS radius alpha     =              1
    Pruning alpha       =              1
    Radial Points       =             75
    Spherical Points    =            302
    Total Points        =         396846
    Total Blocks        =           3017
    Max Points          =            256
    Max Functions       =            149

   => -D3ZERO: Empirical Dispersion <=

    Grimme's -D3 (zero-damping) Dispersion Correction
    Grimme S.; Antony J.; Ehrlich S.; Krieg H. (2010), J. Chem. Phys., 132: 154104

        S6 =   1.000000E+00
        S8 =   1.703000E+00
       SR6 =   1.261000E+00
       SR8 =   1.000000E+00
    ALPHA6 =   1.400000E+01

   => Loading Basis Set <=

    Name: (6-31G* AUX)
    Role: JKFIT
    Keyword: DF_BASIS_SCF
    atoms 1-7         entry C          line   121 file /shared/joao/test_parameterize/miniconda3/share/psi4/basis/cc-pvdz-jkfit.gbs 
    atoms 8-12, 15-18 entry H          line    51 file /shared/joao/test_parameterize/miniconda3/share/psi4/basis/cc-pvdz-jkfit.gbs 
    atoms 13-14       entry N          line   171 file /shared/joao/test_parameterize/miniconda3/share/psi4/basis/cc-pvdz-jkfit.gbs 

  ==> Pre-Iterations <==

   -------------------------------------------------------
    Irrep   Nso     Nmo     Nalpha   Nbeta   Ndocc  Nsocc
   -------------------------------------------------------
     A        153     153       0       0       0       0
   -------------------------------------------------------
    Total     153     153      32      32      32       0
   -------------------------------------------------------

  ==> Integral Setup <==

  ==> DiskDFJK: Density-Fitted J/K Matrices <==

    J tasked:                  Yes
    K tasked:                  Yes
    wK tasked:                  No
    OpenMP threads:              4
    Integrals threads:           4
    Memory (MB):              2002
    Algorithm:                Core
    Integral Cache:           NONE
    Schwarz Cutoff:          1E-12
    Fitting Condition:       1E-12

   => Auxiliary Basis Set <=

  Basis Set: (6-31G* AUX)
    Blend: CC-PVDZ-JKFIT
    Number of shells: 297
    Number of basis function: 954
    Number of Cartesian functions: 954
    Spherical Harmonics?: false
    Max angular momentum: 3

  Minimum eigenvalue in the overlap matrix is 4.8626748115E-04.
  Using Symmetric Orthogonalization.

  SCF Guess: Superposition of Atomic Densities via on-the-fly atomic UHF.

  ==> Iterations <==

                           Total Energy        Delta E     RMS |[F,P]|

   @DF-RKS iter   0:  -379.59671395735313   -3.79597e+02   6.81209e-02 
   @DF-RKS iter   1:  -381.03856704233414   -1.44185e+00   1.18723e-02 
   @DF-RKS iter   2:  -380.95355575630657    8.50113e-02   1.32091e-02 DIIS
   @DF-RKS iter   3:  -381.46235665939406   -5.08801e-01   1.69949e-03 DIIS
   @DF-RKS iter   4:  -381.46838016126924   -6.02350e-03   8.20124e-04 DIIS
   @DF-RKS iter   5:  -381.47003403074768   -1.65387e-03   2.43160e-04 DIIS
   @DF-RKS iter   6:  -381.47017542199933   -1.41391e-04   8.35143e-05 DIIS
   @DF-RKS iter   7:  -381.47019436073413   -1.89387e-05   1.81754e-05 DIIS
   @DF-RKS iter   8:  -381.47019524979356   -8.89059e-07   6.80908e-06 DIIS
   @DF-RKS iter   9:  -381.47019539406568   -1.44272e-07   2.09790e-06 DIIS
   @DF-RKS iter  10:  -381.47019540704480   -1.29791e-08   6.07895e-07 DIIS
   @DF-RKS iter  11:  -381.47019540805172   -1.00692e-09   1.01966e-07 DIIS
   @DF-RKS iter  12:  -381.47019540806320   -1.14824e-11   8.27964e-08 DIIS
   @DF-RKS iter  13:  -381.47019540808634   -2.31353e-11   1.48180e-08 DIIS
   @DF-RKS iter  14:  -381.47019540808770   -1.36424e-12   4.59318e-09 DIIS

  ==> Post-Iterations <==

    Orbital Energies [Eh]
    ---------------------

    Doubly Occupied:                                                      

       1A    -14.567220     2A    -14.567213     3A    -10.496748  
       4A    -10.373969     5A    -10.357473     6A    -10.357463  
       7A    -10.344227     8A    -10.341515     9A    -10.341462  
      10A     -1.183432    11A     -1.091676    12A     -1.015172  
      13A     -0.927157    14A     -0.903420    15A     -0.845848  
      16A     -0.785596    17A     -0.775066    18A     -0.740206  
      19A     -0.734149    20A     -0.688901    21A     -0.669054  
      22A     -0.627355    23A     -0.616115    24A     -0.589968  
      25A     -0.579672    26A     -0.574409    27A     -0.518463  
      28A     -0.506832    29A     -0.499372    30A     -0.472373  
      31A     -0.412377    32A     -0.406718  

    Virtual:                                                              

      33A     -0.219012    34A     -0.158357    35A     -0.123656  
      36A     -0.108209    37A     -0.069015    38A     -0.062244  
      39A     -0.037197    40A     -0.036598    41A      0.008080  
      42A      0.021259    43A      0.022472    44A      0.058351  
      45A      0.062031    46A      0.085242    47A      0.124111  
      48A      0.142997    49A      0.156061    50A      0.164717  
      51A      0.201814    52A      0.244495    53A      0.299541  
      54A      0.349860    55A      0.354165    56A      0.379503  
      57A      0.388776    58A      0.396907    59A      0.420977  
      60A      0.425063    61A      0.440602    62A      0.448438  
      63A      0.453556    64A      0.470681    65A      0.471909  
      66A      0.474367    67A      0.484586    68A      0.509104  
      69A      0.523616    70A      0.539060    71A      0.540522  
      72A      0.595815    73A      0.606347    74A      0.654149  
      75A      0.662637    76A      0.683338    77A      0.689867  
      78A      0.703737    79A      0.716946    80A      0.724638  
      81A      0.747490    82A      0.774395    83A      0.784975  
      84A      0.801625    85A      0.816024    86A      0.832626  
      87A      0.850168    88A      0.939686    89A      0.958858  
      90A      1.004338    91A      1.004485    92A      1.028680  
      93A      1.073189    94A      1.074104    95A      1.136527  
      96A      1.173282    97A      1.209474    98A      1.274359  
      99A      1.281056   100A      1.307359   101A      1.322263  
     102A      1.342580   103A      1.360968   104A      1.380613  
     105A      1.444270   106A      1.453973   107A      1.476072  
     108A      1.606823   109A      1.621057   110A      1.652236  
     111A      1.666685   112A      1.737002   113A      1.754118  
     114A      1.794434   115A      1.822879   116A      1.857923  
     117A      1.904611   118A      1.906680   119A      1.952443  
     120A      1.974627   121A      1.995801   122A      2.017877  
     123A      2.043801   124A      2.064056   125A      2.124582  
     126A      2.125937   127A      2.150363   128A      2.213564  
     129A      2.241292   130A      2.269214   131A      2.341142  
     132A      2.363802   133A      2.451603   134A      2.454650  
     135A      2.488381   136A      2.505333   137A      2.544601  
     138A      2.588577   139A      2.600818   140A      2.632535  
     141A      2.739418   142A      2.884180   143A      2.992429  
     144A      3.259111   145A      3.639236   146A      3.666087  
     147A      3.906477   148A      3.945877   149A      3.961788  
     150A      4.047982   151A      4.171053   152A      4.257285  
     153A      4.546076  

    Final Occupation by Irrep:
              A 
    DOCC [    32 ]

  Energy converged.

  @DF-RKS Final Energy:  -381.47019540808770

   => Energetics <=

    Nuclear Repulsion Energy =            417.1307867663553566
    One-Electron Energy =               -1329.4322963992963196
    Two-Electron Energy =                 575.2501990195767121
    DFT Exchange-Correlation Energy =     -44.4070685647234882
    Empirical Dispersion Energy =          -0.0118162300000000
    VV10 Nonlocal Energy =                  0.0000000000000000
    Total Energy =                       -381.4701954080877044



Properties will be evaluated at   0.000000,   0.000000,   0.000000 [a0]

Properties computed using the SCF density matrix

  Nuclear Dipole Moment: [e a0]
     X:     0.0000      Y:     0.0000      Z:     0.0248

  Electronic Dipole Moment: [e a0]
     X:     0.0000      Y:    -0.0000      Z:    -2.2442

  Dipole Moment: [e a0]
     X:     0.0000      Y:    -0.0000      Z:    -2.2195     Total:     2.2195

  Dipole Moment: [D]
     X:     0.0000      Y:    -0.0000      Z:    -5.6413     Total:     5.6413


*** tstop() called on oliva.prib.upf.edu at Sat Sep 29 20:48:01 2018
Module time:
	user time   =     100.41 seconds =       1.67 minutes
	system time =       0.73 seconds =       0.01 minutes
	total time  =         29 seconds =       0.48 minutes
Total time:
	user time   =     100.41 seconds =       1.67 minutes
	system time =       0.73 seconds =       0.01 minutes
	total time  =         29 seconds =       0.48 minutes

*** tstart() called on oliva.prib.upf.edu
*** at Sat Sep 29 20:48:01 2018


         ------------------------------------------------------------
                                   SCF GRAD                          
                          Rob Parrish, Justin Turney,                
                       Andy Simmonett, and Alex Sokolov              
         ------------------------------------------------------------

  ==> Geometry <==

    Molecular point group: c1
    Full point group: C1

    Geometry (in Angstrom), charge = 1, multiplicity = 1:

       Center              X                  Y                   Z               Mass       
    ------------   -----------------  -----------------  -----------------  -----------------
         C            0.000000000000     0.000000000000    -0.177864000000    12.000000000000
         C            0.036678000000     1.219374000000     0.524165000000    12.000000000000
         C            0.031765000000     1.213120000000     1.915444000000    12.000000000000
         C            0.000000000000     0.000000000000     2.610107000000    12.000000000000
         C           -0.031765000000    -1.213120000000     1.915444000000    12.000000000000
         C           -0.036678000000    -1.219375000000     0.524165000000    12.000000000000
         C            0.000000000000     0.000000000000    -1.644734000000    12.000000000000
         H            0.018170000000     2.164705000000    -0.010854000000     1.007825032070
         H            0.042402000000     2.152895000000     2.457886000000     1.007825032070
         H            0.000000000000     0.000000000000     3.695756000000     1.007825032070
         H           -0.042402000000    -2.152895000000     2.457886000000     1.007825032070
         H           -0.018170000000    -2.164705000000    -0.010853000000     1.007825032070
         N            0.606060000000     0.980419000000    -2.308460000000    14.003074004780
         N           -0.606060000000    -0.980418000000    -2.308461000000    14.003074004780
         H           -0.555834000000    -1.075890000000    -3.315997000000     1.007825032070
         H           -1.201131000000    -1.631576000000    -1.813317000000     1.007825032070
         H            1.201131000000     1.631576000000    -1.813316000000     1.007825032070
         H            0.555834000000     1.075891000000    -3.315996000000     1.007825032070

  Nuclear repulsion =  417.130786766355357

  ==> Basis Set <==

  Basis Set: 6-31G*
    Blend: 6-31G*
    Number of shells: 72
    Number of basis function: 153
    Number of Cartesian functions: 153
    Spherical Harmonics?: false
    Max angular momentum: 2

  ==> DFJKGrad: Density-Fitted SCF Gradients <==

    Gradient:                    1
    J tasked:                  Yes
    K tasked:                  Yes
    wK tasked:                  No
    OpenMP threads:              4
    Integrals threads:           4
    Memory (MB):              2002
    Schwarz Cutoff:          0E+00
    Fitting Condition:       1E-12

   => Auxiliary Basis Set <=

  Basis Set: (6-31G* AUX)
    Blend: CC-PVDZ-JKFIT
    Number of shells: 297
    Number of basis function: 954
    Number of Cartesian functions: 954
    Spherical Harmonics?: false
    Max angular momentum: 3

  ==> DFT Potential <==

   => Composite Functional: B3LYP-D3ZERO <= 

    B3LYP-d3zero Hyb-GGA Exchange-Correlation Functional

    P. J. Stephens, F. J. Devlin, C. F. Chabalowski, and M. J. Frisch, J. Phys. Chem. 98, 11623 (1994)

    Deriv               =              1
    GGA                 =           TRUE
    Meta                =          FALSE

    Exchange Hybrid     =           TRUE
    MP2 Hybrid          =          FALSE

   => Exchange Functionals <=

    0.0800   Slater exchange
    0.7200         Becke 88

   => Exact (HF) Exchange <=

    0.2000               HF 

   => Correlation Functionals <=

    0.1900   Vosko, Wilk & Nusair (VWN5_RPA)
    0.8100   Lee, Yang & Parr

   => Molecular Quadrature <=

    Radial Scheme       =       TREUTLER
    Pruning Scheme      =           FLAT
    Nuclear Scheme      =       TREUTLER

    BS radius alpha     =              1
    Pruning alpha       =              1
    Radial Points       =             75
    Spherical Points    =            302
    Total Points        =         396846
    Total Blocks        =           3017
    Max Points          =            256
    Max Functions       =            149


  -Total Gradient:
     Atom            X                  Y                   Z
    ------   -----------------  -----------------  -----------------
       1        0.000000037053     0.000000623489     0.001128540627
       2        0.000625082205     0.000681246940    -0.000769409924
       3       -0.000158593657    -0.000419844159     0.000313539427
       4       -0.000000000620    -0.000000072446     0.000068726030
       5        0.000158592013     0.000420070400     0.000313677246
       6       -0.000625076967    -0.000682698084    -0.000769779698
       7       -0.000000118559    -0.000000295399    -0.001376389831
       8        0.000469559168    -0.000204629307    -0.000742469899
       9       -0.000048284862     0.000022894116    -0.000023922102
      10        0.000000001494     0.000000006203     0.000011400027
      11        0.000048283974    -0.000022892971    -0.000023983259
      12       -0.000469565870     0.000205381924    -0.000741993512
      13       -0.000592003358     0.000188784269     0.000782484334
      14        0.000592453213    -0.000188163043     0.000782127375
      15        0.000071512522    -0.000107453081    -0.000197698421
      16        0.000191876707    -0.000261890343     0.000712322772
      17       -0.000192196296     0.000261542721     0.000712049453
      18       -0.000071558252     0.000107388789    -0.000197707313


*** tstop() called on oliva.prib.upf.edu at Sat Sep 29 20:48:09 2018
Module time:
	user time   =      30.13 seconds =       0.50 minutes
	system time =       0.27 seconds =       0.00 minutes
	total time  =          8 seconds =       0.13 minutes
Total time:
	user time   =     130.59 seconds =       2.18 minutes
	system time =       1.01 seconds =       0.02 minutes
	total time  =         37 seconds =       0.62 minutes

			-----------------------------------------
			 OPTKING 2.0: for geometry optimizations 
			  - R.A. King,  Bethel University        
			-----------------------------------------
	At level 1: Red. Int., RFO, no backsteps, dynamic trust

	Internal coordinates to be generated automatically.
	Detected frag 1 with atoms:  1 2 3 4 5 6 7 8 9 10 11 12 13 14 15 16 17 18
	---Fragment 1 Bond Connectivity---
	 1 : 2 6 7
	 2 : 1 3 8
	 3 : 2 4 9
	 4 : 3 5 10
	 5 : 4 6 11
	 6 : 1 5 12
	 7 : 1 13 14
	 8 : 2
	 9 : 3
	 10 : 4
	 11 : 5
	 12 : 6
	 13 : 7 17 18
	 14 : 7 15 16
	 15 : 14
	 16 : 14
	 17 : 13
	 18 : 13

	Assuming in current code that numbering for constraints corresponds to unified fragment.
	Frozen dihedral atom list: 
	     2     1     7    13
	---Fragment 1 Geometry and Gradient---
	 C           0.0000000000        0.0000000000       -0.3361142489
	 C           0.0693113751        2.3042829136        0.9905282984
	 C           0.0600271506        2.2924645663        3.6196645829
	 C           0.0000000000        0.0000000000        4.9323874075
	 C          -0.0600271506       -2.2924645663        3.6196645829
	 C          -0.0693113751       -2.3042848033        0.9905282984
	 C           0.0000000000        0.0000000000       -3.1080968214
	 H           0.0343363238        4.0906996085       -0.0205110874
	 H           0.0801281675        4.0683819429        4.6447314059
	 H           0.0000000000        0.0000000000        6.9839666940
	 H          -0.0801281675       -4.0683819429        4.6447314059
	 H          -0.0343363238       -4.0906996085       -0.0205091977
	 N           1.1452874201        1.8527234055       -4.3623571887
	 N          -1.1452874201       -1.8527215158       -4.3623590784
	 H          -1.0503740353       -2.0331374491       -6.2663261875
	 H          -2.2698086397       -3.0832318050       -3.4266725221
	 H           2.2698086397        3.0832318050       -3.4266706324
	 H           1.0503740353        2.0331393388       -6.2663242977
	             0.0000000371        0.0000006235        0.0011285406
	             0.0006250822        0.0006812469       -0.0007694099
	            -0.0001585937       -0.0004198442        0.0003135394
	            -0.0000000006       -0.0000000724        0.0000687260
	             0.0001585920        0.0004200704        0.0003136772
	            -0.0006250770       -0.0006826981       -0.0007697797
	            -0.0000001186       -0.0000002954       -0.0013763898
	             0.0004695592       -0.0002046293       -0.0007424699
	            -0.0000482849        0.0000228941       -0.0000239221
	             0.0000000015        0.0000000062        0.0000114000
	             0.0000482840       -0.0000228930       -0.0000239833
	            -0.0004695659        0.0002053819       -0.0007419935
	            -0.0005920034        0.0001887843        0.0007824843
	             0.0005924532       -0.0001881630        0.0007821274
	             0.0000715125       -0.0001074531       -0.0001976984
	             0.0001918767       -0.0002618903        0.0007123228
	            -0.0001921963        0.0002615427        0.0007120495
	            -0.0000715583        0.0001073888       -0.0001977073

	Previous optimization step data not found.  Starting new optimization.

	---Fragment 1 Intrafragment Coordinates---
	 - Coordinate -           - BOHR/RAD -       - ANG/DEG -
	 R(1,2)           =         2.659794	       1.407502
	 R(1,6)           =         2.659796	       1.407503
	 R(1,7)           =         2.771983	       1.466870
	 R(2,3)           =         2.629179	       1.391302
	 R(2,8)           =         2.052976	       1.086388
	 R(3,4)           =         2.642393	       1.398294
	 R(3,9)           =         2.050622	       1.085142
	 R(4,5)           =         2.642393	       1.398294
	 R(4,10)          =         2.051579	       1.085649
	 R(5,6)           =         2.629179	       1.391302
	 R(5,11)          =         2.050622	       1.085142
	 R(6,12)          =         2.052973	       1.086386
	 R(7,13)          =         2.513451	       1.330061
	 R(7,14)          =         2.513451	       1.330061
	 R(13,17)         =         1.911598	       1.011574
	 R(13,18)         =         1.914850	       1.013295
	 R(14,15)         =         1.914850	       1.013295
	 R(14,16)         =         1.911600	       1.011575
	 B(1,2,3)         =         2.088380	     119.655376
	 B(1,2,8)         =         2.103396	     120.515689
	 B(1,6,5)         =         2.088379	     119.655315
	 B(1,6,12)        =         2.103396	     120.515729
	 B(1,7,13)        =         2.093263	     119.935132
	 B(1,7,14)        =         2.093264	     119.935188
	 B(2,1,6)         =         2.097220	     120.161857
	 B(2,1,7)         =         2.092983	     119.919082
	 B(2,3,4)         =         2.095279	     120.050636
	 B(2,3,9)         =         2.089719	     119.732108
	 B(3,2,8)         =         2.090149	     119.756722
	 B(3,4,5)         =         2.101793	     120.423859
	 B(3,4,10)        =         2.090696	     119.788070
	 B(4,3,9)         =         2.098135	     120.214297
	 B(4,5,6)         =         2.095280	     120.050677
	 B(4,5,11)        =         2.098135	     120.214297
	 B(5,4,10)        =         2.090696	     119.788070
	 B(5,6,12)        =         2.090149	     119.756743
	 B(6,1,7)         =         2.092982	     119.919061
	 B(6,5,11)        =         2.089719	     119.732067
	 B(7,13,17)       =         2.092412	     119.886364
	 B(7,13,18)       =         2.144860	     122.891412
	 B(7,14,15)       =         2.144861	     122.891464
	 B(7,14,16)       =         2.092411	     119.886341
	 B(13,7,14)       =         2.096658	     120.129680
	 B(15,14,16)      =         2.043399	     117.078139
	 B(17,13,18)      =         2.043399	     117.078163
	 D(1,2,3,4)       =         0.007799	       0.446825
	 D(1,2,3,9)       =        -3.122896	    -178.928735
	 D(1,6,5,4)       =         0.007799	       0.446822
	 D(1,6,5,11)      =        -3.122896	    -178.928737
	 D(1,7,13,17)     =         0.187845	      10.762730
	 D(1,7,13,18)     =        -3.032165	    -173.730250
	 D(1,7,14,15)     =        -3.032165	    -173.730244
	 D(1,7,14,16)     =         0.187844	      10.762659
	 D(2,1,6,5)       =        -0.003906	      -0.223802
	 D(2,1,6,12)      =        -3.091437	    -177.126283
	*D(2,1,7,13)      =         0.523598	      29.999974
	 D(2,1,7,14)      =        -2.617994	    -150.000000
	 D(2,3,4,5)       =        -0.003942	      -0.225875
	 D(2,3,4,10)      =         3.137650	     179.774125
	 D(3,2,1,6)       =        -0.003906	      -0.223806
	 D(3,2,1,7)       =         3.137687	     179.776196
	 D(3,4,5,6)       =        -0.003942	      -0.225874
	 D(3,4,5,11)      =         3.126699	     179.146646
	 D(4,3,2,8)       =         3.095744	     177.373058
	 D(4,5,6,12)      =         3.095744	     177.373055
	 D(5,4,3,9)       =         3.126699	     179.146646
	 D(5,6,1,7)       =         3.137687	     179.776197
	 D(6,1,2,8)       =        -3.091437	    -177.126287
	 D(6,1,7,13)      =        -2.617994	    -150.000024
	 D(6,1,7,14)      =         0.523599	      30.000002
	 D(6,5,4,10)      =         3.137650	     179.774126
	 D(7,1,2,8)       =         0.050156	       2.873714
	 D(7,1,6,12)      =         0.050156	       2.873716
	 D(8,2,3,9)       =        -0.034950	      -2.002503
	 D(9,3,4,10)      =        -0.014894	      -0.853354
	 D(10,4,5,11)     =        -0.014894	      -0.853354
	 D(11,5,6,12)     =        -0.034950	      -2.002504
	 D(13,7,14,15)    =         0.109428	       6.269782
	 D(13,7,14,16)    =        -2.953748	    -169.237315
	 D(14,7,13,17)    =        -2.953748	    -169.237296
	 D(14,7,13,18)    =         0.109427	       6.269724

	Current energy   :      -381.4701954081

	Generating empirical Hessian (Schlegel '84) for each fragment.
	Taking RFO optimization step.
	Going to follow RFO solution 1.
	Using RFO vector 1.
	Norm of target step-size    0.13625
	Projected energy change by RFO approximation:        -0.0008325307

	Back-transformation to cartesian coordinates...
	Could not converge backtransformation.
	Using first guess instead.

	Back-transformation to cartesian coordinates to adjust frozen coordinates...
	Successfully converged to displaced geometry.

	--- Internal Coordinate Step in ANG or DEG, aJ/ANG or AJ/DEG ---
	 ---------------------------------------------------------------------------
	   Coordinate                Previous        Force       Change         New 
	   ----------                --------       ------       ------       ------
	    1 R(1,2)          =      1.407502     0.006081     0.000921     1.408424
	    2 R(1,6)          =      1.407503     0.006074     0.001278     1.408781
	    3 R(1,7)          =      1.466870     0.010087     0.001997     1.468867
	    4 R(2,3)          =      1.391302    -0.002766    -0.000358     1.390943
	    5 R(2,8)          =      1.086388    -0.001476    -0.000086     1.086301
	    6 R(3,4)          =      1.398294    -0.002176    -0.000251     1.398043
	    7 R(3,9)          =      1.085142    -0.000065     0.000027     1.085170
	    8 R(4,5)          =      1.398294    -0.002178    -0.000238     1.398056
	    9 R(4,10)         =      1.085649    -0.000102    -0.000009     1.085640
	   10 R(5,6)          =      1.391302    -0.002772    -0.000374     1.390928
	   11 R(5,11)         =      1.085142    -0.000065     0.000167     1.085309
	   12 R(6,12)         =      1.086386    -0.001468     0.000182     1.086569
	   13 R(7,13)         =      1.330061     0.005170     0.000659     1.330720
	   14 R(7,14)         =      1.330061     0.005171     0.001241     1.331302
	   15 R(13,17)        =      1.011574    -0.003330    -0.000096     1.011479
	   16 R(13,18)        =      1.013295    -0.001724    -0.000240     1.013054
	   17 R(14,15)        =      1.013295    -0.001724    -0.000167     1.013128
	   18 R(14,16)        =      1.011575    -0.003335     0.000536     1.012111
	   19 B(1,2,3)        =    119.655376     0.000055     0.182439   119.837815
	   20 B(1,2,8)        =    120.515689     0.000030     0.160963   120.676653
	   21 B(1,6,5)        =    119.655315     0.000055     0.179604   119.834918
	   22 B(1,6,12)       =    120.515729     0.000030     0.190656   120.706385
	   23 B(1,7,13)       =    119.935132     0.000101     0.310765   120.245897
	   24 B(1,7,14)       =    119.935188     0.000101     0.254925   120.190113
	   25 B(2,1,6)        =    120.161857    -0.000110    -0.324104   119.837753
	   26 B(2,1,7)        =    119.919082     0.000055     0.159813   120.078895
	   27 B(2,3,4)        =    120.050636     0.000004     0.001611   120.052248
	   28 B(2,3,9)        =    119.732108     0.000000     0.006706   119.738814
	   29 B(3,2,8)        =    119.756722    -0.000085    -0.378184   119.378538
	   30 B(3,4,5)        =    120.423859    -0.000008    -0.044565   120.379295
	   31 B(3,4,10)       =    119.788070     0.000004     0.024659   119.812729
	   32 B(4,3,9)        =    120.214297    -0.000004    -0.009394   120.204902
	   33 B(4,5,6)        =    120.050677     0.000004    -0.002214   120.048464
	   34 B(4,5,11)       =    120.214297    -0.000004    -0.007589   120.206707
	   35 B(5,4,10)       =    119.788070     0.000004     0.019260   119.807330
	   36 B(5,6,12)       =    119.756743    -0.000086    -0.388705   119.368038
	   37 B(6,1,7)        =    119.919061     0.000055     0.123908   120.042970
	   38 B(6,5,11)       =    119.732067     0.000000     0.004930   119.736996
	   39 B(7,13,17)      =    119.886364     0.000052     0.229190   120.115555
	   40 B(7,13,18)      =    122.891412    -0.000029    -0.159762   122.731650
	   41 B(7,14,15)      =    122.891464    -0.000029    -0.164769   122.726695
	   42 B(7,14,16)      =    119.886341     0.000052     0.265678   120.152019
	   43 B(13,7,14)      =    120.129680    -0.000203    -0.602350   119.527330
	   44 B(15,14,16)     =    117.078139    -0.000024    -0.180661   116.897478
	   45 B(17,13,18)     =    117.078163    -0.000024    -0.149119   116.929044
	   46 D(1,2,3,4)      =      0.446825     0.000000     0.183232     0.630057
	   47 D(1,2,3,9)      =   -178.928735     0.000001     0.288089  -178.640647
	   48 D(1,6,5,4)      =      0.446822    -0.000003    -0.668379    -0.221557
	   49 D(1,6,5,11)     =   -178.928737    -0.000001    -0.276941  -179.205678
	   50 D(1,7,13,17)    =     10.762730     0.000011     2.019211    12.781941
	   51 D(1,7,13,18)    =   -173.730250     0.000004     0.907797  -172.822453
	   52 D(1,7,14,15)    =   -173.730244    -0.000006    -1.307643  -175.037887
	   53 D(1,7,14,16)    =     10.762659     0.000001    -0.193764    10.568895
	   54 D(2,1,6,5)      =     -0.223802     0.000005     1.190161     0.966360
	   55 D(2,1,6,12)     =   -177.126283     0.000008     1.576481  -175.549801
	   56 *D(2,1,7,13)    =     29.999974     0.000000    -0.000000    29.999974
	   57 D(2,1,7,14)     =   -150.000000     0.000010     2.212427  -147.787572
	   58 D(2,3,4,5)      =     -0.225875     0.000002     0.343792     0.117916
	   59 D(2,3,4,10)     =    179.774125     0.000001     0.050826   179.824950
	   60 D(3,2,1,6)      =     -0.223806    -0.000003    -0.947133    -1.170939
	   61 D(3,2,1,7)      =    179.776196     0.000006     1.362901   181.139097
	   62 D(3,4,5,6)      =     -0.225874    -0.000000    -0.098000    -0.323875
	   63 D(3,4,5,11)     =    179.146646    -0.000002    -0.491215   178.655431
	   64 D(4,3,2,8)      =    177.373058    -0.000003    -0.477650   176.895408
	   65 D(4,5,6,12)     =    177.373055    -0.000005    -1.031655   176.341400
	   66 D(5,4,3,9)      =    179.146646     0.000001     0.238544   179.385190
	   67 D(5,6,1,7)      =    179.776197    -0.000004    -1.119035   178.657162
	   68 D(6,1,2,8)      =   -177.126287     0.000000    -0.260701  -177.386988
	   69 D(6,1,7,13)     =   -150.000024     0.000009     2.314808  -147.685217
	   70 D(6,1,7,14)     =     30.000002     0.000019     4.527235    34.527237
	   71 D(6,5,4,10)     =    179.774126     0.000001     0.194950   179.969076
	   72 D(7,1,2,8)      =      2.873714     0.000009     2.049333     4.923048
	   73 D(7,1,6,12)     =      2.873716    -0.000001    -0.732715     2.141001
	   74 D(8,2,3,9)      =     -2.002503    -0.000002    -0.372793    -2.375296
	   75 D(9,3,4,10)     =     -0.853354    -0.000000    -0.054422    -0.907776
	   76 D(10,4,5,11)    =     -0.853354    -0.000001    -0.198265    -1.051618
	   77 D(11,5,6,12)    =     -2.002504    -0.000003    -0.640217    -2.642720
	   78 D(13,7,14,15)   =      6.269782     0.000004     0.888887     7.158669
	   79 D(13,7,14,16)   =   -169.237315     0.000011     2.002765  -167.234549
	   80 D(14,7,13,17)   =   -169.237296     0.000001    -0.178565  -169.415862
	   81 D(14,7,13,18)   =      6.269724    -0.000006    -1.289980     4.979744
	 ---------------------------------------------------------------------------
	Successfully symmetrized geometry.

  ==> Convergence Check <==

  Measures of convergence in internal coordinates in au.
  Criteria marked as inactive (o), active & met (*), and active & unmet ( ).
  --------------------------------------------------------------------------------------------- ~
   Step     Total Energy     Delta E     MAX Force     RMS Force      MAX Disp      RMS Disp    ~
  --------------------------------------------------------------------------------------------- ~
    Convergence Criteria    1.00e-06 *    3.00e-04 *             o    1.20e-03 *             o  ~
  --------------------------------------------------------------------------------------------- ~
      1    -381.47019541   -3.81e+02      2.67e-03      5.80e-04 o    7.90e-02      1.52e-02 o  ~
  ---------------------------------------------------------------------------------------------

	Writing optimization data to binary file.
	Structure for next step:
	Cartesian Geometry (in Angstrom)
	    C    -0.0156764548  -0.0046818927  -0.1765250681
	    C     0.0158330508   1.2155609334   0.5260930952
	    C     0.0168339332   1.2134141107   1.9170345188
	    C    -0.0000684575   0.0023574559   2.6153037034
	    C    -0.0155736922  -1.2124674454   1.9235520459
	    C    -0.0210579750  -1.2219252778   0.5326673458
	    C     0.0083669238  -0.0093597665  -1.6451873538
	    H    -0.0222159281   2.1622331135  -0.0053340753
	    H     0.0187815656   2.1548289781   2.4567820332
	    H     0.0036555492   0.0051761788   3.7009341102
	    H    -0.0066674463  -2.1511472464   2.4682508984
	    H     0.0273095283  -2.1711131434   0.0060421124
	    N     0.6288654516   0.9631565192  -2.3085199528
	    N    -0.6280169417  -0.9628391764  -2.3221346080
	    H    -0.5766839420  -1.0459254880  -3.3305440824
	    H    -1.2592664474  -1.5919378064  -1.8424177577
	    H     1.2454241965   1.5981569109  -1.8189090288
	    H     0.5801570859   1.0565140427  -3.3160869365
			--------------------------
			 OPTKING Finished Execution 
			--------------------------

    Structure for next step:
    Molecular point group: c1
    Full point group: C1

    Geometry (in Angstrom), charge = 1, multiplicity = 1:

    C           -0.015676454837    -0.004681892727    -0.176525068070
    C            0.015833050847     1.215560933392     0.526093095211
    C            0.016833933248     1.213414110680     1.917034518779
    C           -0.000068457519     0.002357455880     2.615303703402
    C           -0.015573692172    -1.212467445417     1.923552045866
    C           -0.021057974961    -1.221925277819     0.532667345825
    C            0.008366923795    -0.009359766530    -1.645187353796
    H           -0.022215928056     2.162233113463    -0.005334075328
    H            0.018781565610     2.154828978060     2.456782033190
    H            0.003655549222     0.005176178849     3.700934110175
    H           -0.006667446264    -2.151147246361     2.468250898408
    H            0.027309528253    -2.171113143398     0.006042112433
    N            0.628865451554     0.963156519161    -2.308519952778
    N           -0.628016941717    -0.962839176405    -2.322134608013
    H           -0.576683941991    -1.045925487960    -3.330544082407
    H           -1.259266447396    -1.591937806409    -1.842417757660
    H            1.245424196459     1.598156910880    -1.818909028766
    H            0.580157085926     1.056514042661    -3.316086936471

gradient() will perform analytic gradient computation.

*** tstart() called on oliva.prib.upf.edu
*** at Sat Sep 29 20:48:10 2018

   => Loading Basis Set <=

    Name: 6-31G*
    Role: ORBITAL
    Keyword: BASIS
    atoms 1-7         entry C          line   111 file /shared/joao/test_parameterize/miniconda3/share/psi4/basis/6-31gs.gbs 
    atoms 8-12, 15-18 entry H          line    44 file /shared/joao/test_parameterize/miniconda3/share/psi4/basis/6-31gs.gbs 
    atoms 13-14       entry N          line   128 file /shared/joao/test_parameterize/miniconda3/share/psi4/basis/6-31gs.gbs 


         ---------------------------------------------------------
                                   SCF
            by Justin Turney, Rob Parrish, Andy Simmonett
                             and Daniel Smith
                              RKS Reference
                        4 Threads,   2861 MiB Core
         ---------------------------------------------------------

  ==> Geometry <==

    Molecular point group: c1
    Full point group: C1

    Geometry (in Angstrom), charge = 1, multiplicity = 1:

       Center              X                  Y                   Z               Mass       
    ------------   -----------------  -----------------  -----------------  -----------------
         C           -0.015676454837    -0.004681892727    -0.176525068070    12.000000000000
         C            0.015833050847     1.215560933392     0.526093095211    12.000000000000
         C            0.016833933248     1.213414110680     1.917034518779    12.000000000000
         C           -0.000068457519     0.002357455880     2.615303703402    12.000000000000
         C           -0.015573692172    -1.212467445417     1.923552045866    12.000000000000
         C           -0.021057974961    -1.221925277819     0.532667345825    12.000000000000
         C            0.008366923795    -0.009359766530    -1.645187353796    12.000000000000
         H           -0.022215928056     2.162233113463    -0.005334075328     1.007825032070
         H            0.018781565610     2.154828978060     2.456782033190     1.007825032070
         H            0.003655549222     0.005176178849     3.700934110175     1.007825032070
         H           -0.006667446264    -2.151147246361     2.468250898408     1.007825032070
         H            0.027309528253    -2.171113143398     0.006042112433     1.007825032070
         N            0.628865451554     0.963156519161    -2.308519952778    14.003074004780
         N           -0.628016941717    -0.962839176405    -2.322134608013    14.003074004780
         H           -0.576683941991    -1.045925487960    -3.330544082407     1.007825032070
         H           -1.259266447396    -1.591937806409    -1.842417757660     1.007825032070
         H            1.245424196459     1.598156910880    -1.818909028766     1.007825032070
         H            0.580157085926     1.056514042661    -3.316086936471     1.007825032070

  Running in c1 symmetry.

  Rotational constants: A =      0.12215  B =      0.03962  C =      0.03104 [cm^-1]
  Rotational constants: A =   3661.93345  B =   1187.71654  C =    930.40847 [MHz]
  Nuclear repulsion =  416.678485569994223

  Charge       = 1
  Multiplicity = 1
  Electrons    = 64
  Nalpha       = 32
  Nbeta        = 32

  ==> Algorithm <==

  SCF Algorithm Type is DF.
  DIIS enabled.
  MOM disabled.
  Fractional occupation disabled.
  Guess Type is READ.
  Energy threshold   = 1.00e-08
  Density threshold  = 1.00e-08
  Integral threshold = 0.00e+00

  ==> Primary Basis <==

  Basis Set: 6-31G*
    Blend: 6-31G*
    Number of shells: 72
    Number of basis function: 153
    Number of Cartesian functions: 153
    Spherical Harmonics?: false
    Max angular momentum: 2

  ==> DFT Potential <==

   => Composite Functional: B3LYP-D3ZERO <= 

    B3LYP-d3zero Hyb-GGA Exchange-Correlation Functional

    P. J. Stephens, F. J. Devlin, C. F. Chabalowski, and M. J. Frisch, J. Phys. Chem. 98, 11623 (1994)

    Deriv               =              1
    GGA                 =           TRUE
    Meta                =          FALSE

    Exchange Hybrid     =           TRUE
    MP2 Hybrid          =          FALSE

   => Exchange Functionals <=

    0.0800   Slater exchange
    0.7200         Becke 88

   => Exact (HF) Exchange <=

    0.2000               HF 

   => Correlation Functionals <=

    0.1900   Vosko, Wilk & Nusair (VWN5_RPA)
    0.8100   Lee, Yang & Parr

   => Molecular Quadrature <=

    Radial Scheme       =       TREUTLER
    Pruning Scheme      =           FLAT
    Nuclear Scheme      =       TREUTLER

    BS radius alpha     =              1
    Pruning alpha       =              1
    Radial Points       =             75
    Spherical Points    =            302
    Total Points        =         396903
    Total Blocks        =           2992
    Max Points          =            256
    Max Functions       =            148

   => -D3ZERO: Empirical Dispersion <=

    Grimme's -D3 (zero-damping) Dispersion Correction
    Grimme S.; Antony J.; Ehrlich S.; Krieg H. (2010), J. Chem. Phys., 132: 154104

        S6 =   1.000000E+00
        S8 =   1.703000E+00
       SR6 =   1.261000E+00
       SR8 =   1.000000E+00
    ALPHA6 =   1.400000E+01

   => Loading Basis Set <=

    Name: (6-31G* AUX)
    Role: JKFIT
    Keyword: DF_BASIS_SCF
    atoms 1-7         entry C          line   121 file /shared/joao/test_parameterize/miniconda3/share/psi4/basis/cc-pvdz-jkfit.gbs 
    atoms 8-12, 15-18 entry H          line    51 file /shared/joao/test_parameterize/miniconda3/share/psi4/basis/cc-pvdz-jkfit.gbs 
    atoms 13-14       entry N          line   171 file /shared/joao/test_parameterize/miniconda3/share/psi4/basis/cc-pvdz-jkfit.gbs 

  Reading orbitals from file 180, no projection.

  ==> Pre-Iterations <==

   -------------------------------------------------------
    Irrep   Nso     Nmo     Nalpha   Nbeta   Ndocc  Nsocc
   -------------------------------------------------------
     A        153     153       0       0       0       0
   -------------------------------------------------------
    Total     153     153      32      32      32       0
   -------------------------------------------------------

  ==> Integral Setup <==

  ==> DiskDFJK: Density-Fitted J/K Matrices <==

    J tasked:                  Yes
    K tasked:                  Yes
    wK tasked:                  No
    OpenMP threads:              4
    Integrals threads:           4
    Memory (MB):              2002
    Algorithm:                Core
    Integral Cache:           NONE
    Schwarz Cutoff:          1E-12
    Fitting Condition:       1E-12

   => Auxiliary Basis Set <=

  Basis Set: (6-31G* AUX)
    Blend: CC-PVDZ-JKFIT
    Number of shells: 297
    Number of basis function: 954
    Number of Cartesian functions: 954
    Spherical Harmonics?: false
    Max angular momentum: 3

  Minimum eigenvalue in the overlap matrix is 4.8834783638E-04.
  Using Symmetric Orthogonalization.

  SCF Guess: Orbitals guess was supplied from a previous computation.

  ==> Iterations <==

                           Total Energy        Delta E     RMS |[F,P]|

   @DF-RKS iter   0:  -381.46383917269969   -3.81464e+02   9.17125e-04 
   @DF-RKS iter   1:  -381.47023057278085   -6.39140e-03   6.99586e-05 
   @DF-RKS iter   2:  -381.47024132991919   -1.07571e-05   6.78462e-05 DIIS
   @DF-RKS iter   3:  -381.47025282888563   -1.14990e-05   3.24635e-05 DIIS
   @DF-RKS iter   4:  -381.47025614202511   -3.31314e-06   8.38808e-06 DIIS
   @DF-RKS iter   5:  -381.47025634674236   -2.04717e-07   2.41712e-06 DIIS
   @DF-RKS iter   6:  -381.47025636138994   -1.46476e-08   9.56366e-07 DIIS
   @DF-RKS iter   7:  -381.47025636380715   -2.41721e-09   1.82139e-07 DIIS
   @DF-RKS iter   8:  -381.47025636387968   -7.25322e-11   8.71836e-08 DIIS
   @DF-RKS iter   9:  -381.47025636390282   -2.31353e-11   2.34419e-08 DIIS
   @DF-RKS iter  10:  -381.47025636390384   -1.02318e-12   9.69792e-09 DIIS

  ==> Post-Iterations <==

    Orbital Energies [Eh]
    ---------------------

    Doubly Occupied:                                                      

       1A    -14.567405     2A    -14.567360     3A    -10.497333  
       4A    -10.374280     5A    -10.356932     6A    -10.356824  
       7A    -10.343683     8A    -10.340873     9A    -10.340782  
      10A     -1.183364    11A     -1.090839    12A     -1.014559  
      13A     -0.926766    14A     -0.902693    15A     -0.845651  
      16A     -0.785528    17A     -0.773625    18A     -0.740191  
      19A     -0.733748    20A     -0.688320    21A     -0.669142  
      22A     -0.626371    23A     -0.615965    24A     -0.588580  
      25A     -0.579652    26A     -0.573237    27A     -0.518306  
      28A     -0.506196    29A     -0.498443    30A     -0.472280  
      31A     -0.412129    32A     -0.406151  

    Virtual:                                                              

      33A     -0.218751    34A     -0.157669    35A     -0.125921  
      36A     -0.108159    37A     -0.067929    38A     -0.062026  
      39A     -0.038048    40A     -0.034623    41A      0.007290  
      42A      0.020641    43A      0.021419    44A      0.057004  
      45A      0.062322    46A      0.083788    47A      0.125006  
      48A      0.143336    49A      0.157300    50A      0.161846  
      51A      0.201508    52A      0.243701    53A      0.299153  
      54A      0.350133    55A      0.354341    56A      0.380695  
      57A      0.387956    58A      0.397159    59A      0.420759  
      60A      0.423028    61A      0.441760    62A      0.449212  
      63A      0.454147    64A      0.471164    65A      0.472168  
      66A      0.474655    67A      0.484572    68A      0.511526  
      69A      0.526890    70A      0.535577    71A      0.538737  
      72A      0.594708    73A      0.605708    74A      0.655844  
      75A      0.660109    76A      0.683057    77A      0.688731  
      78A      0.703903    79A      0.716353    80A      0.721907  
      81A      0.744022    82A      0.774549    83A      0.780674  
      84A      0.800961    85A      0.813567    86A      0.830359  
      87A      0.850085    88A      0.940383    89A      0.958456  
      90A      0.992913    91A      1.005393    92A      1.028326  
      93A      1.070531    94A      1.077702    95A      1.136406  
      96A      1.170897    97A      1.209052    98A      1.272094  
      99A      1.279920   100A      1.306744   101A      1.322741  
     102A      1.345249   103A      1.363903   104A      1.374756  
     105A      1.443807   106A      1.453268   107A      1.475147  
     108A      1.612103   109A      1.620473   110A      1.653034  
     111A      1.664912   112A      1.735363   113A      1.752267  
     114A      1.795387   115A      1.823258   116A      1.853533  
     117A      1.902299   118A      1.906431   119A      1.956375  
     120A      1.973978   121A      1.996691   122A      2.017854  
     123A      2.040106   124A      2.061329   125A      2.125567  
     126A      2.127820   127A      2.152082   128A      2.210852  
     129A      2.239479   130A      2.263069   131A      2.341887  
     132A      2.364002   133A      2.449836   134A      2.451684  
     135A      2.488807   136A      2.507562   137A      2.545018  
     138A      2.588278   139A      2.604907   140A      2.631172  
     141A      2.738624   142A      2.881794   143A      2.987812  
     144A      3.257812   145A      3.637502   146A      3.659397  
     147A      3.907185   148A      3.946940   149A      3.962543  
     150A      4.050249   151A      4.172160   152A      4.257213  
     153A      4.545383  

    Final Occupation by Irrep:
              A 
    DOCC [    32 ]

  Energy converged.

  @DF-RKS Final Energy:  -381.47025636390384

   => Energetics <=

    Nuclear Repulsion Energy =            416.6784855699942227
    One-Electron Energy =               -1328.5565356990707642
    Two-Electron Energy =                 574.8237470580638728
    DFT Exchange-Correlation Energy =     -44.4040783628912621
    Empirical Dispersion Energy =          -0.0118749300000000
    VV10 Nonlocal Energy =                  0.0000000000000000
    Total Energy =                       -381.4702563639038999



Properties will be evaluated at   0.000000,   0.000000,   0.000000 [a0]

Properties computed using the SCF density matrix

  Nuclear Dipole Moment: [e a0]
     X:    -0.0976      Y:    -0.1580      Z:     0.1167

  Electronic Dipole Moment: [e a0]
     X:     0.1030      Y:     0.1591      Z:    -2.3534

  Dipole Moment: [e a0]
     X:     0.0054      Y:     0.0011      Z:    -2.2367     Total:     2.2367

  Dipole Moment: [D]
     X:     0.0138      Y:     0.0029      Z:    -5.6852     Total:     5.6852


*** tstop() called on oliva.prib.upf.edu at Sat Sep 29 20:48:31 2018
Module time:
	user time   =      74.03 seconds =       1.23 minutes
	system time =       0.61 seconds =       0.01 minutes
	total time  =         21 seconds =       0.35 minutes
Total time:
	user time   =     205.68 seconds =       3.43 minutes
	system time =       1.71 seconds =       0.03 minutes
	total time  =         59 seconds =       0.98 minutes

*** tstart() called on oliva.prib.upf.edu
*** at Sat Sep 29 20:48:31 2018


         ------------------------------------------------------------
                                   SCF GRAD                          
                          Rob Parrish, Justin Turney,                
                       Andy Simmonett, and Alex Sokolov              
         ------------------------------------------------------------

  ==> Geometry <==

    Molecular point group: c1
    Full point group: C1

    Geometry (in Angstrom), charge = 1, multiplicity = 1:

       Center              X                  Y                   Z               Mass       
    ------------   -----------------  -----------------  -----------------  -----------------
         C           -0.015676454837    -0.004681892727    -0.176525068070    12.000000000000
         C            0.015833050847     1.215560933392     0.526093095211    12.000000000000
         C            0.016833933248     1.213414110680     1.917034518779    12.000000000000
         C           -0.000068457519     0.002357455880     2.615303703402    12.000000000000
         C           -0.015573692172    -1.212467445417     1.923552045866    12.000000000000
         C           -0.021057974961    -1.221925277819     0.532667345825    12.000000000000
         C            0.008366923795    -0.009359766530    -1.645187353796    12.000000000000
         H           -0.022215928056     2.162233113463    -0.005334075328     1.007825032070
         H            0.018781565610     2.154828978060     2.456782033190     1.007825032070
         H            0.003655549222     0.005176178849     3.700934110175     1.007825032070
         H           -0.006667446264    -2.151147246361     2.468250898408     1.007825032070
         H            0.027309528253    -2.171113143398     0.006042112433     1.007825032070
         N            0.628865451554     0.963156519161    -2.308519952778    14.003074004780
         N           -0.628016941717    -0.962839176405    -2.322134608013    14.003074004780
         H           -0.576683941991    -1.045925487960    -3.330544082407     1.007825032070
         H           -1.259266447396    -1.591937806409    -1.842417757660     1.007825032070
         H            1.245424196459     1.598156910880    -1.818909028766     1.007825032070
         H            0.580157085926     1.056514042661    -3.316086936471     1.007825032070

  Nuclear repulsion =  416.678485569994223

  ==> Basis Set <==

  Basis Set: 6-31G*
    Blend: 6-31G*
    Number of shells: 72
    Number of basis function: 153
    Number of Cartesian functions: 153
    Spherical Harmonics?: false
    Max angular momentum: 2

  ==> DFJKGrad: Density-Fitted SCF Gradients <==

    Gradient:                    1
    J tasked:                  Yes
    K tasked:                  Yes
    wK tasked:                  No
    OpenMP threads:              4
    Integrals threads:           4
    Memory (MB):              2002
    Schwarz Cutoff:          0E+00
    Fitting Condition:       1E-12

   => Auxiliary Basis Set <=

  Basis Set: (6-31G* AUX)
    Blend: CC-PVDZ-JKFIT
    Number of shells: 297
    Number of basis function: 954
    Number of Cartesian functions: 954
    Spherical Harmonics?: false
    Max angular momentum: 3

  ==> DFT Potential <==

   => Composite Functional: B3LYP-D3ZERO <= 

    B3LYP-d3zero Hyb-GGA Exchange-Correlation Functional

    P. J. Stephens, F. J. Devlin, C. F. Chabalowski, and M. J. Frisch, J. Phys. Chem. 98, 11623 (1994)

    Deriv               =              1
    GGA                 =           TRUE
    Meta                =          FALSE

    Exchange Hybrid     =           TRUE
    MP2 Hybrid          =          FALSE

   => Exchange Functionals <=

    0.0800   Slater exchange
    0.7200         Becke 88

   => Exact (HF) Exchange <=

    0.2000               HF 

   => Correlation Functionals <=

    0.1900   Vosko, Wilk & Nusair (VWN5_RPA)
    0.8100   Lee, Yang & Parr

   => Molecular Quadrature <=

    Radial Scheme       =       TREUTLER
    Pruning Scheme      =           FLAT
    Nuclear Scheme      =       TREUTLER

    BS radius alpha     =              1
    Pruning alpha       =              1
    Radial Points       =             75
    Spherical Points    =            302
    Total Points        =         396903
    Total Blocks        =           2992
    Max Points          =            256
    Max Functions       =            148


  -Total Gradient:
     Atom            X                  Y                   Z
    ------   -----------------  -----------------  -----------------
       1       -0.004313417536     0.000932554955     0.000632970988
       2        0.001842041869    -0.000208678317     0.000285806851
       3        0.000274072020     0.000079337031     0.000090058722
       4       -0.000150247053     0.000143476132    -0.000218791474
       5       -0.000110206314    -0.000092622691    -0.000148069101
       6       -0.000043282521     0.000151885379     0.000784984482
       7        0.005201632836    -0.002362574333    -0.000300920471
       8       -0.000076472086     0.000071998974     0.000214342728
       9       -0.000062717218    -0.000002274195     0.000077260736
      10        0.000035871917    -0.000007543801    -0.000020409787
      11        0.000072612637    -0.000088647840     0.000109692869
      12        0.000466414322    -0.000262615898     0.000356992295
      13       -0.001898473067     0.000569215637    -0.000802643607
      14       -0.000187622740     0.000896782615    -0.001203505332
      15       -0.000140892218     0.000095889574     0.000000339061
      16       -0.000645846834    -0.000258108260     0.000007411219
      17       -0.000178933185     0.000258634865     0.000023714634
      18       -0.000081630198     0.000087027087     0.000087363258


*** tstop() called on oliva.prib.upf.edu at Sat Sep 29 20:48:38 2018
Module time:
	user time   =      28.58 seconds =       0.48 minutes
	system time =       0.27 seconds =       0.00 minutes
	total time  =          7 seconds =       0.12 minutes
Total time:
	user time   =     234.32 seconds =       3.91 minutes
	system time =       1.99 seconds =       0.03 minutes
	total time  =         66 seconds =       1.10 minutes

			-----------------------------------------
			 OPTKING 2.0: for geometry optimizations 
			  - R.A. King,  Bethel University        
			-----------------------------------------
	At level 1: Red. Int., RFO, no backsteps, dynamic trust

	Previous internal coordinate definitions found.
	---Fragment 1 Geometry and Gradient---
	 C          -0.0296242064       -0.0088474950       -0.3335840342
	 C           0.0299201299        2.2970772619        0.9941718704
	 C           0.0318115236        2.2930203550        3.6226702278
	 C          -0.0001293660        0.0044549460        4.9422077538
	 C          -0.0294300131       -2.2912314169        3.6349865690
	 C          -0.0397938056       -2.3091041299        1.0065954035
	 C           0.0158111945       -0.0176873954       -3.1089535360
	 H          -0.0419820198        4.0860284199       -0.0100799415
	 H           0.0354920153        4.0720366317        4.6426452109
	 H           0.0069079869        0.0097815604        6.9937519041
	 H          -0.0125996474       -4.0650791671        4.6643182252
	 H           0.0516075292       -4.1028092445        0.0114179378
	 N           1.1883834779        1.8201020443       -4.3624704831
	 N          -1.1867800267       -1.8195023534       -4.3881984528
	 H          -1.0897747156       -1.9765127276       -6.2938161893
	 H          -2.3796687139       -3.0083264747       -3.4816649843
	 H           2.3535106506        3.0200788789       -3.4372399250
	 H           1.0963380065        1.9965221962       -6.2664961428
	            -0.0043134175        0.0009325550        0.0006329710
	             0.0018420419       -0.0002086783        0.0002858069
	             0.0002740720        0.0000793370        0.0000900587
	            -0.0001502471        0.0001434761       -0.0002187915
	            -0.0001102063       -0.0000926227       -0.0001480691
	            -0.0000432825        0.0001518854        0.0007849845
	             0.0052016328       -0.0023625743       -0.0003009205
	            -0.0000764721        0.0000719990        0.0002143427
	            -0.0000627172       -0.0000022742        0.0000772607
	             0.0000358719       -0.0000075438       -0.0000204098
	             0.0000726126       -0.0000886478        0.0001096929
	             0.0004664143       -0.0002626159        0.0003569923
	            -0.0018984731        0.0005692156       -0.0008026436
	            -0.0001876227        0.0008967826       -0.0012035053
	            -0.0001408922        0.0000958896        0.0000003391
	            -0.0006458468       -0.0002581083        0.0000074112
	            -0.0001789332        0.0002586349        0.0000237146
	            -0.0000816302        0.0000870271        0.0000873633

	---Fragment 1 Intrafragment Coordinates---
	 - Coordinate -           - BOHR/RAD -       - ANG/DEG -
	 R(1,2)           =         2.661535	       1.408424
	 R(1,6)           =         2.662211	       1.408781
	 R(1,7)           =         2.775755	       1.468867
	 R(2,3)           =         2.628502	       1.390943
	 R(2,8)           =         2.052812	       1.086301
	 R(3,4)           =         2.641918	       1.398043
	 R(3,9)           =         2.050673	       1.085170
	 R(4,5)           =         2.641943	       1.398056
	 R(4,10)          =         2.051563	       1.085640
	 R(5,6)           =         2.628472	       1.390928
	 R(5,11)          =         2.050937	       1.085309
	 R(6,12)          =         2.053317	       1.086569
	 R(7,13)          =         2.514697	       1.330720
	 R(7,14)          =         2.515796	       1.331302
	 R(13,17)         =         1.911418	       1.011479
	 R(13,18)         =         1.914396	       1.013054
	 R(14,15)         =         1.914534	       1.013128
	 R(14,16)         =         1.912613	       1.012111
	 B(1,2,3)         =         2.091564	     119.837815
	 B(1,2,8)         =         2.106205	     120.676653
	 B(1,6,5)         =         2.091514	     119.834918
	 B(1,6,12)        =         2.106724	     120.706385
	 B(1,7,13)        =         2.098687	     120.245897
	 B(1,7,14)        =         2.097713	     120.190113
	 B(2,1,6)         =         2.091563	     119.837753
	 B(2,1,7)         =         2.095772	     120.078895
	 B(2,3,4)         =         2.095307	     120.052248
	 B(2,3,9)         =         2.089837	     119.738814
	 B(3,2,8)         =         2.083549	     119.378538
	 B(3,4,5)         =         2.101015	     120.379295
	 B(3,4,10)        =         2.091127	     119.812729
	 B(4,3,9)         =         2.097971	     120.204902
	 B(4,5,6)         =         2.095241	     120.048464
	 B(4,5,11)        =         2.098003	     120.206707
	 B(5,4,10)        =         2.091032	     119.807330
	 B(5,6,12)        =         2.083365	     119.368038
	 B(6,1,7)         =         2.095145	     120.042970
	 B(6,5,11)        =         2.089805	     119.736996
	 B(7,13,17)       =         2.096412	     120.115555
	 B(7,13,18)       =         2.142071	     122.731650
	 B(7,14,15)       =         2.141985	     122.726695
	 B(7,14,16)       =         2.097048	     120.152019
	 B(13,7,14)       =         2.086145	     119.527330
	 B(15,14,16)      =         2.040246	     116.897478
	 B(17,13,18)      =         2.040797	     116.929044
	 D(1,2,3,4)       =         0.010997	       0.630057
	 D(1,2,3,9)       =        -3.117867	    -178.640647
	 D(1,6,5,4)       =        -0.003867	      -0.221557
	 D(1,6,5,11)      =        -3.127729	    -179.205678
	 D(1,7,13,17)     =         0.223087	      12.781941
	 D(1,7,13,18)     =        -3.016321	    -172.822453
	 D(1,7,14,15)     =        -3.054987	    -175.037887
	 D(1,7,14,16)     =         0.184462	      10.568895
	 D(2,1,6,5)       =         0.016866	       0.966360
	 D(2,1,6,12)      =        -3.063922	    -175.549801
	*D(2,1,7,13)      =         0.523598	      29.999974
	 D(2,1,7,14)      =        -2.579380	    -147.787572
	 D(2,3,4,5)       =         0.002058	       0.117916
	 D(2,3,4,10)      =         3.138537	     179.824950
	 D(3,2,1,6)       =        -0.020437	      -1.170939
	 D(3,2,1,7)       =        -3.121712	    -178.860903
	 D(3,4,5,6)       =        -0.005653	      -0.323875
	 D(3,4,5,11)      =         3.118126	     178.655431
	 D(4,3,2,8)       =         3.087407	     176.895408
	 D(4,5,6,12)      =         3.077738	     176.341400
	 D(5,4,3,9)       =         3.130862	     179.385190
	 D(5,6,1,7)       =         3.118156	     178.657162
	 D(6,1,2,8)       =        -3.095987	    -177.386988
	 D(6,1,7,13)      =        -2.577593	    -147.685217
	 D(6,1,7,14)      =         0.602614	      34.527237
	 D(6,5,4,10)      =         3.141053	     179.969076
	 D(7,1,2,8)       =         0.085923	       4.923048
	 D(7,1,6,12)      =         0.037368	       2.141001
	 D(8,2,3,9)       =        -0.041457	      -2.375296
	 D(9,3,4,10)      =        -0.015844	      -0.907776
	 D(10,4,5,11)     =        -0.018354	      -1.051618
	 D(11,5,6,12)     =        -0.046124	      -2.642720
	 D(13,7,14,15)    =         0.124942	       7.158669
	 D(13,7,14,16)    =        -2.918794	    -167.234549
	 D(14,7,13,17)    =        -2.956865	    -169.415862
	 D(14,7,13,18)    =         0.086913	       4.979744

	Current energy   :      -381.4702563639

	Energy change for the previous step:
		Projected    :        -0.0008325307
		Actual       :        -0.0000609558
	Energy ratio indicates iffy step: Trust radius decreased to 1.250e-01.


	Performing BFGS update.
	Previous computed or guess Hessian on step 1.
	Steps to be used in Hessian update: 1
	Taking RFO optimization step.
	Going to follow RFO solution 1.
	Using RFO vector 1.
	Norm of target step-size    0.05673
	Projected energy change by RFO approximation:        -0.0002018595

	Back-transformation to cartesian coordinates...
	Could not converge backtransformation.
	Using first guess instead.

	Back-transformation to cartesian coordinates to adjust frozen coordinates...
	Successfully converged to displaced geometry.

	--- Internal Coordinate Step in ANG or DEG, aJ/ANG or AJ/DEG ---
	 ---------------------------------------------------------------------------
	   Coordinate                Previous        Force       Change         New 
	   ----------                --------       ------       ------       ------
	    1 R(1,2)          =      1.408424    -0.003796    -0.000278     1.408146
	    2 R(1,6)          =      1.408781    -0.007233    -0.000690     1.408091
	    3 R(1,7)          =      1.468867    -0.018248    -0.001888     1.466979
	    4 R(2,3)          =      1.390943    -0.000009    -0.000018     1.390925
	    5 R(2,8)          =      1.086301     0.000331    -0.000036     1.086265
	    6 R(3,4)          =      1.398043     0.002496     0.000193     1.398236
	    7 R(3,9)          =      1.085170    -0.000304    -0.000029     1.085141
	    8 R(4,5)          =      1.398056     0.001127     0.000090     1.398146
	    9 R(4,10)         =      1.085640     0.000157     0.000018     1.085658
	   10 R(5,6)          =      1.390928     0.000873     0.000046     1.390974
	   11 R(5,11)         =      1.085309    -0.001096    -0.000154     1.085156
	   12 R(6,12)         =      1.086569    -0.000632    -0.000146     1.086422
	   13 R(7,13)         =      1.330720    -0.000031     0.000007     1.330728
	   14 R(7,14)         =      1.331302    -0.004504    -0.000267     1.331035
	   15 R(13,17)        =      1.011479    -0.000534    -0.000198     1.011281
	   16 R(13,18)        =      1.013054     0.000627     0.000074     1.013129
	   17 R(14,15)        =      1.013128     0.000137     0.000026     1.013154
	   18 R(14,16)        =      1.012111    -0.004677    -0.000612     1.011499
	   19 B(1,2,3)        =    119.837815    -0.000029    -0.047173   119.790642
	   20 B(1,2,8)        =    120.676653    -0.000003    -0.003616   120.673037
	   21 B(1,6,5)        =    119.834918    -0.000019    -0.026826   119.808093
	   22 B(1,6,12)       =    120.706385    -0.000024    -0.061282   120.645103
	   23 B(1,7,13)       =    120.245897    -0.000017    -0.001696   120.244201
	   24 B(1,7,14)       =    120.190113    -0.000111    -0.163932   120.026181
	   25 B(2,1,6)        =    119.837753     0.000060     0.078598   119.916351
	   26 B(2,1,7)        =    120.078895     0.000027     0.065378   120.144272
	   27 B(2,3,4)        =    120.052248    -0.000000     0.008390   120.060638
	   28 B(2,3,9)        =    119.738814    -0.000005    -0.017289   119.721525
	   29 B(3,2,8)        =    119.378538     0.000032     0.054396   119.432934
	   30 B(3,4,5)        =    120.379295    -0.000007    -0.006626   120.372669
	   31 B(3,4,10)       =    119.812729     0.000003     0.001118   119.813847
	   32 B(4,3,9)        =    120.204902     0.000006     0.009837   120.214740
	   33 B(4,5,6)        =    120.048464    -0.000004    -0.002934   120.045530
	   34 B(4,5,11)       =    120.206707     0.000006     0.013389   120.220096
	   35 B(5,4,10)       =    119.807330     0.000004     0.006070   119.813400
	   36 B(5,6,12)       =    119.368038     0.000044     0.104038   119.472076
	   37 B(6,1,7)        =    120.042970    -0.000086    -0.132476   119.910494
	   38 B(6,5,11)       =    119.736996    -0.000002    -0.008211   119.728785
	   39 B(7,13,17)      =    120.115555    -0.000006    -0.018753   120.096801
	   40 B(7,13,18)      =    122.731650     0.000000    -0.027659   122.703990
	   41 B(7,14,15)      =    122.726695     0.000011     0.040423   122.767118
	   42 B(7,14,16)      =    120.152019    -0.000022    -0.036765   120.115254
	   43 B(13,7,14)      =    119.527330     0.000130     0.196840   119.724170
	   44 B(15,14,16)     =    116.897478     0.000013     0.038570   116.936048
	   45 B(17,13,18)     =    116.929044     0.000004    -0.010261   116.918784
	   46 D(1,2,3,4)      =      0.630057     0.000000    -0.020979     0.609077
	   47 D(1,2,3,9)      =   -178.640647    -0.000001    -0.111406  -178.752053
	   48 D(1,6,5,4)      =     -0.221557     0.000001     0.061644    -0.159913
	   49 D(1,6,5,11)     =   -179.205678    -0.000001    -0.096239  -179.301917
	   50 D(1,7,13,17)    =     12.781941    -0.000001    -0.187434    12.594506
	   51 D(1,7,13,18)    =   -172.822453    -0.000007    -0.855737  -173.678191
	   52 D(1,7,14,15)    =   -175.037887     0.000008     0.873771  -174.164116
	   53 D(1,7,14,16)    =     10.568895     0.000001     0.316631    10.885525
	   54 D(2,1,6,5)      =      0.966360    -0.000002    -0.230601     0.735759
	   55 D(2,1,6,12)     =   -175.549801    -0.000005    -0.554474  -176.104275
	   56 *D(2,1,7,13)    =     29.999974    -0.000000     0.000000    29.999974
	   57 D(2,1,7,14)     =   -147.787572    -0.000012    -1.361090  -149.148662
	   58 D(2,3,4,5)      =      0.117916    -0.000001    -0.150533    -0.032617
	   59 D(2,3,4,10)     =    179.824950     0.000000     0.036530   179.861481
	   60 D(3,2,1,6)      =     -1.170939     0.000001     0.210291    -0.960648
	   61 D(3,2,1,7)      =   -178.860903    -0.000001    -0.143360  -179.004263
	   62 D(3,4,5,6)      =     -0.323875     0.000001     0.129816    -0.194059
	   63 D(3,4,5,11)     =    178.655431     0.000003     0.288259   178.943691
	   64 D(4,3,2,8)      =    176.895408     0.000001     0.042315   176.937723
	   65 D(4,5,6,12)     =    176.341400     0.000004     0.375978   176.717378
	   66 D(5,4,3,9)      =    179.385190    -0.000000    -0.059856   179.325334
	   67 D(5,6,1,7)      =    178.657162     0.000001     0.126822   178.783984
	   68 D(6,1,2,8)      =   -177.386988     0.000000     0.144027  -177.242961
	   69 D(6,1,7,13)     =   -147.685217    -0.000003    -0.358539  -148.043756
	   70 D(6,1,7,14)     =     34.527237    -0.000015    -1.719629    32.807608
	   71 D(6,5,4,10)     =    179.969076    -0.000001    -0.057232   179.911843
	   72 D(7,1,2,8)      =      4.923048    -0.000002    -0.209624     4.713424
	   73 D(7,1,6,12)     =      2.141001    -0.000003    -0.197051     1.943950
	   74 D(8,2,3,9)      =     -2.375296    -0.000000    -0.048112    -2.423407
	   75 D(9,3,4,10)     =     -0.907776     0.000001     0.127208    -0.780568
	   76 D(10,4,5,11)    =     -1.051618     0.000001     0.101211    -0.950407
	   77 D(11,5,6,12)    =     -2.642720     0.000002     0.218095    -2.424626
	   78 D(13,7,14,15)   =      7.158669    -0.000003    -0.475868     6.682801
	   79 D(13,7,14,16)   =   -167.234549    -0.000010    -1.033009  -168.267558
	   80 D(14,7,13,17)   =   -169.415862     0.000010     1.161579  -168.254283
	   81 D(14,7,13,18)   =      4.979744     0.000004     0.493276     5.473020
	 ---------------------------------------------------------------------------
	Successfully symmetrized geometry.

  ==> Convergence Check <==

  Measures of convergence in internal coordinates in au.
  Criteria marked as inactive (o), active & met (*), and active & unmet ( ).
  ---------------------------------------------------------------------------------------------
   Step     Total Energy     Delta E     MAX Force     RMS Force      MAX Disp      RMS Disp   
  ---------------------------------------------------------------------------------------------
    Convergence Criteria    1.00e-06 *    3.00e-04 *             o    1.20e-03 *             o
  ---------------------------------------------------------------------------------------------
      2    -381.47025636   -6.10e-05      2.21e-03      4.64e-04 o    3.00e-02      6.30e-03 o  ~
  ---------------------------------------------------------------------------------------------

	Writing optimization data to binary file.
	Structure for next step:
	Cartesian Geometry (in Angstrom)
	    C    -0.0177471012   0.0013786593  -0.1772932080
	    C     0.0186944877   1.2198295937   0.5276360899
	    C     0.0225203111   1.2136566862   1.9185424096
	    C     0.0031263860   0.0005804378   2.6136207798
	    C    -0.0208824076  -1.2122271314   1.9183991148
	    C    -0.0296790314  -1.2175951683   0.5274631249
	    C    -0.0000033051  -0.0018797748  -1.6441609030
	    H    -0.0166620038   2.1676444743  -0.0018631592
	    H     0.0300957032   2.1536256755   2.4606970638
	    H     0.0084718320   0.0003963636   3.6992660915
	    H    -0.0186154657  -2.1524728003   2.4601514795
	    H     0.0058140004  -2.1646871258  -0.0036399317
	    N     0.6192546315   0.9703060002  -2.3091499912
	    N    -0.6190247296  -0.9702013699  -2.3155924292
	    H    -0.5617265387  -1.0620798909  -3.3229431073
	    H    -1.2366214463  -1.6085645655  -1.8316532698
	    H     1.2365382012   1.6052775411  -1.8208255635
	    H     0.5764464760   1.0570133954  -3.3176535908
			--------------------------
			 OPTKING Finished Execution 
			--------------------------

    Structure for next step:
    Molecular point group: c1
    Full point group: C1

    Geometry (in Angstrom), charge = 1, multiplicity = 1:

    C           -0.017747101220     0.001378659277    -0.177293208025
    C            0.018694487722     1.219829593746     0.527636089855
    C            0.022520311118     1.213656686154     1.918542409641
    C            0.003126386038     0.000580437774     2.613620779760
    C           -0.020882407605    -1.212227131401     1.918399114800
    C           -0.029679031353    -1.217595168325     0.527463124913
    C           -0.000003305117    -0.001879774815    -1.644160902982
    H           -0.016662003803     2.167644474250    -0.001863159246
    H            0.030095703151     2.153625675509     2.460697063781
    H            0.008471831987     0.000396363646     3.699266091507
    H           -0.018615465654    -2.152472800326     2.460151479535
    H            0.005814000449    -2.164687125805    -0.003639931736
    N            0.619254631507     0.970306000230    -2.309149991195
    N           -0.619024729554    -0.970201369944    -2.315592429225
    H           -0.561726538652    -1.062079890927    -3.322943107332
    H           -1.236621446255    -1.608564565495    -1.831653269809
    H            1.236538201196     1.605277541085    -1.820825563480
    H            0.576446476045     1.057013395365    -3.317653590760

gradient() will perform analytic gradient computation.

*** tstart() called on oliva.prib.upf.edu
*** at Sat Sep 29 20:48:38 2018

   => Loading Basis Set <=

    Name: 6-31G*
    Role: ORBITAL
    Keyword: BASIS
    atoms 1-7         entry C          line   111 file /shared/joao/test_parameterize/miniconda3/share/psi4/basis/6-31gs.gbs 
    atoms 8-12, 15-18 entry H          line    44 file /shared/joao/test_parameterize/miniconda3/share/psi4/basis/6-31gs.gbs 
    atoms 13-14       entry N          line   128 file /shared/joao/test_parameterize/miniconda3/share/psi4/basis/6-31gs.gbs 


         ---------------------------------------------------------
                                   SCF
            by Justin Turney, Rob Parrish, Andy Simmonett
                             and Daniel Smith
                              RKS Reference
                        4 Threads,   2861 MiB Core
         ---------------------------------------------------------

  ==> Geometry <==

    Molecular point group: c1
    Full point group: C1

    Geometry (in Angstrom), charge = 1, multiplicity = 1:

       Center              X                  Y                   Z               Mass       
[...]
	             0.0015168787       -0.0000802187       -0.0000174159
	            -0.0000079900       -0.0000007300        0.0000059882
	            -0.0000122229       -0.0000015876        0.0000117707
	             0.0000000966       -0.0000077855        0.0000082261
	             0.0000046764        0.0000022527       -0.0000190438
	             0.0026680862       -0.0012100494        0.0000237995
	             0.0000039591        0.0000059002       -0.0000068687
	             0.0000013767        0.0000001484       -0.0000049859
	             0.0000081988       -0.0000020421       -0.0000021031
	            -0.0000011758        0.0000029247       -0.0000035170
	            -0.0000009579        0.0000040194        0.0000110041
	            -0.0013287245        0.0007751383        0.0000204595
	            -0.0000187037        0.0000027755        0.0000078857
	             0.0000025569       -0.0000061688       -0.0000013065
	             0.0000194613        0.0000177370       -0.0000162352
	            -0.0000191527        0.0000132312        0.0000057626
	            -0.0000105879        0.0000037544       -0.0000020035

	---Fragment 1 Intrafragment Coordinates---
	 - Coordinate -           - BOHR/RAD -       - ANG/DEG -
	 R(1,2)           =         2.660861	       1.408067
	 R(1,6)           =         2.660998	       1.408139
	 R(1,7)           =         2.770872	       1.466282
	 R(2,3)           =         2.628401	       1.390890
	 R(2,8)           =         2.052834	       1.086313
	 R(3,4)           =         2.642480	       1.398340
	 R(3,9)           =         2.050583	       1.085122
	 R(4,5)           =         2.642114	       1.398147
	 R(4,10)          =         2.051577	       1.085648
	 R(5,6)           =         2.628643	       1.391018
	 R(5,11)          =         2.050573	       1.085116
	 R(6,12)          =         2.052816	       1.086303
	 R(7,13)          =         2.514925	       1.330841
	 R(7,14)          =         2.514894	       1.330824
	 R(13,17)         =         1.911181	       1.011353
	 R(13,18)         =         1.914573	       1.013148
	 R(14,15)         =         1.914522	       1.013121
	 R(14,16)         =         1.911121	       1.011322
	 B(1,2,3)         =         2.090607	     119.782938
	 B(1,2,8)         =         2.105311	     120.625426
	 B(1,6,5)         =         2.090919	     119.800833
	 B(1,6,12)        =         2.105547	     120.638958
	 B(1,7,13)        =         2.097209	     120.161198
	 B(1,7,14)        =         2.095700	     120.074751
	 B(2,1,6)         =         2.093178	     119.930271
	 B(2,1,7)         =         2.096426	     120.116358
	 B(2,3,4)         =         2.095527	     120.064851
	 B(2,3,9)         =         2.089429	     119.715477
	 B(3,2,8)         =         2.085552	     119.493303
	 B(3,4,5)         =         2.100883	     120.371703
	 B(3,4,10)        =         2.091115	     119.812037
	 B(4,3,9)         =         2.098178	     120.216729
	 B(4,5,6)         =         2.095179	     120.044898
	 B(4,5,11)        =         2.098303	     120.223934
	 B(5,4,10)        =         2.091186	     119.816154
	 B(5,6,12)        =         2.085396	     119.484382
	 B(6,1,7)         =         2.093204	     119.931772
	 B(6,5,11)        =         2.089611	     119.725896
	 B(7,13,17)       =         2.095531	     120.065106
	 B(7,13,18)       =         2.141421	     122.694410
	 B(7,14,15)       =         2.142635	     122.763920
	 B(7,14,16)       =         2.095975	     120.090543
	 B(13,7,14)       =         2.090125	     119.755329
	 B(15,14,16)      =         2.041207	     116.952542
	 B(17,13,18)      =         2.040609	     116.918293
	 D(1,2,3,4)       =         0.010036	       0.575022
	 D(1,2,3,9)       =        -3.120688	    -178.802261
	 D(1,6,5,4)       =        -0.001082	      -0.062004
	 D(1,6,5,11)      =        -3.128131	    -179.228700
	 D(1,7,13,17)     =         0.225171	      12.901346
	 D(1,7,13,18)     =        -3.033744	    -173.820712
	 D(1,7,14,15)     =        -3.039433	    -174.146668
	 D(1,7,14,16)     =         0.193001	      11.058116
	 D(2,1,6,5)       =         0.009992	       0.572499
	 D(2,1,6,12)      =        -3.076052	    -176.244788
	*D(2,1,7,13)      =         0.523598	      29.999974
	 D(2,1,7,14)      =        -2.599200	    -148.923174
	 D(2,3,4,5)       =        -0.001125	      -0.064441
	 D(2,3,4,10)      =         3.138404	     179.817316
	 D(3,2,1,6)       =        -0.014475	      -0.829367
	 D(3,2,1,7)       =        -3.126546	    -179.137874
	 D(3,4,5,6)       =        -0.003394	      -0.194459
	 D(3,4,5,11)      =         3.123582	     178.968049
	 D(4,3,2,8)       =         3.089105	     176.992704
	 D(4,5,6,12)      =         3.085606	     176.792226
	 D(5,4,3,9)       =         3.129545	     179.309694
	 D(5,6,1,7)       =         3.122117	     178.884153
	 D(6,1,2,8)       =        -3.092825	    -177.205792
	 D(6,1,7,13)      =        -2.588472	    -148.308507
	 D(6,1,7,14)      =         0.571916	      32.768345
	 D(6,5,4,10)      =         3.140263	     179.923790
	 D(7,1,2,8)       =         0.078290	       4.485701
	 D(7,1,6,12)      =         0.036074	       2.066867
	 D(8,2,3,9)       =        -0.041619	      -2.384580
	 D(9,3,4,10)      =        -0.014112	      -0.808550
	 D(10,4,5,11)     =        -0.015947	      -0.913703
	 D(11,5,6,12)     =        -0.041442	      -2.374470
	 D(13,7,14,15)    =         0.120878	       6.925796
	 D(13,7,14,16)    =        -2.929874	    -167.869421
	 D(14,7,13,17)    =        -2.935156	    -168.172057
	 D(14,7,13,18)    =         0.089115	       5.105885

	Current energy   :      -381.4703161334

	Energy change for the previous step:
		Projected    :        -0.0000012840
		Actual       :        -0.0000005200

	Performing BFGS update.
	Previous computed or guess Hessian on step 1.
	Steps to be used in Hessian update: 4 3
	Taking RFO optimization step.
	Going to follow RFO solution 1.
	Using RFO vector 1.
	Norm of target step-size    0.00291
	Projected energy change by RFO approximation:        -0.0000000681

	Back-transformation to cartesian coordinates...
	Successfully converged to displaced geometry.

	Back-transformation to cartesian coordinates to adjust frozen coordinates...
	Successfully converged to displaced geometry.

	--- Internal Coordinate Step in ANG or DEG, aJ/ANG or AJ/DEG ---
	 ---------------------------------------------------------------------------
	   Coordinate                Previous        Force       Change         New 
	   ----------                --------       ------       ------       ------
	    1 R(1,2)          =      1.408067     0.000284     0.000050     1.408117
	    2 R(1,6)          =      1.408139    -0.000020     0.000005     1.408145
	    3 R(1,7)          =      1.466282     0.000280     0.000008     1.466291
	    4 R(2,3)          =      1.390890    -0.000104    -0.000019     1.390871
	    5 R(2,8)          =      1.086313    -0.000064    -0.000011     1.086302
	    6 R(3,4)          =      1.398340    -0.000056    -0.000002     1.398338
	    7 R(3,9)          =      1.085122     0.000015     0.000003     1.085124
	    8 R(4,5)          =      1.398147    -0.000004    -0.000001     1.398145
	    9 R(4,10)         =      1.085648     0.000006     0.000000     1.085648
	   10 R(5,6)          =      1.391018    -0.000085    -0.000010     1.391008
	   11 R(5,11)         =      1.085116     0.000030     0.000005     1.085121
	   12 R(6,12)         =      1.086303     0.000078     0.000012     1.086316
	   13 R(7,13)         =      1.330841     0.000513     0.000078     1.330919
	   14 R(7,14)         =      1.330824     0.000070     0.000003     1.330827
	   15 R(13,17)        =      1.011353     0.000003     0.000007     1.011361
	   16 R(13,18)        =      1.013148    -0.000013     0.000001     1.013149
	   17 R(14,15)        =      1.013121    -0.000007    -0.000001     1.013120
	   18 R(14,16)        =      1.011322     0.000249     0.000036     1.011358
	   19 B(1,2,3)        =    119.782938    -0.000000    -0.000366   119.782572
	   20 B(1,2,8)        =    120.625426     0.000000    -0.002478   120.622948
	   21 B(1,6,5)        =    119.800833    -0.000000    -0.000834   119.799998
	   22 B(1,6,12)       =    120.638958    -0.000001    -0.004271   120.634687
	   23 B(1,7,13)       =    120.161198     0.000003     0.004190   120.165388
	   24 B(1,7,14)       =    120.074751    -0.000002    -0.004339   120.070412
	   25 B(2,1,6)        =    119.930271    -0.000000     0.000230   119.930501
	   26 B(2,1,7)        =    120.116358     0.000002     0.005086   120.121444
	   27 B(2,3,4)        =    120.064851    -0.000000    -0.000937   120.063914
	   28 B(2,3,9)        =    119.715477     0.000000     0.001601   119.717077
	   29 B(3,2,8)        =    119.493303    -0.000000     0.003480   119.496783
	   30 B(3,4,5)        =    120.371703     0.000001     0.002047   120.373751
	   31 B(3,4,10)       =    119.812037    -0.000000    -0.002059   119.809978
	   32 B(4,3,9)        =    120.216729    -0.000000    -0.000756   120.215973
	   33 B(4,5,6)        =    120.044898     0.000000     0.000095   120.044992
	   34 B(4,5,11)       =    120.223934    -0.000000     0.000106   120.224040
	   35 B(5,4,10)       =    119.816154    -0.000000     0.000038   119.816191
	   36 B(5,6,12)       =    119.484382     0.000001     0.004990   119.489371
	   37 B(6,1,7)        =    119.931772    -0.000002    -0.004993   119.926779
	   38 B(6,5,11)       =    119.725896    -0.000000    -0.000191   119.725705
	   39 B(7,13,17)      =    120.065106     0.000000    -0.005187   120.059919
	   40 B(7,13,18)      =    122.694410     0.000000    -0.003382   122.691028
	   41 B(7,14,15)      =    122.763920    -0.000000    -0.002297   122.761624
	   42 B(7,14,16)      =    120.090543     0.000000    -0.001593   120.088951
	   43 B(13,7,14)      =    119.755329    -0.000000    -0.000058   119.755272
	   44 B(15,14,16)     =    116.952542     0.000000     0.001561   116.954103
	   45 B(17,13,18)     =    116.918293    -0.000000    -0.005711   116.912582
	   46 D(1,2,3,4)      =      0.575022    -0.000000    -0.013545     0.561478
	   47 D(1,2,3,9)      =   -178.802261    -0.000000    -0.003876  -178.806138
	   48 D(1,6,5,4)      =     -0.062004    -0.000000     0.002475    -0.059529
	   49 D(1,6,5,11)     =   -179.228700    -0.000000     0.001746  -179.226954
	   50 D(1,7,13,17)    =     12.901346     0.000000     0.100924    13.002270
	   51 D(1,7,13,18)    =   -173.820712    -0.000000    -0.046245  -173.866958
	   52 D(1,7,14,15)    =   -174.146668    -0.000000    -0.011246  -174.157914
	   53 D(1,7,14,16)    =     11.058116     0.000000     0.019900    11.078016
	   54 D(2,1,6,5)      =      0.572499    -0.000000    -0.016323     0.556176
	   55 D(2,1,6,12)     =   -176.244788    -0.000000    -0.014054  -176.258842
	   56 *D(2,1,7,13)    =     29.999974    -0.000000     0.000000    29.999974
	   57 D(2,1,7,14)     =   -148.923174     0.000000     0.012692  -148.910482
	   58 D(2,3,4,5)      =     -0.064441     0.000000    -0.000320    -0.064760
	   59 D(2,3,4,10)     =    179.817316     0.000000     0.015167   179.832483
	   60 D(3,2,1,6)      =     -0.829367     0.000000     0.021854    -0.807513
	   61 D(3,2,1,7)      =   -179.137874     0.000000     0.009217  -179.128657
	   62 D(3,4,5,6)      =     -0.194459     0.000000     0.005894    -0.188564
	   63 D(3,4,5,11)     =    178.968049     0.000000     0.006625   178.974674
	   64 D(4,3,2,8)      =    176.992704    -0.000000    -0.002053   176.990650
	   65 D(4,5,6,12)     =    176.792226    -0.000000    -0.000061   176.792165
	   66 D(5,4,3,9)      =    179.309694    -0.000000    -0.010022   179.299672
	   67 D(5,6,1,7)      =    178.884153    -0.000000    -0.003538   178.880614
	   68 D(6,1,2,8)      =   -177.205792     0.000000     0.010013  -177.195779
	   69 D(6,1,7,13)     =   -148.308507    -0.000000    -0.012726  -148.321233
	   70 D(6,1,7,14)     =     32.768345     0.000000    -0.000034    32.768311
	   71 D(6,5,4,10)     =    179.923790    -0.000000    -0.009590   179.914199
	   72 D(7,1,2,8)      =      4.485701     0.000000    -0.002624     4.483077
	   73 D(7,1,6,12)     =      2.066867    -0.000000    -0.001270     2.065597
	   74 D(8,2,3,9)      =     -2.384580     0.000000     0.007615    -2.376965
	   75 D(9,3,4,10)     =     -0.808550     0.000000     0.005465    -0.803085
	   76 D(10,4,5,11)    =     -0.913703    -0.000000    -0.008860    -0.922563
	   77 D(11,5,6,12)    =     -2.374470    -0.000000    -0.000790    -2.375260
	   78 D(13,7,14,15)   =      6.925796    -0.000000     0.001347     6.927143
	   79 D(13,7,14,16)   =   -167.869421     0.000000     0.032493  -167.836927
	   80 D(14,7,13,17)   =   -168.172057     0.000000     0.088225  -168.083831
	   81 D(14,7,13,18)   =      5.105885    -0.000000    -0.058944     5.046941
	 ---------------------------------------------------------------------------
	Successfully symmetrized geometry.

  ==> Convergence Check <==

  Measures of convergence in internal coordinates in au.
  Criteria marked as inactive (o), active & met (*), and active & unmet ( ).
  ---------------------------------------------------------------------------------------------
   Step     Total Energy     Delta E     MAX Force     RMS Force      MAX Disp      RMS Disp   
  ---------------------------------------------------------------------------------------------
    Convergence Criteria    1.00e-06 *    3.00e-04 *             o    1.20e-03 *             o
  ---------------------------------------------------------------------------------------------
      5    -381.47031613   -5.20e-07 *    6.23e-05 *    1.23e-05 o    1.76e-03      3.24e-04 o  ~
  ---------------------------------------------------------------------------------------------


  **** Optimization is complete! (in 5 steps) ****

  ==> Optimization Summary <==

  Measures of convergence in internal coordinates in au.
  --------------------------------------------------------------------------------------------------------------- ~
   Step         Total Energy             Delta E       MAX Force       RMS Force        MAX Disp        RMS Disp  ~
  --------------------------------------------------------------------------------------------------------------- ~
      1    -381.470195408088   -381.470195408088      0.00266533      0.00057954      0.07901515      0.01515018  ~
      2    -381.470256363904     -0.000060955816      0.00221495      0.00046425      0.03001318      0.00629958  ~
      3    -381.470312605517     -0.000056241614      0.00045668      0.00009917      0.00706260      0.00174606  ~
      4    -381.470315613380     -0.000003007863      0.00008323      0.00002654      0.00331497      0.00068047  ~
      5    -381.470316133372     -0.000000519991      0.00006226      0.00001230      0.00176145      0.00032382  ~
  --------------------------------------------------------------------------------------------------------------- ~

	Writing optimization data to binary file.
	Final energy is   -381.4703161333716
	Final (previous) structure:
	Cartesian Geometry (in Angstrom)
	    C    -0.0150980532   0.0002553751  -0.1775077883
	    C     0.0197942644   1.2190312581   0.5267797018
	    C     0.0245472160   1.2133389647   1.9176496650
	    C     0.0068973320   0.0004419298   2.6132962820
	    C    -0.0169581861  -1.2126570407   1.9185765399
	    C    -0.0273513977  -1.2185618376   0.5276099979
	    C    -0.0012598157  -0.0028525386  -1.6437216766
	    H    -0.0159935149   2.1661428804  -0.0040450909
	    H     0.0317520437   2.1535402972   2.4593681766
	    H     0.0136894495   0.0007364415   3.6989225691
	    H    -0.0137354595  -2.1526872674   2.4606190792
	    H     0.0070304353  -2.1656611706  -0.0033097345
	    N     0.6140249236   0.9720331668  -2.3086726717
	    N    -0.6227209227  -0.9697845880  -2.3144839618
	    H    -0.5674931792  -1.0609975716  -3.3219782437
	    H    -1.2417966806  -1.6059281709  -1.8298827945
	    H     1.2339839262   1.6050358668  -1.8210316049
	    H     0.5706876188   1.0585750050  -3.3171874444
	Saving final (previous) structure.
	Removing binary optimization data file.
			--------------------------
			 OPTKING Finished Execution 
			--------------------------

    Final optimized geometry and variables:
    Molecular point group: c1
    Full point group: C1

    Geometry (in Angstrom), charge = 1, multiplicity = 1:

    C           -0.015098053172     0.000255375131    -0.177507788308
    C            0.019794264401     1.219031258094     0.526779701799
    C            0.024547216026     1.213338964693     1.917649665029
    C            0.006897332035     0.000441929781     2.613296281959
    C           -0.016958186053    -1.212657040656     1.918576539864
    C           -0.027351397658    -1.218561837614     0.527609997874
    C           -0.001259815693    -0.002852538600    -1.643721676552
    H           -0.015993514912     2.166142880391    -0.004045090909
    H            0.031752043714     2.153540297193     2.459368176646
    H            0.013689449453     0.000736441544     3.698922569074
    H           -0.013735459542    -2.152687267415     2.460619079173
    H            0.007030435276    -2.165661170621    -0.003309734512
    N            0.614024923558     0.972033166840    -2.308672671673
    N           -0.622720922673    -0.969784588038    -2.314483961837
    H           -0.567493179224    -1.060997571600    -3.321978243747
    H           -1.241796680564    -1.605928170862    -1.829882794544
    H            1.233983926208     1.605035866772    -1.821031604927
    H            0.570687618818     1.058575004965    -3.317187444409

	Removing binary optimization data file.
	Cleaning optimization helper files.


Properties will be evaluated at   0.000000,   0.000000,   0.000000 [a0]
OEProp: No title given, name of density matrix used for the following properties is 'SCF density'
  Nuclear Dipole Moment: [e a0]
     X:    -0.1877      Y:     0.0160      Z:     0.1048

  Electronic Dipole Moment: [e a0]
     X:     0.1987      Y:    -0.0235      Z:    -2.3335

  Dipole Moment: [e a0]
     X:     0.0110      Y:    -0.0075      Z:    -2.2287     Total:     2.2287

  Dipole Moment: [D]
     X:     0.0280      Y:    -0.0189      Z:    -5.6647     Total:     5.6648

  Quadrupole Moment: [D A]
    XX:   -50.5400     YY:   -36.9432     ZZ:   -13.1158
    XY:     6.1176     XZ:     0.0210     YZ:     0.0635

  Traceless Quadrupole Moment: [D A]
    XX:   -17.0070     YY:    -3.4102     ZZ:    20.4172
    XY:     6.1176     XZ:     0.0210     YZ:     0.0635

  Mulliken Charges: (a.u.)
   Center  Symbol    Alpha    Beta     Spin     Total
       1     C     2.95187  2.95187  0.00000  0.09627
       2     C     3.08376  3.08376  0.00000 -0.16752
       3     C     3.06247  3.06247  0.00000 -0.12495
       4     C     3.05134  3.05134  0.00000 -0.10268
       5     C     3.06215  3.06215  0.00000 -0.12431
       6     C     3.08330  3.08330  0.00000 -0.16660
       7     C     2.71795  2.71795  0.00000  0.56409
       8     H     0.41467  0.41467  0.00000  0.17065
       9     H     0.40529  0.40529  0.00000  0.18941
      10     H     0.40358  0.40358  0.00000  0.19284
      11     H     0.40529  0.40529  0.00000  0.18943
      12     H     0.41487  0.41487  0.00000  0.17027
      13     N     3.86617  3.86617  0.00000 -0.73234
      14     N     3.86545  3.86545  0.00000 -0.73089
      15     H     0.30577  0.30577  0.00000  0.38846
      16     H     0.30002  0.30002  0.00000  0.39996
      17     H     0.30029  0.30029  0.00000  0.39943
      18     H     0.30576  0.30576  0.00000  0.38847

   Total alpha = 32.00000, Total beta = 32.00000, Total charge =  1.00000


    Psi4 stopped on: Saturday, 29 September 2018 08:49PM
    Psi4 wall time for execution: 0:02:23.92

*** Psi4 exiting successfully. Buy a developer a beer!
