
    -----------------------------------------------------------------------
          Psi4: An Open-Source Ab Initio Electronic Structure Package
                               Psi4 1.2.1 release

                         Git: Rev {HEAD} 406f4de 


    R. M. Parrish, L. A. Burns, D. G. A. Smith, A. C. Simmonett,
    A. E. DePrince III, E. G. Hohenstein, U. Bozkaya, A. Yu. Sokolov,
    R. Di Remigio, R. M. Richard, J. F. Gonthier, A. M. James,
    H. R. McAlexander, A. Kumar, M. Saitow, X. Wang, B. P. Pritchard,
    P. Verma, H. F. Schaefer III, K. Patkowski, R. A. King, E. F. Valeev,
    F. A. Evangelista, J. M. Turney, T. D. Crawford, and C. D. Sherrill,
    J. Chem. Theory Comput. 13(7) pp 3185--3197 (2017).
    (doi: 10.1021/acs.jctc.7b00174)


                         Additional Contributions by
    P. Kraus, H. Kruse, M. H. Lechner, M. C. Schieber, and R. A. Shaw

    -----------------------------------------------------------------------


    Psi4 started on: Saturday, 29 September 2018 04:49PM

    Process ID: 4210
    Host:       loro.prib.upf.edu
    PSIDATADIR: /shared/joao/test_parameterize/miniconda3/share/psi4
    Memory:     500.0 MiB
    Threads:    1
    
  ==> Input File <==

--------------------------------------------------------------------------
set_num_threads(1)
set_memory('5348 MB')

set { scf_mem_safety_factor 0.7 }

set { reference rks }
set { basis cc-pVDZ }

molecule MOL {
    0 1
    noreorient
    nocom
    symmetry c1
    O    1.141000   0.017000   0.083000
    C    2.558000   0.086000  -0.005000
    C    3.192000  -0.789000   1.067000
    O    3.186502  -0.110771   2.317338
    H    0.789000   0.590000  -0.620000
    H    2.874000   1.128000   0.115000
    H    2.871000  -0.243000  -1.001000
    H    4.223539  -1.036603   0.797637
    H    2.639474  -1.729921   1.168295
    H    3.600481  -0.711356   2.961391
}

set optking { frozen_dihedral = (" 1 2 3 4 ") }

energy, wfn = energy('B3LYP-D3', return_wfn=True)

import os
os.chdir(os.environ['HTMD_PSI4_WORKDIR'])

oeprop(wfn, 'DIPOLE', 'QUADRUPOLE', 'MULLIKEN_CHARGES')

with open('psi4out.xyz', 'w') as f:
    f.write('10 ' )
    f.write('%.12f\n' % energy)
    f.write(MOL.save_string_xyz())
--------------------------------------------------------------------------
  Threads set to 1 by Python driver.

  Memory set to   4.981 GiB by Python driver.

*** tstart() called on loro.prib.upf.edu
*** at Sat Sep 29 16:49:17 2018

   => Loading Basis Set <=

    Name: CC-PVDZ
    Role: ORBITAL
    Keyword: BASIS
    atoms 1, 4 entry O          line   198 file /shared/joao/test_parameterize/miniconda3/share/psi4/basis/cc-pvdz.gbs 
    atoms 2-3  entry C          line   138 file /shared/joao/test_parameterize/miniconda3/share/psi4/basis/cc-pvdz.gbs 
    atoms 5-10 entry H          line    22 file /shared/joao/test_parameterize/miniconda3/share/psi4/basis/cc-pvdz.gbs 


         ---------------------------------------------------------
                                   SCF
            by Justin Turney, Rob Parrish, Andy Simmonett
                             and Daniel Smith
                              RKS Reference
                        1 Threads,   5100 MiB Core
         ---------------------------------------------------------

  ==> Geometry <==

    Molecular point group: c1
    Full point group: C1

    Geometry (in Angstrom), charge = 0, multiplicity = 1:

       Center              X                  Y                   Z               Mass       
    ------------   -----------------  -----------------  -----------------  -----------------
         O            1.141000000000     0.017000000000     0.083000000000    15.994914619560
         C            2.558000000000     0.086000000000    -0.005000000000    12.000000000000
         C            3.192000000000    -0.789000000000     1.067000000000    12.000000000000
         O            3.186502000000    -0.110771000000     2.317338000000    15.994914619560
         H            0.789000000000     0.590000000000    -0.620000000000     1.007825032070
         H            2.874000000000     1.128000000000     0.115000000000     1.007825032070
         H            2.871000000000    -0.243000000000    -1.001000000000     1.007825032070
         H            4.223539000000    -1.036603000000     0.797637000000     1.007825032070
         H            2.639474000000    -1.729921000000     1.168295000000     1.007825032070
         H            3.600481000000    -0.711356000000     2.961391000000     1.007825032070

  Running in c1 symmetry.

  Rotational constants: A =      0.36432  B =      0.03187  C =      0.03035 [cm^-1]
  Rotational constants: A =  10921.92016  B =    955.44516  C =    909.84947 [MHz]
  Nuclear repulsion =  131.150146973850411

  Charge       = 0
  Multiplicity = 1
  Electrons    = 34
  Nalpha       = 17
  Nbeta        = 17

  ==> Algorithm <==

  SCF Algorithm Type is DF.
  DIIS enabled.
  MOM disabled.
  Fractional occupation disabled.
  Guess Type is SAD.
  Energy threshold   = 1.00e-06
  Density threshold  = 1.00e-06
  Integral threshold = 0.00e+00

  ==> Primary Basis <==

  Basis Set: CC-PVDZ
    Blend: CC-PVDZ
    Number of shells: 42
    Number of basis function: 86
    Number of Cartesian functions: 90
    Spherical Harmonics?: true
    Max angular momentum: 2

  ==> DFT Potential <==

   => Composite Functional: B3LYP-D3ZERO <= 

    B3LYP-d3zero Hyb-GGA Exchange-Correlation Functional

    P. J. Stephens, F. J. Devlin, C. F. Chabalowski, and M. J. Frisch, J. Phys. Chem. 98, 11623 (1994)

    Deriv               =              1
    GGA                 =           TRUE
    Meta                =          FALSE

    Exchange Hybrid     =           TRUE
    MP2 Hybrid          =          FALSE

   => Exchange Functionals <=

    0.0800   Slater exchange
    0.7200         Becke 88

   => Exact (HF) Exchange <=

    0.2000               HF 

   => Correlation Functionals <=

    0.1900   Vosko, Wilk & Nusair (VWN5_RPA)
    0.8100   Lee, Yang & Parr

   => Molecular Quadrature <=

    Radial Scheme       =       TREUTLER
    Pruning Scheme      =           FLAT
    Nuclear Scheme      =       TREUTLER

    BS radius alpha     =              1
    Pruning alpha       =              1
    Radial Points       =             75
    Spherical Points    =            302
    Total Points        =         222569
    Total Blocks        =           1738
    Max Points          =            256
    Max Functions       =             86

   => -D3ZERO: Empirical Dispersion <=

    Grimme's -D3 (zero-damping) Dispersion Correction
    Grimme S.; Antony J.; Ehrlich S.; Krieg H. (2010), J. Chem. Phys., 132: 154104

        S6 =   1.000000E+00
        S8 =   1.703000E+00
       SR6 =   1.261000E+00
       SR8 =   1.000000E+00
    ALPHA6 =   1.400000E+01

   => Loading Basis Set <=

    Name: (CC-PVDZ AUX)
    Role: JKFIT
    Keyword: DF_BASIS_SCF
    atoms 1, 4 entry O          line   221 file /shared/joao/test_parameterize/miniconda3/share/psi4/basis/cc-pvdz-jkfit.gbs 
    atoms 2-3  entry C          line   121 file /shared/joao/test_parameterize/miniconda3/share/psi4/basis/cc-pvdz-jkfit.gbs 
    atoms 5-10 entry H          line    51 file /shared/joao/test_parameterize/miniconda3/share/psi4/basis/cc-pvdz-jkfit.gbs 

  ==> Pre-Iterations <==

   -------------------------------------------------------
    Irrep   Nso     Nmo     Nalpha   Nbeta   Ndocc  Nsocc
   -------------------------------------------------------
     A         86      86       0       0       0       0
   -------------------------------------------------------
    Total      86      86      17      17      17       0
   -------------------------------------------------------

  ==> Integral Setup <==

  DFHelper Memory: AOs need 0.030 [GiB]; user supplied 3.486 [GiB]. Using in-core AOs.

  ==> MemDFJK: Density-Fitted J/K Matrices <==

    J tasked:                   Yes
    K tasked:                   Yes
    wK tasked:                   No
    OpenMP threads:               1
    Memory (MB):               3570
    Algorithm:                 Core
    Schwarz Cutoff:           1E-12
    Mask sparsity (%):       0.0000
    Fitting Condition:        1E-12

   => Auxiliary Basis Set <=

  Basis Set: (CC-PVDZ AUX)
    Blend: CC-PVDZ-JKFIT
    Number of shells: 150
    Number of basis function: 418
    Number of Cartesian functions: 474
    Spherical Harmonics?: true
    Max angular momentum: 3

  Minimum eigenvalue in the overlap matrix is 5.1373056042E-03.
  Using Symmetric Orthogonalization.

  SCF Guess: Superposition of Atomic Densities via on-the-fly atomic UHF.

  ==> Iterations <==

                           Total Energy        Delta E     RMS |[F,P]|

   @DF-RKS iter   0:  -230.87974462714175   -2.30880e+02   4.01279e-02 
   @DF-RKS iter   1:  -230.17179332741642    7.07951e-01   5.14152e-03 
   @DF-RKS iter   2:  -230.12895016803139    4.28432e-02   6.67141e-03 DIIS
   @DF-RKS iter   3:  -230.25466237016957   -1.25712e-01   7.36033e-04 DIIS
   @DF-RKS iter   4:  -230.25597712141865   -1.31475e-03   2.97295e-04 DIIS
   @DF-RKS iter   5:  -230.25627596324787   -2.98842e-04   4.33418e-05 DIIS
   @DF-RKS iter   6:  -230.25628218712109   -6.22387e-06   5.07210e-06 DIIS
   @DF-RKS iter   7:  -230.25628225447068   -6.73496e-08   2.60196e-06 DIIS
   @DF-RKS iter   8:  -230.25628227387958   -1.94089e-08   6.70010e-07 DIIS

  ==> Post-Iterations <==

    Orbital Energies [Eh]
    ---------------------

    Doubly Occupied:                                                      

       1A    -19.125763     2A    -19.125725     3A    -10.226911  
       4A    -10.226723     5A     -1.016517     6A     -1.001100  
       7A     -0.733528     8A     -0.602796     9A     -0.515811  
      10A     -0.509317    11A     -0.428118    12A     -0.420698  
      13A     -0.407394    14A     -0.343208    15A     -0.318118  
      16A     -0.265956    17A     -0.254912  

    Virtual:                                                              

      18A      0.048049    19A      0.064669    20A      0.101994  
      21A      0.124402    22A      0.134955    23A      0.139825  
      24A      0.197004    25A      0.220772    26A      0.227813  
      27A      0.467708    28A      0.483815    29A      0.501832  
      30A      0.505187    31A      0.540203    32A      0.568511  
      33A      0.605922    34A      0.623862    35A      0.640008  
      36A      0.648718    37A      0.677379    38A      0.694092  
      39A      0.878863    40A      0.903640    41A      0.916018  
      42A      0.990074    43A      0.993325    44A      1.046296  
      45A      1.072355    46A      1.161658    47A      1.232563  
      48A      1.245818    49A      1.267695    50A      1.306422  
      51A      1.340486    52A      1.366646    53A      1.494463  
      54A      1.517767    55A      1.585591    56A      1.599018  
      57A      1.616384    58A      1.616747    59A      1.671497  
      60A      1.685259    61A      1.739642    62A      1.762452  
      63A      1.891959    64A      1.901006    65A      1.933843  
      66A      1.979474    67A      2.009440    68A      2.050615  
      69A      2.120547    70A      2.162868    71A      2.216420  
      72A      2.313884    73A      2.409863    74A      2.411600  
      75A      2.498886    76A      2.526512    77A      2.933730  
      78A      2.937327    79A      2.971931    80A      3.060518  
      81A      3.087132    82A      3.134204    83A      3.182932  
      84A      3.226509    85A      3.664566    86A      3.726408  

    Final Occupation by Irrep:
              A 
    DOCC [    17 ]

  Energy converged.

  @DF-RKS Final Energy:  -230.25628227387958

   => Energetics <=

    Nuclear Repulsion Energy =            131.1501469738504113
    One-Electron Energy =                -574.1359463484570824
    Two-Electron Energy =                 237.2714758513980939
    DFT Exchange-Correlation Energy =     -24.5376042606709746
    Empirical Dispersion Energy =          -0.0043544900000000
    VV10 Nonlocal Energy =                  0.0000000000000000
    Total Energy =                       -230.2562822738795774



Properties will be evaluated at   0.000000,   0.000000,   0.000000 [a0]

Properties computed using the SCF density matrix

  Nuclear Dipole Moment: [e a0]
     X:   162.7385      Y:   -13.1734      Z:    54.7945

  Electronic Dipole Moment: [e a0]
     X:  -162.2544      Y:    12.9655      Z:   -55.2515

  Dipole Moment: [e a0]
     X:     0.4841      Y:    -0.2079      Z:    -0.4569     Total:     0.6974

  Dipole Moment: [D]
     X:     1.2304      Y:    -0.5285      Z:    -1.1613     Total:     1.7726


*** tstop() called on loro.prib.upf.edu at Sat Sep 29 16:49:33 2018
Module time:
	user time   =      12.87 seconds =       0.21 minutes
	system time =       0.19 seconds =       0.00 minutes
	total time  =         16 seconds =       0.27 minutes
Total time:
	user time   =      12.87 seconds =       0.21 minutes
	system time =       0.19 seconds =       0.00 minutes
	total time  =         16 seconds =       0.27 minutes


Properties will be evaluated at   0.000000,   0.000000,   0.000000 [a0]
OEProp: No title given, name of density matrix used for the following properties is 'SCF density'
  Nuclear Dipole Moment: [e a0]
     X:   162.7385      Y:   -13.1734      Z:    54.7945

  Electronic Dipole Moment: [e a0]
     X:  -162.2544      Y:    12.9655      Z:   -55.2515

  Dipole Moment: [e a0]
     X:     0.4841      Y:    -0.2079      Z:    -0.4569     Total:     0.6974

  Dipole Moment: [D]
     X:     1.2304      Y:    -0.5285      Z:    -1.1613     Total:     1.7726

  Quadrupole Moment: [D A]
    XX:   -18.0517     YY:   -23.0544     ZZ:   -22.5646
    XY:    -4.6167     XZ:     1.2962     YZ:    -4.6683

  Traceless Quadrupole Moment: [D A]
    XX:     3.1719     YY:    -1.8308     ZZ:    -1.3411
    XY:    -4.6167     XZ:     1.2962     YZ:    -4.6683

  Mulliken Charges: (a.u.)
   Center  Symbol    Alpha    Beta     Spin     Total
       1     O     4.13697  4.13697  0.00000 -0.27394
       2     C     2.93144  2.93144  0.00000  0.13712
       3     C     2.93159  2.93159  0.00000  0.13682
       4     O     4.13722  4.13722  0.00000 -0.27445
       5     H     0.43093  0.43093  0.00000  0.13814
       6     H     0.49636  0.49636  0.00000  0.00728
       7     H     0.50424  0.50424  0.00000 -0.00848
       8     H     0.50411  0.50411  0.00000 -0.00823
       9     H     0.49626  0.49626  0.00000  0.00748
      10     H     0.43087  0.43087  0.00000  0.13825

   Total alpha = 17.00000, Total beta = 17.00000, Total charge = -0.00000


    Psi4 stopped on: Saturday, 29 September 2018 04:49PM
    Psi4 wall time for execution: 0:00:15.72

*** Psi4 exiting successfully. Buy a developer a beer!
