
    -----------------------------------------------------------------------
          Psi4: An Open-Source Ab Initio Electronic Structure Package
                               Psi4 1.2.1 release

                         Git: Rev {HEAD} 406f4de 


    R. M. Parrish, L. A. Burns, D. G. A. Smith, A. C. Simmonett,
    A. E. DePrince III, E. G. Hohenstein, U. Bozkaya, A. Yu. Sokolov,
    R. Di Remigio, R. M. Richard, J. F. Gonthier, A. M. James,
    H. R. McAlexander, A. Kumar, M. Saitow, X. Wang, B. P. Pritchard,
    P. Verma, H. F. Schaefer III, K. Patkowski, R. A. King, E. F. Valeev,
    F. A. Evangelista, J. M. Turney, T. D. Crawford, and C. D. Sherrill,
    J. Chem. Theory Comput. 13(7) pp 3185--3197 (2017).
    (doi: 10.1021/acs.jctc.7b00174)


                         Additional Contributions by
    P. Kraus, H. Kruse, M. H. Lechner, M. C. Schieber, and R. A. Shaw

    -----------------------------------------------------------------------


    Psi4 started on: Saturday, 29 September 2018 05:10PM

    Process ID: 13892
    Host:       loro.prib.upf.edu
    PSIDATADIR: /shared/joao/test_parameterize/miniconda3/share/psi4
    Memory:     500.0 MiB
    Threads:    1
    
  ==> Input File <==

--------------------------------------------------------------------------
set_num_threads(1)
set_memory('5348 MB')

set { scf_mem_safety_factor 0.7 }

set { reference rks }
set { basis cc-pVDZ }

molecule MOL {
    0 1
    noreorient
    nocom
    symmetry c1
    O    1.050400   0.042900  -0.048100
    C    2.474100   0.047400  -0.029000
    C    3.002600  -1.068900  -0.932000
    N    4.462700  -1.072400  -1.006800
    H    0.772717   0.912617  -0.383504
    H    2.809900  -0.097900   1.003200
    H    2.817400   1.026800  -0.378600
    H    2.581000  -0.963300  -1.938400
    H    2.653800  -2.036400  -0.553400
    H    4.779000  -0.221000  -1.470000
    H    4.758600  -1.842500  -1.606500
}

set optking { frozen_dihedral = (" 3 2 1 5 ") }

energy, wfn = energy('B3LYP-D3', return_wfn=True)

import os
os.chdir(os.environ['HTMD_PSI4_WORKDIR'])

oeprop(wfn, 'DIPOLE', 'QUADRUPOLE', 'MULLIKEN_CHARGES')

with open('psi4out.xyz', 'w') as f:
    f.write('11 ' )
    f.write('%.12f\n' % energy)
    f.write(MOL.save_string_xyz())
--------------------------------------------------------------------------
  Threads set to 1 by Python driver.

  Memory set to   4.981 GiB by Python driver.

*** tstart() called on loro.prib.upf.edu
*** at Sat Sep 29 17:10:24 2018

   => Loading Basis Set <=

    Name: CC-PVDZ
    Role: ORBITAL
    Keyword: BASIS
    atoms 1    entry O          line   198 file /shared/joao/test_parameterize/miniconda3/share/psi4/basis/cc-pvdz.gbs 
    atoms 2-3  entry C          line   138 file /shared/joao/test_parameterize/miniconda3/share/psi4/basis/cc-pvdz.gbs 
    atoms 4    entry N          line   168 file /shared/joao/test_parameterize/miniconda3/share/psi4/basis/cc-pvdz.gbs 
    atoms 5-11 entry H          line    22 file /shared/joao/test_parameterize/miniconda3/share/psi4/basis/cc-pvdz.gbs 


         ---------------------------------------------------------
                                   SCF
            by Justin Turney, Rob Parrish, Andy Simmonett
                             and Daniel Smith
                              RKS Reference
                        1 Threads,   5100 MiB Core
         ---------------------------------------------------------

  ==> Geometry <==

    Molecular point group: c1
    Full point group: C1

    Geometry (in Angstrom), charge = 0, multiplicity = 1:

       Center              X                  Y                   Z               Mass       
    ------------   -----------------  -----------------  -----------------  -----------------
         O            1.050400000000     0.042900000000    -0.048100000000    15.994914619560
         C            2.474100000000     0.047400000000    -0.029000000000    12.000000000000
         C            3.002600000000    -1.068900000000    -0.932000000000    12.000000000000
         N            4.462700000000    -1.072400000000    -1.006800000000    14.003074004780
         H            0.772717000000     0.912617000000    -0.383504000000     1.007825032070
         H            2.809900000000    -0.097900000000     1.003200000000     1.007825032070
         H            2.817400000000     1.026800000000    -0.378600000000     1.007825032070
         H            2.581000000000    -0.963300000000    -1.938400000000     1.007825032070
         H            2.653800000000    -2.036400000000    -0.553400000000     1.007825032070
         H            4.779000000000    -0.221000000000    -1.470000000000     1.007825032070
         H            4.758600000000    -1.842500000000    -1.606500000000     1.007825032070

  Running in c1 symmetry.

  Rotational constants: A =      0.72312  B =      0.02760  C =      0.02697 [cm^-1]
  Rotational constants: A =  21678.51143  B =    827.32343  C =    808.58826 [MHz]
  Nuclear repulsion =  130.544848069889923

  Charge       = 0
  Multiplicity = 1
  Electrons    = 34
  Nalpha       = 17
  Nbeta        = 17

  ==> Algorithm <==

  SCF Algorithm Type is DF.
  DIIS enabled.
  MOM disabled.
  Fractional occupation disabled.
  Guess Type is SAD.
  Energy threshold   = 1.00e-06
  Density threshold  = 1.00e-06
  Integral threshold = 0.00e+00

  ==> Primary Basis <==

  Basis Set: CC-PVDZ
    Blend: CC-PVDZ
    Number of shells: 45
    Number of basis function: 91
    Number of Cartesian functions: 95
    Spherical Harmonics?: true
    Max angular momentum: 2

  ==> DFT Potential <==

   => Composite Functional: B3LYP-D3ZERO <= 

    B3LYP-d3zero Hyb-GGA Exchange-Correlation Functional

    P. J. Stephens, F. J. Devlin, C. F. Chabalowski, and M. J. Frisch, J. Phys. Chem. 98, 11623 (1994)

    Deriv               =              1
    GGA                 =           TRUE
    Meta                =          FALSE

    Exchange Hybrid     =           TRUE
    MP2 Hybrid          =          FALSE

   => Exchange Functionals <=

    0.0800   Slater exchange
    0.7200         Becke 88

   => Exact (HF) Exchange <=

    0.2000               HF 

   => Correlation Functionals <=

    0.1900   Vosko, Wilk & Nusair (VWN5_RPA)
    0.8100   Lee, Yang & Parr

   => Molecular Quadrature <=

    Radial Scheme       =       TREUTLER
    Pruning Scheme      =           FLAT
    Nuclear Scheme      =       TREUTLER

    BS radius alpha     =              1
    Pruning alpha       =              1
    Radial Points       =             75
    Spherical Points    =            302
    Total Points        =         245076
    Total Blocks        =           1888
    Max Points          =            256
    Max Functions       =             91

   => -D3ZERO: Empirical Dispersion <=

    Grimme's -D3 (zero-damping) Dispersion Correction
    Grimme S.; Antony J.; Ehrlich S.; Krieg H. (2010), J. Chem. Phys., 132: 154104

        S6 =   1.000000E+00
        S8 =   1.703000E+00
       SR6 =   1.261000E+00
       SR8 =   1.000000E+00
    ALPHA6 =   1.400000E+01

   => Loading Basis Set <=

    Name: (CC-PVDZ AUX)
    Role: JKFIT
    Keyword: DF_BASIS_SCF
    atoms 1    entry O          line   221 file /shared/joao/test_parameterize/miniconda3/share/psi4/basis/cc-pvdz-jkfit.gbs 
    atoms 2-3  entry C          line   121 file /shared/joao/test_parameterize/miniconda3/share/psi4/basis/cc-pvdz-jkfit.gbs 
    atoms 4    entry N          line   171 file /shared/joao/test_parameterize/miniconda3/share/psi4/basis/cc-pvdz-jkfit.gbs 
    atoms 5-11 entry H          line    51 file /shared/joao/test_parameterize/miniconda3/share/psi4/basis/cc-pvdz-jkfit.gbs 

  ==> Pre-Iterations <==

   -------------------------------------------------------
    Irrep   Nso     Nmo     Nalpha   Nbeta   Ndocc  Nsocc
   -------------------------------------------------------
     A         91      91       0       0       0       0
   -------------------------------------------------------
    Total      91      91      17      17      17       0
   -------------------------------------------------------

  ==> Integral Setup <==

  DFHelper Memory: AOs need 0.036 [GiB]; user supplied 3.486 [GiB]. Using in-core AOs.

  ==> MemDFJK: Density-Fitted J/K Matrices <==

    J tasked:                   Yes
    K tasked:                   Yes
    wK tasked:                   No
    OpenMP threads:               1
    Memory (MB):               3570
    Algorithm:                 Core
    Schwarz Cutoff:           1E-12
    Mask sparsity (%):       0.4589
    Fitting Condition:        1E-12

   => Auxiliary Basis Set <=

  Basis Set: (CC-PVDZ AUX)
    Blend: CC-PVDZ-JKFIT
    Number of shells: 159
    Number of basis function: 441
    Number of Cartesian functions: 499
    Spherical Harmonics?: true
    Max angular momentum: 3

  Minimum eigenvalue in the overlap matrix is 4.6102436776E-03.
  Using Symmetric Orthogonalization.

  SCF Guess: Superposition of Atomic Densities via on-the-fly atomic UHF.

  ==> Iterations <==

                           Total Energy        Delta E     RMS |[F,P]|

   @DF-RKS iter   0:  -210.80945409268978   -2.10809e+02   3.66034e-02 
   @DF-RKS iter   1:  -210.22025168222552    5.89202e-01   6.91808e-03 
   @DF-RKS iter   2:  -210.08458193183961    1.35670e-01   9.41180e-03 DIIS
   @DF-RKS iter   3:  -210.38904738765328   -3.04465e-01   5.70795e-04 DIIS
   @DF-RKS iter   4:  -210.38974501108919   -6.97623e-04   3.52513e-04 DIIS
   @DF-RKS iter   5:  -210.39018921893827   -4.44208e-04   4.92802e-05 DIIS
   @DF-RKS iter   6:  -210.39019567271626   -6.45378e-06   2.40615e-05 DIIS
   @DF-RKS iter   7:  -210.39019778287476   -2.11016e-06   1.87445e-06 DIIS
   @DF-RKS iter   8:  -210.39019779543173   -1.25570e-08   5.31489e-07 DIIS

  ==> Post-Iterations <==

    Orbital Energies [Eh]
    ---------------------

    Doubly Occupied:                                                      

       1A    -19.128361     2A    -14.304095     3A    -10.224427  
       4A    -10.199500     5A     -1.011001     6A     -0.876072  
       7A     -0.711116     8A     -0.599573     9A     -0.513381  
      10A     -0.476207    11A     -0.459620    12A     -0.405936  
      13A     -0.393927    14A     -0.367629    15A     -0.320459  
      16A     -0.263603    17A     -0.230742  

    Virtual:                                                              

      18A      0.046288    19A      0.055545    20A      0.102634  
      21A      0.112510    22A      0.131270    23A      0.157931  
      24A      0.165944    25A      0.204416    26A      0.248444  
      27A      0.262224    28A      0.434078    29A      0.447224  
      30A      0.492842    31A      0.502035    32A      0.561204  
      33A      0.585117    34A      0.600018    35A      0.609528  
      36A      0.640080    37A      0.651130    38A      0.660546  
      39A      0.675833    40A      0.696069    41A      0.816534  
      42A      0.830945    43A      0.844470    44A      0.924335  
      45A      0.956803    46A      1.008909    47A      1.020987  
      48A      1.061057    49A      1.133552    50A      1.204737  
      51A      1.221579    52A      1.267383    53A      1.313306  
      54A      1.408304    55A      1.420250    56A      1.473839  
      57A      1.518626    58A      1.595163    59A      1.630553  
      60A      1.640883    61A      1.652802    62A      1.676484  
      63A      1.710986    64A      1.722147    65A      1.748735  
      66A      1.775212    67A      1.811637    68A      1.837893  
      69A      1.859995    70A      1.955382    71A      2.011107  
      72A      2.022330    73A      2.075492    74A      2.119132  
      75A      2.161630    76A      2.242935    77A      2.263926  
      78A      2.368892    79A      2.401774    80A      2.443252  
      81A      2.475069    82A      2.546383    83A      2.605733  
      84A      2.685086    85A      2.824056    86A      2.933623  
      87A      3.014034    88A      3.054615    89A      3.115745  
      90A      3.220319    91A      3.677237  

    Final Occupation by Irrep:
              A 
    DOCC [    17 ]

  Energy converged.

  @DF-RKS Final Energy:  -210.39019779543173

   => Energetics <=

    Nuclear Repulsion Energy =            130.5448480698899232
    One-Electron Energy =                -544.0164253742129858
    Two-Electron Energy =                 226.5732603962590019
    DFT Exchange-Correlation Energy =     -23.4869166373676777
    Empirical Dispersion Energy =          -0.0049642500000000
    VV10 Nonlocal Energy =                  0.0000000000000000
    Total Energy =                       -210.3901977954317601



Properties will be evaluated at   0.000000,   0.000000,   0.000000 [a0]

Properties computed using the SCF density matrix

  Nuclear Dipole Moment: [e a0]
     X:   177.0196      Y:   -31.2075      Z:   -35.0083

  Electronic Dipole Moment: [e a0]
     X:  -176.8433      Y:    31.7286      Z:    34.3236

  Dipole Moment: [e a0]
     X:     0.1762      Y:     0.5211      Z:    -0.6847     Total:     0.8783

  Dipole Moment: [D]
     X:     0.4480      Y:     1.3245      Z:    -1.7403     Total:     2.2324


*** tstop() called on loro.prib.upf.edu at Sat Sep 29 17:10:42 2018
Module time:
	user time   =      14.83 seconds =       0.25 minutes
	system time =       0.23 seconds =       0.00 minutes
	total time  =         18 seconds =       0.30 minutes
Total time:
	user time   =      14.83 seconds =       0.25 minutes
	system time =       0.23 seconds =       0.00 minutes
	total time  =         18 seconds =       0.30 minutes


Properties will be evaluated at   0.000000,   0.000000,   0.000000 [a0]
OEProp: No title given, name of density matrix used for the following properties is 'SCF density'
  Nuclear Dipole Moment: [e a0]
     X:   177.0196      Y:   -31.2075      Z:   -35.0083

  Electronic Dipole Moment: [e a0]
     X:  -176.8433      Y:    31.7286      Z:    34.3236

  Dipole Moment: [e a0]
     X:     0.1762      Y:     0.5211      Z:    -0.6847     Total:     0.8783

  Dipole Moment: [D]
     X:     0.4480      Y:     1.3245      Z:    -1.7403     Total:     2.2324

  Quadrupole Moment: [D A]
    XX:   -25.4602     YY:   -22.6413     ZZ:   -23.1755
    XY:     1.2954     XZ:    -6.5713     YZ:     0.5960

  Traceless Quadrupole Moment: [D A]
    XX:    -1.7012     YY:     1.1177     ZZ:     0.5835
    XY:     1.2954     XZ:    -6.5713     YZ:     0.5960

  Mulliken Charges: (a.u.)
   Center  Symbol    Alpha    Beta     Spin     Total
       1     O     4.13931  4.13931  0.00000 -0.27862
       2     C     2.93035  2.93035  0.00000  0.13929
       3     C     2.98315  2.98315  0.00000  0.03369
       4     N     3.59362  3.59362  0.00000 -0.18724
       5     H     0.42938  0.42938  0.00000  0.14124
       6     H     0.49177  0.49177  0.00000  0.01645
       7     H     0.50446  0.50446  0.00000 -0.00892
       8     H     0.50736  0.50736  0.00000 -0.01472
       9     H     0.48948  0.48948  0.00000  0.02104
      10     H     0.46710  0.46710  0.00000  0.06580
      11     H     0.46401  0.46401  0.00000  0.07199

   Total alpha = 17.00000, Total beta = 17.00000, Total charge =  0.00000


    Psi4 stopped on: Saturday, 29 September 2018 05:10PM
    Psi4 wall time for execution: 0:00:18.26

*** Psi4 exiting successfully. Buy a developer a beer!
