
    -----------------------------------------------------------------------
          Psi4: An Open-Source Ab Initio Electronic Structure Package
                               Psi4 1.2.1 release

                         Git: Rev {HEAD} 406f4de 


    R. M. Parrish, L. A. Burns, D. G. A. Smith, A. C. Simmonett,
    A. E. DePrince III, E. G. Hohenstein, U. Bozkaya, A. Yu. Sokolov,
    R. Di Remigio, R. M. Richard, J. F. Gonthier, A. M. James,
    H. R. McAlexander, A. Kumar, M. Saitow, X. Wang, B. P. Pritchard,
    P. Verma, H. F. Schaefer III, K. Patkowski, R. A. King, E. F. Valeev,
    F. A. Evangelista, J. M. Turney, T. D. Crawford, and C. D. Sherrill,
    J. Chem. Theory Comput. 13(7) pp 3185--3197 (2017).
    (doi: 10.1021/acs.jctc.7b00174)


                         Additional Contributions by
    P. Kraus, H. Kruse, M. H. Lechner, M. C. Schieber, and R. A. Shaw

    -----------------------------------------------------------------------


    Psi4 started on: Saturday, 29 September 2018 05:09PM

    Process ID: 13226
    Host:       loro.prib.upf.edu
    PSIDATADIR: /shared/joao/test_parameterize/miniconda3/share/psi4
    Memory:     500.0 MiB
    Threads:    1
    
  ==> Input File <==

--------------------------------------------------------------------------
set_num_threads(1)
set_memory('5348 MB')

set { scf_mem_safety_factor 0.7 }

set { reference rks }
set { basis cc-pVDZ }

molecule MOL {
    0 1
    noreorient
    nocom
    symmetry c1
    O    1.050400   0.042900  -0.048100
    C    2.474100   0.047400  -0.029000
    C    3.002600  -1.068900  -0.932000
    N    4.462700  -1.072400  -1.006800
    H    0.760400   0.728400   0.578000
    H    2.809900  -0.097900   1.003200
    H    2.817400   1.026800  -0.378600
    H    2.581000  -0.963300  -1.938400
    H    2.653800  -2.036400  -0.553400
    H    4.751399  -0.937354  -1.975251
    H    4.802581  -1.996506  -0.740792
}

set optking { frozen_dihedral = (" 2 3 4 10 ") }

energy, wfn = energy('B3LYP-D3', return_wfn=True)

import os
os.chdir(os.environ['HTMD_PSI4_WORKDIR'])

oeprop(wfn, 'DIPOLE', 'QUADRUPOLE', 'MULLIKEN_CHARGES')

with open('psi4out.xyz', 'w') as f:
    f.write('11 ' )
    f.write('%.12f\n' % energy)
    f.write(MOL.save_string_xyz())
--------------------------------------------------------------------------
  Threads set to 1 by Python driver.

  Memory set to   4.981 GiB by Python driver.

*** tstart() called on loro.prib.upf.edu
*** at Sat Sep 29 17:09:28 2018

   => Loading Basis Set <=

    Name: CC-PVDZ
    Role: ORBITAL
    Keyword: BASIS
    atoms 1    entry O          line   198 file /shared/joao/test_parameterize/miniconda3/share/psi4/basis/cc-pvdz.gbs 
    atoms 2-3  entry C          line   138 file /shared/joao/test_parameterize/miniconda3/share/psi4/basis/cc-pvdz.gbs 
    atoms 4    entry N          line   168 file /shared/joao/test_parameterize/miniconda3/share/psi4/basis/cc-pvdz.gbs 
    atoms 5-11 entry H          line    22 file /shared/joao/test_parameterize/miniconda3/share/psi4/basis/cc-pvdz.gbs 


         ---------------------------------------------------------
                                   SCF
            by Justin Turney, Rob Parrish, Andy Simmonett
                             and Daniel Smith
                              RKS Reference
                        1 Threads,   5100 MiB Core
         ---------------------------------------------------------

  ==> Geometry <==

    Molecular point group: c1
    Full point group: C1

    Geometry (in Angstrom), charge = 0, multiplicity = 1:

       Center              X                  Y                   Z               Mass       
    ------------   -----------------  -----------------  -----------------  -----------------
         O            1.050400000000     0.042900000000    -0.048100000000    15.994914619560
         C            2.474100000000     0.047400000000    -0.029000000000    12.000000000000
         C            3.002600000000    -1.068900000000    -0.932000000000    12.000000000000
         N            4.462700000000    -1.072400000000    -1.006800000000    14.003074004780
         H            0.760400000000     0.728400000000     0.578000000000     1.007825032070
         H            2.809900000000    -0.097900000000     1.003200000000     1.007825032070
         H            2.817400000000     1.026800000000    -0.378600000000     1.007825032070
         H            2.581000000000    -0.963300000000    -1.938400000000     1.007825032070
         H            2.653800000000    -2.036400000000    -0.553400000000     1.007825032070
         H            4.751399000000    -0.937354000000    -1.975251000000     1.007825032070
         H            4.802581000000    -1.996506000000    -0.740792000000     1.007825032070

  Running in c1 symmetry.

  Rotational constants: A =      0.72029  B =      0.02755  C =      0.02692 [cm^-1]
  Rotational constants: A =  21593.81098  B =    825.97064  C =    806.99751 [MHz]
  Nuclear repulsion =  130.240669563181200

  Charge       = 0
  Multiplicity = 1
  Electrons    = 34
  Nalpha       = 17
  Nbeta        = 17

  ==> Algorithm <==

  SCF Algorithm Type is DF.
  DIIS enabled.
  MOM disabled.
  Fractional occupation disabled.
  Guess Type is SAD.
  Energy threshold   = 1.00e-06
  Density threshold  = 1.00e-06
  Integral threshold = 0.00e+00

  ==> Primary Basis <==

  Basis Set: CC-PVDZ
    Blend: CC-PVDZ
    Number of shells: 45
    Number of basis function: 91
    Number of Cartesian functions: 95
    Spherical Harmonics?: true
    Max angular momentum: 2

  ==> DFT Potential <==

   => Composite Functional: B3LYP-D3ZERO <= 

    B3LYP-d3zero Hyb-GGA Exchange-Correlation Functional

    P. J. Stephens, F. J. Devlin, C. F. Chabalowski, and M. J. Frisch, J. Phys. Chem. 98, 11623 (1994)

    Deriv               =              1
    GGA                 =           TRUE
    Meta                =          FALSE

    Exchange Hybrid     =           TRUE
    MP2 Hybrid          =          FALSE

   => Exchange Functionals <=

    0.0800   Slater exchange
    0.7200         Becke 88

   => Exact (HF) Exchange <=

    0.2000               HF 

   => Correlation Functionals <=

    0.1900   Vosko, Wilk & Nusair (VWN5_RPA)
    0.8100   Lee, Yang & Parr

   => Molecular Quadrature <=

    Radial Scheme       =       TREUTLER
    Pruning Scheme      =           FLAT
    Nuclear Scheme      =       TREUTLER

    BS radius alpha     =              1
    Pruning alpha       =              1
    Radial Points       =             75
    Spherical Points    =            302
    Total Points        =         245094
    Total Blocks        =           1899
    Max Points          =            256
    Max Functions       =             91

   => -D3ZERO: Empirical Dispersion <=

    Grimme's -D3 (zero-damping) Dispersion Correction
    Grimme S.; Antony J.; Ehrlich S.; Krieg H. (2010), J. Chem. Phys., 132: 154104

        S6 =   1.000000E+00
        S8 =   1.703000E+00
       SR6 =   1.261000E+00
       SR8 =   1.000000E+00
    ALPHA6 =   1.400000E+01

   => Loading Basis Set <=

    Name: (CC-PVDZ AUX)
    Role: JKFIT
    Keyword: DF_BASIS_SCF
    atoms 1    entry O          line   221 file /shared/joao/test_parameterize/miniconda3/share/psi4/basis/cc-pvdz-jkfit.gbs 
    atoms 2-3  entry C          line   121 file /shared/joao/test_parameterize/miniconda3/share/psi4/basis/cc-pvdz-jkfit.gbs 
    atoms 4    entry N          line   171 file /shared/joao/test_parameterize/miniconda3/share/psi4/basis/cc-pvdz-jkfit.gbs 
    atoms 5-11 entry H          line    51 file /shared/joao/test_parameterize/miniconda3/share/psi4/basis/cc-pvdz-jkfit.gbs 

  ==> Pre-Iterations <==

   -------------------------------------------------------
    Irrep   Nso     Nmo     Nalpha   Nbeta   Ndocc  Nsocc
   -------------------------------------------------------
     A         91      91       0       0       0       0
   -------------------------------------------------------
    Total      91      91      17      17      17       0
   -------------------------------------------------------

  ==> Integral Setup <==

  DFHelper Memory: AOs need 0.035 [GiB]; user supplied 3.486 [GiB]. Using in-core AOs.

  ==> MemDFJK: Density-Fitted J/K Matrices <==

    J tasked:                   Yes
    K tasked:                   Yes
    wK tasked:                   No
    OpenMP threads:               1
    Memory (MB):               3570
    Algorithm:                 Core
    Schwarz Cutoff:           1E-12
    Mask sparsity (%):       0.7246
    Fitting Condition:        1E-12

   => Auxiliary Basis Set <=

  Basis Set: (CC-PVDZ AUX)
    Blend: CC-PVDZ-JKFIT
    Number of shells: 159
    Number of basis function: 441
    Number of Cartesian functions: 499
    Spherical Harmonics?: true
    Max angular momentum: 3

  Minimum eigenvalue in the overlap matrix is 4.6928734518E-03.
  Using Symmetric Orthogonalization.

  SCF Guess: Superposition of Atomic Densities via on-the-fly atomic UHF.

  ==> Iterations <==

                           Total Energy        Delta E     RMS |[F,P]|

   @DF-RKS iter   0:  -210.84244011682918   -2.10842e+02   3.66737e-02 
   @DF-RKS iter   1:  -210.21338869191823    6.29051e-01   7.05763e-03 
   @DF-RKS iter   2:  -210.07099259810667    1.42396e-01   9.62519e-03 DIIS
   @DF-RKS iter   3:  -210.38869397702936   -3.17701e-01   5.55521e-04 DIIS
   @DF-RKS iter   4:  -210.38932664245161   -6.32665e-04   3.55688e-04 DIIS
   @DF-RKS iter   5:  -210.38978087326507   -4.54231e-04   4.80696e-05 DIIS
   @DF-RKS iter   6:  -210.38978691270580   -6.03944e-06   2.35661e-05 DIIS
   @DF-RKS iter   7:  -210.38978890777273   -1.99507e-06   2.15166e-06 DIIS
   @DF-RKS iter   8:  -210.38978892416961   -1.63969e-08   7.53640e-07 DIIS

  ==> Post-Iterations <==

    Orbital Energies [Eh]
    ---------------------

    Doubly Occupied:                                                      

       1A    -19.122323     2A    -14.306094     3A    -10.216010  
       4A    -10.201592     5A     -1.004763     6A     -0.877015  
       7A     -0.709832     8A     -0.591383     9A     -0.501880  
      10A     -0.496625    11A     -0.434930    12A     -0.425951  
      13A     -0.393150    14A     -0.344955    15A     -0.324334  
      16A     -0.255882    17A     -0.235600  

    Virtual:                                                              

      18A      0.051103    19A      0.059479    20A      0.091768  
      21A      0.123950    22A      0.127510    23A      0.145591  
      24A      0.192472    25A      0.204315    26A      0.250959  
      27A      0.266561    28A      0.426423    29A      0.451827  
      30A      0.497785    31A      0.533771    32A      0.546174  
      33A      0.566976    34A      0.612014    35A      0.620828  
      36A      0.634581    37A      0.658638    38A      0.661945  
      39A      0.686231    40A      0.694781    41A      0.812722  
      42A      0.845752    43A      0.891863    44A      0.908995  
      45A      0.925706    46A      0.948132    47A      0.996789  
      48A      1.067738    49A      1.201824    50A      1.214768  
      51A      1.262214    52A      1.281518    53A      1.312957  
      54A      1.330377    55A      1.360119    56A      1.503185  
      57A      1.554184    58A      1.603606    59A      1.614083  
      60A      1.621574    61A      1.657543    62A      1.697173  
      63A      1.707978    64A      1.723836    65A      1.741897  
      66A      1.774668    67A      1.792337    68A      1.849612  
      69A      1.905257    70A      1.975966    71A      2.025779  
      72A      2.053468    73A      2.057246    74A      2.132272  
      75A      2.142512    76A      2.244241    77A      2.294716  
      78A      2.405688    79A      2.418524    80A      2.458173  
      81A      2.493173    82A      2.506785    83A      2.602453  
      84A      2.641141    85A      2.816122    86A      2.963572  
      87A      2.984860    88A      3.078036    89A      3.103205  
      90A      3.205902    91A      3.699330  

    Final Occupation by Irrep:
              A 
    DOCC [    17 ]

  Energy converged.

  @DF-RKS Final Energy:  -210.38978892416961

   => Energetics <=

    Nuclear Repulsion Energy =            130.2406695631811999
    One-Electron Energy =                -543.4941869837484774
    Two-Electron Energy =                 226.3555813836401569
    DFT Exchange-Correlation Energy =     -23.4871847572424919
    Empirical Dispersion Energy =          -0.0046681300000000
    VV10 Nonlocal Energy =                  0.0000000000000000
    Total Energy =                       -210.3897889241696078



Properties will be evaluated at   0.000000,   0.000000,   0.000000 [a0]

Properties computed using the SCF density matrix

  Nuclear Dipole Moment: [e a0]
     X:   177.0272      Y:   -33.2003      Z:   -32.5102

  Electronic Dipole Moment: [e a0]
     X:  -176.7874      Y:    33.1445      Z:    32.5019

  Dipole Moment: [e a0]
     X:     0.2398      Y:    -0.0558      Z:    -0.0083     Total:     0.2464

  Dipole Moment: [D]
     X:     0.6096      Y:    -0.1419      Z:    -0.0211     Total:     0.6262


*** tstop() called on loro.prib.upf.edu at Sat Sep 29 17:09:46 2018
Module time:
	user time   =      15.12 seconds =       0.25 minutes
	system time =       0.23 seconds =       0.00 minutes
	total time  =         18 seconds =       0.30 minutes
Total time:
	user time   =      15.12 seconds =       0.25 minutes
	system time =       0.23 seconds =       0.00 minutes
	total time  =         18 seconds =       0.30 minutes


Properties will be evaluated at   0.000000,   0.000000,   0.000000 [a0]
OEProp: No title given, name of density matrix used for the following properties is 'SCF density'
  Nuclear Dipole Moment: [e a0]
     X:   177.0272      Y:   -33.2003      Z:   -32.5102

  Electronic Dipole Moment: [e a0]
     X:  -176.7874      Y:    33.1445      Z:    32.5019

  Dipole Moment: [e a0]
     X:     0.2398      Y:    -0.0558      Z:    -0.0083     Total:     0.2464

  Dipole Moment: [D]
     X:     0.6096      Y:    -0.1419      Z:    -0.0211     Total:     0.6262

  Quadrupole Moment: [D A]
    XX:   -24.3282     YY:   -21.8685     ZZ:   -22.3541
    XY:    -4.9563     XZ:    -4.0971     YZ:     2.1372

  Traceless Quadrupole Moment: [D A]
    XX:    -1.4779     YY:     0.9817     ZZ:     0.4962
    XY:    -4.9563     XZ:    -4.0971     YZ:     2.1372

  Mulliken Charges: (a.u.)
   Center  Symbol    Alpha    Beta     Spin     Total
       1     O     4.14147  4.14147  0.00000 -0.28294
       2     C     2.92009  2.92009  0.00000  0.15983
       3     C     2.99873  2.99873  0.00000  0.00254
       4     N     3.58711  3.58711  0.00000 -0.17422
       5     H     0.43031  0.43031  0.00000  0.13938
       6     H     0.50307  0.50307  0.00000 -0.00613
       7     H     0.50316  0.50316  0.00000 -0.00631
       8     H     0.49460  0.49460  0.00000  0.01081
       9     H     0.49455  0.49455  0.00000  0.01090
      10     H     0.46342  0.46342  0.00000  0.07316
      11     H     0.46349  0.46349  0.00000  0.07301

   Total alpha = 17.00000, Total beta = 17.00000, Total charge =  0.00000


    Psi4 stopped on: Saturday, 29 September 2018 05:09PM
    Psi4 wall time for execution: 0:00:18.08

*** Psi4 exiting successfully. Buy a developer a beer!
