
    -----------------------------------------------------------------------
          Psi4: An Open-Source Ab Initio Electronic Structure Package
                               Psi4 1.2.1 release

                         Git: Rev {HEAD} 406f4de 


    R. M. Parrish, L. A. Burns, D. G. A. Smith, A. C. Simmonett,
    A. E. DePrince III, E. G. Hohenstein, U. Bozkaya, A. Yu. Sokolov,
    R. Di Remigio, R. M. Richard, J. F. Gonthier, A. M. James,
    H. R. McAlexander, A. Kumar, M. Saitow, X. Wang, B. P. Pritchard,
    P. Verma, H. F. Schaefer III, K. Patkowski, R. A. King, E. F. Valeev,
    F. A. Evangelista, J. M. Turney, T. D. Crawford, and C. D. Sherrill,
    J. Chem. Theory Comput. 13(7) pp 3185--3197 (2017).
    (doi: 10.1021/acs.jctc.7b00174)


                         Additional Contributions by
    P. Kraus, H. Kruse, M. H. Lechner, M. C. Schieber, and R. A. Shaw

    -----------------------------------------------------------------------


    Psi4 started on: Saturday, 29 September 2018 04:49PM

    Process ID: 4713
    Host:       loro.prib.upf.edu
    PSIDATADIR: /shared/joao/test_parameterize/miniconda3/share/psi4
    Memory:     500.0 MiB
    Threads:    1
    
  ==> Input File <==

--------------------------------------------------------------------------
set_num_threads(1)
set_memory('5348 MB')

set { scf_mem_safety_factor 0.7 }

set { reference rks }
set { basis cc-pVDZ }

molecule MOL {
    0 1
    noreorient
    nocom
    symmetry c1
    O    1.141000   0.017000   0.083000
    C    2.558000   0.086000  -0.005000
    C    3.192000  -0.789000   1.067000
    O    4.174618  -1.637964   0.486405
    H    0.789000   0.590000  -0.620000
    H    2.874000   1.128000   0.115000
    H    2.871000  -0.243000  -1.001000
    H    2.431188  -1.404018   1.557770
    H    3.665265  -0.168357   1.836221
    H    4.544677  -2.171412   1.211233
}

set optking { frozen_dihedral = (" 1 2 3 4 ") }

energy, wfn = energy('B3LYP-D3', return_wfn=True)

import os
os.chdir(os.environ['HTMD_PSI4_WORKDIR'])

oeprop(wfn, 'DIPOLE', 'QUADRUPOLE', 'MULLIKEN_CHARGES')

with open('psi4out.xyz', 'w') as f:
    f.write('10 ' )
    f.write('%.12f\n' % energy)
    f.write(MOL.save_string_xyz())
--------------------------------------------------------------------------
  Threads set to 1 by Python driver.

  Memory set to   4.981 GiB by Python driver.

*** tstart() called on loro.prib.upf.edu
*** at Sat Sep 29 16:49:51 2018

   => Loading Basis Set <=

    Name: CC-PVDZ
    Role: ORBITAL
    Keyword: BASIS
    atoms 1, 4 entry O          line   198 file /shared/joao/test_parameterize/miniconda3/share/psi4/basis/cc-pvdz.gbs 
    atoms 2-3  entry C          line   138 file /shared/joao/test_parameterize/miniconda3/share/psi4/basis/cc-pvdz.gbs 
    atoms 5-10 entry H          line    22 file /shared/joao/test_parameterize/miniconda3/share/psi4/basis/cc-pvdz.gbs 


         ---------------------------------------------------------
                                   SCF
            by Justin Turney, Rob Parrish, Andy Simmonett
                             and Daniel Smith
                              RKS Reference
                        1 Threads,   5100 MiB Core
         ---------------------------------------------------------

  ==> Geometry <==

    Molecular point group: c1
    Full point group: C1

    Geometry (in Angstrom), charge = 0, multiplicity = 1:

       Center              X                  Y                   Z               Mass       
    ------------   -----------------  -----------------  -----------------  -----------------
         O            1.141000000000     0.017000000000     0.083000000000    15.994914619560
         C            2.558000000000     0.086000000000    -0.005000000000    12.000000000000
         C            3.192000000000    -0.789000000000     1.067000000000    12.000000000000
         O            4.174618000000    -1.637964000000     0.486405000000    15.994914619560
         H            0.789000000000     0.590000000000    -0.620000000000     1.007825032070
         H            2.874000000000     1.128000000000     0.115000000000     1.007825032070
         H            2.871000000000    -0.243000000000    -1.001000000000     1.007825032070
         H            2.431188000000    -1.404018000000     1.557770000000     1.007825032070
         H            3.665265000000    -0.168357000000     1.836221000000     1.007825032070
         H            4.544677000000    -2.171412000000     1.211233000000     1.007825032070

  Running in c1 symmetry.

  Rotational constants: A =      0.55504  B =      0.02706  C =      0.02663 [cm^-1]
  Rotational constants: A =  16639.81401  B =    811.29870  C =    798.36477 [MHz]
  Nuclear repulsion =  129.912049484671002

  Charge       = 0
  Multiplicity = 1
  Electrons    = 34
  Nalpha       = 17
  Nbeta        = 17

  ==> Algorithm <==

  SCF Algorithm Type is DF.
  DIIS enabled.
  MOM disabled.
  Fractional occupation disabled.
  Guess Type is SAD.
  Energy threshold   = 1.00e-06
  Density threshold  = 1.00e-06
  Integral threshold = 0.00e+00

  ==> Primary Basis <==

  Basis Set: CC-PVDZ
    Blend: CC-PVDZ
    Number of shells: 42
    Number of basis function: 86
    Number of Cartesian functions: 90
    Spherical Harmonics?: true
    Max angular momentum: 2

  ==> DFT Potential <==

   => Composite Functional: B3LYP-D3ZERO <= 

    B3LYP-d3zero Hyb-GGA Exchange-Correlation Functional

    P. J. Stephens, F. J. Devlin, C. F. Chabalowski, and M. J. Frisch, J. Phys. Chem. 98, 11623 (1994)

    Deriv               =              1
    GGA                 =           TRUE
    Meta                =          FALSE

    Exchange Hybrid     =           TRUE
    MP2 Hybrid          =          FALSE

   => Exchange Functionals <=

    0.0800   Slater exchange
    0.7200         Becke 88

   => Exact (HF) Exchange <=

    0.2000               HF 

   => Correlation Functionals <=

    0.1900   Vosko, Wilk & Nusair (VWN5_RPA)
    0.8100   Lee, Yang & Parr

   => Molecular Quadrature <=

    Radial Scheme       =       TREUTLER
    Pruning Scheme      =           FLAT
    Nuclear Scheme      =       TREUTLER

    BS radius alpha     =              1
    Pruning alpha       =              1
    Radial Points       =             75
    Spherical Points    =            302
    Total Points        =         222548
    Total Blocks        =           1740
    Max Points          =            256
    Max Functions       =             86

   => -D3ZERO: Empirical Dispersion <=

    Grimme's -D3 (zero-damping) Dispersion Correction
    Grimme S.; Antony J.; Ehrlich S.; Krieg H. (2010), J. Chem. Phys., 132: 154104

        S6 =   1.000000E+00
        S8 =   1.703000E+00
       SR6 =   1.261000E+00
       SR8 =   1.000000E+00
    ALPHA6 =   1.400000E+01

   => Loading Basis Set <=

    Name: (CC-PVDZ AUX)
    Role: JKFIT
    Keyword: DF_BASIS_SCF
    atoms 1, 4 entry O          line   221 file /shared/joao/test_parameterize/miniconda3/share/psi4/basis/cc-pvdz-jkfit.gbs 
    atoms 2-3  entry C          line   121 file /shared/joao/test_parameterize/miniconda3/share/psi4/basis/cc-pvdz-jkfit.gbs 
    atoms 5-10 entry H          line    51 file /shared/joao/test_parameterize/miniconda3/share/psi4/basis/cc-pvdz-jkfit.gbs 

  ==> Pre-Iterations <==

   -------------------------------------------------------
    Irrep   Nso     Nmo     Nalpha   Nbeta   Ndocc  Nsocc
   -------------------------------------------------------
     A         86      86       0       0       0       0
   -------------------------------------------------------
    Total      86      86      17      17      17       0
   -------------------------------------------------------

  ==> Integral Setup <==

  DFHelper Memory: AOs need 0.030 [GiB]; user supplied 3.486 [GiB]. Using in-core AOs.

  ==> MemDFJK: Density-Fitted J/K Matrices <==

    J tasked:                   Yes
    K tasked:                   Yes
    wK tasked:                   No
    OpenMP threads:               1
    Memory (MB):               3570
    Algorithm:                 Core
    Schwarz Cutoff:           1E-12
    Mask sparsity (%):       0.4327
    Fitting Condition:        1E-12

   => Auxiliary Basis Set <=

  Basis Set: (CC-PVDZ AUX)
    Blend: CC-PVDZ-JKFIT
    Number of shells: 150
    Number of basis function: 418
    Number of Cartesian functions: 474
    Spherical Harmonics?: true
    Max angular momentum: 3

  Minimum eigenvalue in the overlap matrix is 4.8937167370E-03.
  Using Symmetric Orthogonalization.

  SCF Guess: Superposition of Atomic Densities via on-the-fly atomic UHF.

  ==> Iterations <==

                           Total Energy        Delta E     RMS |[F,P]|

   @DF-RKS iter   0:  -230.94157525037241   -2.30942e+02   4.03857e-02 
   @DF-RKS iter   1:  -230.17614106919754    7.65434e-01   5.07090e-03 
   @DF-RKS iter   2:  -230.12831316440534    4.78279e-02   6.75847e-03 DIIS
   @DF-RKS iter   3:  -230.25216751153096   -1.23854e-01   6.21996e-04 DIIS
   @DF-RKS iter   4:  -230.25316140032155   -9.93889e-04   2.57756e-04 DIIS
   @DF-RKS iter   5:  -230.25339144370119   -2.30043e-04   4.81008e-05 DIIS
   @DF-RKS iter   6:  -230.25339940388426   -7.96018e-06   7.32106e-06 DIIS
   @DF-RKS iter   7:  -230.25339954802769   -1.44143e-07   3.44711e-06 DIIS
   @DF-RKS iter   8:  -230.25339957774889   -2.97212e-08   9.54384e-07 DIIS

  ==> Post-Iterations <==

    Orbital Energies [Eh]
    ---------------------

    Doubly Occupied:                                                      

       1A    -19.129276     2A    -19.129233     3A    -10.225299  
       4A    -10.225108     5A     -1.017658     6A     -1.006004  
       7A     -0.732581     8A     -0.603260     9A     -0.522518  
      10A     -0.501248    11A     -0.444438    12A     -0.411206  
      13A     -0.403612    14A     -0.347383    15A     -0.320205  
      16A     -0.265548    17A     -0.257444  

    Virtual:                                                              

      18A      0.049361    19A      0.054647    20A      0.103258  
      21A      0.125225    22A      0.129488    23A      0.148939  
      24A      0.199380    25A      0.239344    26A      0.243199  
      27A      0.460397    28A      0.476009    29A      0.493279  
      30A      0.518922    31A      0.533531    32A      0.598649  
      33A      0.610610    34A      0.621570    35A      0.646642  
      36A      0.655904    37A      0.677117    38A      0.691878  
      39A      0.830474    40A      0.830946    41A      0.925044  
      42A      0.974765    43A      1.003734    44A      1.039209  
      45A      1.059171    46A      1.198097    47A      1.219563  
      48A      1.238285    49A      1.291324    50A      1.328734  
      51A      1.332315    52A      1.365344    53A      1.519109  
      54A      1.521843    55A      1.534038    56A      1.583171  
      57A      1.605168    58A      1.634257    59A      1.654531  
      60A      1.744901    61A      1.766913    62A      1.776759  
      63A      1.832798    64A      1.923428    65A      1.966559  
      66A      1.984269    67A      2.026116    68A      2.059900  
      69A      2.134221    70A      2.142105    71A      2.182222  
      72A      2.250960    73A      2.403732    74A      2.426231  
      75A      2.482273    76A      2.517061    77A      2.913089  
      78A      2.960732    79A      3.001839    80A      3.022846  
      81A      3.070801    82A      3.129890    83A      3.184855  
      84A      3.195086    85A      3.681059    86A      3.689068  

    Final Occupation by Irrep:
              A 
    DOCC [    17 ]

  Energy converged.

  @DF-RKS Final Energy:  -230.25339957774889

   => Energetics <=

    Nuclear Repulsion Energy =            129.9120494846710017
    One-Electron Energy =                -571.6124457517726114
    Two-Electron Energy =                 235.9929962586498675
    DFT Exchange-Correlation Energy =     -24.5417449392971463
    Empirical Dispersion Energy =          -0.0042546300000000
    VV10 Nonlocal Energy =                  0.0000000000000000
    Total Energy =                       -230.2533995777488940



Properties will be evaluated at   0.000000,   0.000000,   0.000000 [a0]

Properties computed using the SCF density matrix

  Nuclear Dipole Moment: [e a0]
     X:   178.0123      Y:   -36.7637      Z:    26.5062

  Electronic Dipole Moment: [e a0]
     X:  -177.8666      Y:    37.0744      Z:   -26.3395

  Dipole Moment: [e a0]
     X:     0.1457      Y:     0.3107      Z:     0.1666     Total:     0.3815

  Dipole Moment: [D]
     X:     0.3703      Y:     0.7898      Z:     0.4235     Total:     0.9697


*** tstop() called on loro.prib.upf.edu at Sat Sep 29 16:50:07 2018
Module time:
	user time   =      12.77 seconds =       0.21 minutes
	system time =       0.21 seconds =       0.00 minutes
	total time  =         16 seconds =       0.27 minutes
Total time:
	user time   =      12.77 seconds =       0.21 minutes
	system time =       0.21 seconds =       0.00 minutes
	total time  =         16 seconds =       0.27 minutes


Properties will be evaluated at   0.000000,   0.000000,   0.000000 [a0]
OEProp: No title given, name of density matrix used for the following properties is 'SCF density'
  Nuclear Dipole Moment: [e a0]
     X:   178.0123      Y:   -36.7637      Z:    26.5062

  Electronic Dipole Moment: [e a0]
     X:  -177.8666      Y:    37.0744      Z:   -26.3395

  Dipole Moment: [e a0]
     X:     0.1457      Y:     0.3107      Z:     0.1666     Total:     0.3815

  Dipole Moment: [D]
     X:     0.3703      Y:     0.7898      Z:     0.4235     Total:     0.9697

  Quadrupole Moment: [D A]
    XX:   -23.5147     YY:   -22.8716     ZZ:   -21.4660
    XY:    -0.4557     XZ:     6.0773     YZ:    -4.0556

  Traceless Quadrupole Moment: [D A]
    XX:    -0.8972     YY:    -0.2542     ZZ:     1.1514
    XY:    -0.4557     XZ:     6.0773     YZ:    -4.0556

  Mulliken Charges: (a.u.)
   Center  Symbol    Alpha    Beta     Spin     Total
       1     O     4.14045  4.14045  0.00000 -0.28089
       2     C     2.93381  2.93381  0.00000  0.13238
       3     C     2.93392  2.93392  0.00000  0.13217
       4     O     4.14066  4.14066  0.00000 -0.28133
       5     H     0.42986  0.42986  0.00000  0.14028
       6     H     0.50135  0.50135  0.00000 -0.00270
       7     H     0.49449  0.49449  0.00000  0.01102
       8     H     0.49440  0.49440  0.00000  0.01119
       9     H     0.50125  0.50125  0.00000 -0.00250
      10     H     0.42981  0.42981  0.00000  0.14038

   Total alpha = 17.00000, Total beta = 17.00000, Total charge =  0.00000


    Psi4 stopped on: Saturday, 29 September 2018 04:50PM
    Psi4 wall time for execution: 0:00:16.01

*** Psi4 exiting successfully. Buy a developer a beer!
