
    -----------------------------------------------------------------------
          Psi4: An Open-Source Ab Initio Electronic Structure Package
                               Psi4 1.2.1 release

                         Git: Rev {HEAD} 406f4de 


    R. M. Parrish, L. A. Burns, D. G. A. Smith, A. C. Simmonett,
    A. E. DePrince III, E. G. Hohenstein, U. Bozkaya, A. Yu. Sokolov,
    R. Di Remigio, R. M. Richard, J. F. Gonthier, A. M. James,
    H. R. McAlexander, A. Kumar, M. Saitow, X. Wang, B. P. Pritchard,
    P. Verma, H. F. Schaefer III, K. Patkowski, R. A. King, E. F. Valeev,
    F. A. Evangelista, J. M. Turney, T. D. Crawford, and C. D. Sherrill,
    J. Chem. Theory Comput. 13(7) pp 3185--3197 (2017).
    (doi: 10.1021/acs.jctc.7b00174)


                         Additional Contributions by
    P. Kraus, H. Kruse, M. H. Lechner, M. C. Schieber, and R. A. Shaw

    -----------------------------------------------------------------------


    Psi4 started on: Saturday, 29 September 2018 08:50PM

    Process ID: 29362
    Host:       oliva.prib.upf.edu
    PSIDATADIR: /shared/joao/test_parameterize/miniconda3/share/psi4
    Memory:     500.0 MiB
    Threads:    1
    
  ==> Input File <==

--------------------------------------------------------------------------
set_num_threads(4)
set_memory('3000 MB')

set { scf_mem_safety_factor 0.7 }

set { reference rks }
set { basis 6-31G* }

molecule MOL {
    1 1
    noreorient
    nocom
    symmetry c1
    C   -0.000000  -0.000000  -0.177864
    C    0.036678   1.219374   0.524165
    C    0.031765   1.213120   1.915444
    C    0.000000   0.000000   2.610107
    C   -0.031765  -1.213120   1.915444
    C   -0.036678  -1.219375   0.524165
    C   -0.000000   0.000000  -1.644734
    H    0.018170   2.164705  -0.010854
    H    0.042402   2.152895   2.457886
    H    0.000000   0.000000   3.695756
    H   -0.042402  -2.152895   2.457886
    H   -0.018170  -2.164705  -0.010853
    N    1.152097  -0.034654  -2.308460
    N   -1.152097   0.034654  -2.308460
    H   -1.209665  -0.056578  -3.315997
    H   -2.013552   0.224422  -1.813317
    H    2.013552  -0.224422  -1.813316
    H    1.209665   0.056579  -3.315997
}

set optking { frozen_dihedral = (" 2 1 7 13 ") }

set optking { dynamic_level = 1 
 geom_maxiter = 250
 print_trajectory_xyz_file = True }

energy, wfn = optimize('B3LYP-D3', return_wfn=True)

import os
os.chdir(os.environ['HTMD_PSI4_WORKDIR'])

oeprop(wfn, 'DIPOLE', 'QUADRUPOLE', 'MULLIKEN_CHARGES')

with open('psi4out.xyz', 'w') as f:
    f.write('18 ' )
    f.write('%.12f\n' % energy)
    f.write(MOL.save_string_xyz())
--------------------------------------------------------------------------
  Threads set to 4 by Python driver.

  Memory set to   2.794 GiB by Python driver.
gradient() will perform analytic gradient computation.

*** tstart() called on oliva.prib.upf.edu
*** at Sat Sep 29 20:50:07 2018

   => Loading Basis Set <=

    Name: 6-31G*
    Role: ORBITAL
    Keyword: BASIS
    atoms 1-7         entry C          line   111 file /shared/joao/test_parameterize/miniconda3/share/psi4/basis/6-31gs.gbs 
    atoms 8-12, 15-18 entry H          line    44 file /shared/joao/test_parameterize/miniconda3/share/psi4/basis/6-31gs.gbs 
    atoms 13-14       entry N          line   128 file /shared/joao/test_parameterize/miniconda3/share/psi4/basis/6-31gs.gbs 


         ---------------------------------------------------------
                                   SCF
            by Justin Turney, Rob Parrish, Andy Simmonett
                             and Daniel Smith
                              RKS Reference
                        4 Threads,   2861 MiB Core
         ---------------------------------------------------------

  ==> Geometry <==

    Molecular point group: c1
    Full point group: C1

    Geometry (in Angstrom), charge = 1, multiplicity = 1:

       Center              X                  Y                   Z               Mass       
    ------------   -----------------  -----------------  -----------------  -----------------
         C            0.000000000000     0.000000000000    -0.177864000000    12.000000000000
         C            0.036678000000     1.219374000000     0.524165000000    12.000000000000
         C            0.031765000000     1.213120000000     1.915444000000    12.000000000000
         C            0.000000000000     0.000000000000     2.610107000000    12.000000000000
         C           -0.031765000000    -1.213120000000     1.915444000000    12.000000000000
         C           -0.036678000000    -1.219375000000     0.524165000000    12.000000000000
         C            0.000000000000     0.000000000000    -1.644734000000    12.000000000000
         H            0.018170000000     2.164705000000    -0.010854000000     1.007825032070
         H            0.042402000000     2.152895000000     2.457886000000     1.007825032070
         H            0.000000000000     0.000000000000     3.695756000000     1.007825032070
         H           -0.042402000000    -2.152895000000     2.457886000000     1.007825032070
         H           -0.018170000000    -2.164705000000    -0.010853000000     1.007825032070
         N            1.152097000000    -0.034654000000    -2.308460000000    14.003074004780
         N           -1.152097000000     0.034654000000    -2.308460000000    14.003074004780
         H           -1.209665000000    -0.056578000000    -3.315997000000     1.007825032070
         H           -2.013552000000     0.224422000000    -1.813317000000     1.007825032070
         H            2.013552000000    -0.224422000000    -1.813316000000     1.007825032070
         H            1.209665000000     0.056579000000    -3.315997000000     1.007825032070

  Running in c1 symmetry.

  Rotational constants: A =      0.12190  B =      0.03652  C =      0.03350 [cm^-1]
  Rotational constants: A =   3654.48841  B =   1094.90685  C =   1004.41517 [MHz]
  Nuclear repulsion =  415.782966393660729

  Charge       = 1
  Multiplicity = 1
  Electrons    = 64
  Nalpha       = 32
  Nbeta        = 32

  ==> Algorithm <==

  SCF Algorithm Type is DF.
  DIIS enabled.
  MOM disabled.
  Fractional occupation disabled.
  Guess Type is SAD.
  Energy threshold   = 1.00e-08
  Density threshold  = 1.00e-08
  Integral threshold = 0.00e+00

  ==> Primary Basis <==

  Basis Set: 6-31G*
    Blend: 6-31G*
    Number of shells: 72
    Number of basis function: 153
    Number of Cartesian functions: 153
    Spherical Harmonics?: false
    Max angular momentum: 2

  ==> DFT Potential <==

   => Composite Functional: B3LYP-D3ZERO <= 

    B3LYP-d3zero Hyb-GGA Exchange-Correlation Functional

    P. J. Stephens, F. J. Devlin, C. F. Chabalowski, and M. J. Frisch, J. Phys. Chem. 98, 11623 (1994)

    Deriv               =              1
    GGA                 =           TRUE
    Meta                =          FALSE

    Exchange Hybrid     =           TRUE
    MP2 Hybrid          =          FALSE

   => Exchange Functionals <=

    0.0800   Slater exchange
    0.7200         Becke 88

   => Exact (HF) Exchange <=

    0.2000               HF 

   => Correlation Functionals <=

    0.1900   Vosko, Wilk & Nusair (VWN5_RPA)
    0.8100   Lee, Yang & Parr

   => Molecular Quadrature <=

    Radial Scheme       =       TREUTLER
    Pruning Scheme      =           FLAT
    Nuclear Scheme      =       TREUTLER

    BS radius alpha     =              1
    Pruning alpha       =              1
    Radial Points       =             75
    Spherical Points    =            302
    Total Points        =         397340
    Total Blocks        =           3000
    Max Points          =            256
    Max Functions       =            150

   => -D3ZERO: Empirical Dispersion <=

    Grimme's -D3 (zero-damping) Dispersion Correction
    Grimme S.; Antony J.; Ehrlich S.; Krieg H. (2010), J. Chem. Phys., 132: 154104

        S6 =   1.000000E+00
        S8 =   1.703000E+00
       SR6 =   1.261000E+00
       SR8 =   1.000000E+00
    ALPHA6 =   1.400000E+01

   => Loading Basis Set <=

    Name: (6-31G* AUX)
    Role: JKFIT
    Keyword: DF_BASIS_SCF
    atoms 1-7         entry C          line   121 file /shared/joao/test_parameterize/miniconda3/share/psi4/basis/cc-pvdz-jkfit.gbs 
    atoms 8-12, 15-18 entry H          line    51 file /shared/joao/test_parameterize/miniconda3/share/psi4/basis/cc-pvdz-jkfit.gbs 
    atoms 13-14       entry N          line   171 file /shared/joao/test_parameterize/miniconda3/share/psi4/basis/cc-pvdz-jkfit.gbs 

  ==> Pre-Iterations <==

   -------------------------------------------------------
    Irrep   Nso     Nmo     Nalpha   Nbeta   Ndocc  Nsocc
   -------------------------------------------------------
     A        153     153       0       0       0       0
   -------------------------------------------------------
    Total     153     153      32      32      32       0
   -------------------------------------------------------

  ==> Integral Setup <==

  ==> DiskDFJK: Density-Fitted J/K Matrices <==

    J tasked:                  Yes
    K tasked:                  Yes
    wK tasked:                  No
    OpenMP threads:              4
    Integrals threads:           4
    Memory (MB):              2002
    Algorithm:                Core
    Integral Cache:           NONE
    Schwarz Cutoff:          1E-12
    Fitting Condition:       1E-12

   => Auxiliary Basis Set <=

  Basis Set: (6-31G* AUX)
    Blend: CC-PVDZ-JKFIT
    Number of shells: 297
    Number of basis function: 954
    Number of Cartesian functions: 954
    Spherical Harmonics?: false
    Max angular momentum: 3

  Minimum eigenvalue in the overlap matrix is 4.8871037945E-04.
  Using Symmetric Orthogonalization.

  SCF Guess: Superposition of Atomic Densities via on-the-fly atomic UHF.

  ==> Iterations <==

                           Total Energy        Delta E     RMS |[F,P]|

   @DF-RKS iter   0:  -379.66954197793410   -3.79670e+02   6.75314e-02 
   @DF-RKS iter   1:  -381.05058208326034   -1.38104e+00   1.15029e-02 
   @DF-RKS iter   2:  -380.99269634825754    5.78857e-02   1.24102e-02 DIIS
   @DF-RKS iter   3:  -381.45660111061983   -4.63905e-01   1.37624e-03 DIIS
   @DF-RKS iter   4:  -381.46007944618401   -3.47834e-03   8.19292e-04 DIIS
   @DF-RKS iter   5:  -381.46177284478392   -1.69340e-03   2.45556e-04 DIIS
   @DF-RKS iter   6:  -381.46192485144223   -1.52007e-04   7.64563e-05 DIIS
   @DF-RKS iter   7:  -381.46194081647565   -1.59650e-05   1.54148e-05 DIIS
   @DF-RKS iter   8:  -381.46194138202338   -5.65548e-07   5.62173e-06 DIIS
   @DF-RKS iter   9:  -381.46194146956725   -8.75439e-08   1.93933e-06 DIIS
   @DF-RKS iter  10:  -381.46194148038654   -1.08193e-08   6.14560e-07 DIIS
   @DF-RKS iter  11:  -381.46194148153330   -1.14676e-09   1.04712e-07 DIIS
   @DF-RKS iter  12:  -381.46194148155678   -2.34763e-11   6.30966e-08 DIIS
   @DF-RKS iter  13:  -381.46194148156832   -1.15392e-11   1.71435e-08 DIIS
   @DF-RKS iter  14:  -381.46194148156934   -1.02318e-12   9.22767e-09 DIIS

  ==> Post-Iterations <==

    Orbital Energies [Eh]
    ---------------------

    Doubly Occupied:                                                      

       1A    -14.576612     2A    -14.576605     3A    -10.505212  
       4A    -10.367609     5A    -10.348921     6A    -10.348913  
       7A    -10.333086     8A    -10.332728     9A    -10.332321  
      10A     -1.190248    11A     -1.097864    12A     -1.008350  
      13A     -0.923810    14A     -0.894632    15A     -0.845806  
      16A     -0.788688    17A     -0.762836    18A     -0.755150  
      19A     -0.728667    20A     -0.693502    21A     -0.667820  
      22A     -0.621847    23A     -0.617575    24A     -0.574682  
      25A     -0.573677    26A     -0.566473    27A     -0.514377  
      28A     -0.497645    29A     -0.490042    30A     -0.479418  
      31A     -0.403559    32A     -0.397953  

    Virtual:                                                              

      33A     -0.202596    34A     -0.164146    35A     -0.146207  
      36A     -0.114976    37A     -0.068280    38A     -0.063836  
      39A     -0.034846    40A     -0.028379    41A      0.009717  
      42A      0.014425    43A      0.025394    44A      0.054615  
      45A      0.060819    46A      0.073670    47A      0.141122  
      48A      0.148924    49A      0.165945    50A      0.189859  
      51A      0.202814    52A      0.207630    53A      0.292319  
      54A      0.344373    55A      0.356471    56A      0.376387  
      57A      0.394183    58A      0.397321    59A      0.402359  
      60A      0.425190    61A      0.440590    62A      0.453365  
      63A      0.457781    64A      0.466501    65A      0.477453  
      66A      0.481739    67A      0.481795    68A      0.495434  
      69A      0.514992    70A      0.530383    71A      0.565059  
      72A      0.572961    73A      0.599166    74A      0.629468  
      75A      0.666850    76A      0.675735    77A      0.680996  
      78A      0.682389    79A      0.701062    80A      0.711923  
      81A      0.732947    82A      0.749859    83A      0.779746  
      84A      0.784706    85A      0.812793    86A      0.831563  
      87A      0.852700    88A      0.940979    89A      0.967665  
      90A      1.009148    91A      1.020605    92A      1.024610  
      93A      1.033976    94A      1.087130    95A      1.131340  
      96A      1.182702    97A      1.206909    98A      1.292650  
      99A      1.293045   100A      1.331474   101A      1.332638  
     102A      1.364494   103A      1.364842   104A      1.388415  
     105A      1.441193   106A      1.465788   107A      1.506503  
     108A      1.575407   109A      1.603967   110A      1.659838  
     111A      1.682312   112A      1.739567   113A      1.765461  
     114A      1.798011   115A      1.823490   116A      1.842946  
     117A      1.892611   118A      1.910548   119A      1.971097  
     120A      1.995164   121A      1.997531   122A      1.999545  
     123A      2.039715   124A      2.068301   125A      2.114365  
     126A      2.136650   127A      2.163363   128A      2.201563  
     129A      2.212531   130A      2.281912   131A      2.385986  
     132A      2.399600   133A      2.400026   134A      2.429888  
     135A      2.509096   136A      2.575151   137A      2.578403  
     138A      2.590329   139A      2.630117   140A      2.640468  
     141A      2.704434   142A      2.887502   143A      2.908055  
     144A      3.257907   145A      3.626293   146A      3.632975  
     147A      3.945883   148A      3.968314   149A      3.989963  
     150A      4.131814   151A      4.178277   152A      4.263612  
     153A      4.555860  

    Final Occupation by Irrep:
              A 
    DOCC [    32 ]

  Energy converged.

  @DF-RKS Final Energy:  -381.46194148156934

   => Energetics <=

    Nuclear Repulsion Energy =            415.7829663936607290
    One-Electron Energy =               -1326.9120297211054549
    Two-Electron Energy =                 574.0806154578021960
    DFT Exchange-Correlation Energy =     -44.4019289919267379
    Empirical Dispersion Energy =          -0.0115646200000000
    VV10 Nonlocal Energy =                  0.0000000000000000
    Total Energy =                       -381.4619414815693403



Properties will be evaluated at   0.000000,   0.000000,   0.000000 [a0]

Properties computed using the SCF density matrix

  Nuclear Dipole Moment: [e a0]
     X:     0.0000      Y:    -0.0000      Z:     0.0248

  Electronic Dipole Moment: [e a0]
     X:    -0.0000      Y:     0.0000      Z:    -2.6034

  Dipole Moment: [e a0]
     X:    -0.0000      Y:     0.0000      Z:    -2.5786     Total:     2.5786

  Dipole Moment: [D]
     X:    -0.0000      Y:     0.0000      Z:    -6.5542     Total:     6.5542


*** tstop() called on oliva.prib.upf.edu at Sat Sep 29 20:50:36 2018
Module time:
	user time   =     100.52 seconds =       1.68 minutes
	system time =       0.90 seconds =       0.02 minutes
	total time  =         29 seconds =       0.48 minutes
Total time:
	user time   =     100.52 seconds =       1.68 minutes
	system time =       0.90 seconds =       0.02 minutes
	total time  =         29 seconds =       0.48 minutes

*** tstart() called on oliva.prib.upf.edu
*** at Sat Sep 29 20:50:36 2018


         ------------------------------------------------------------
                                   SCF GRAD                          
                          Rob Parrish, Justin Turney,                
                       Andy Simmonett, and Alex Sokolov              
         ------------------------------------------------------------

  ==> Geometry <==

    Molecular point group: c1
    Full point group: C1

    Geometry (in Angstrom), charge = 1, multiplicity = 1:

       Center              X                  Y                   Z               Mass       
    ------------   -----------------  -----------------  -----------------  -----------------
         C            0.000000000000     0.000000000000    -0.177864000000    12.000000000000
         C            0.036678000000     1.219374000000     0.524165000000    12.000000000000
         C            0.031765000000     1.213120000000     1.915444000000    12.000000000000
         C            0.000000000000     0.000000000000     2.610107000000    12.000000000000
         C           -0.031765000000    -1.213120000000     1.915444000000    12.000000000000
         C           -0.036678000000    -1.219375000000     0.524165000000    12.000000000000
         C            0.000000000000     0.000000000000    -1.644734000000    12.000000000000
         H            0.018170000000     2.164705000000    -0.010854000000     1.007825032070
         H            0.042402000000     2.152895000000     2.457886000000     1.007825032070
         H            0.000000000000     0.000000000000     3.695756000000     1.007825032070
         H           -0.042402000000    -2.152895000000     2.457886000000     1.007825032070
         H           -0.018170000000    -2.164705000000    -0.010853000000     1.007825032070
         N            1.152097000000    -0.034654000000    -2.308460000000    14.003074004780
         N           -1.152097000000     0.034654000000    -2.308460000000    14.003074004780
         H           -1.209665000000    -0.056578000000    -3.315997000000     1.007825032070
         H           -2.013552000000     0.224422000000    -1.813317000000     1.007825032070
         H            2.013552000000    -0.224422000000    -1.813316000000     1.007825032070
         H            1.209665000000     0.056579000000    -3.315997000000     1.007825032070

  Nuclear repulsion =  415.782966393660729

  ==> Basis Set <==

  Basis Set: 6-31G*
    Blend: 6-31G*
    Number of shells: 72
    Number of basis function: 153
    Number of Cartesian functions: 153
    Spherical Harmonics?: false
    Max angular momentum: 2

  ==> DFJKGrad: Density-Fitted SCF Gradients <==

    Gradient:                    1
    J tasked:                  Yes
    K tasked:                  Yes
    wK tasked:                  No
    OpenMP threads:              4
    Integrals threads:           4
    Memory (MB):              2002
    Schwarz Cutoff:          0E+00
    Fitting Condition:       1E-12

   => Auxiliary Basis Set <=

  Basis Set: (6-31G* AUX)
    Blend: CC-PVDZ-JKFIT
    Number of shells: 297
    Number of basis function: 954
    Number of Cartesian functions: 954
    Spherical Harmonics?: false
    Max angular momentum: 3

  ==> DFT Potential <==

   => Composite Functional: B3LYP-D3ZERO <= 

    B3LYP-d3zero Hyb-GGA Exchange-Correlation Functional

    P. J. Stephens, F. J. Devlin, C. F. Chabalowski, and M. J. Frisch, J. Phys. Chem. 98, 11623 (1994)

    Deriv               =              1
    GGA                 =           TRUE
    Meta                =          FALSE

    Exchange Hybrid     =           TRUE
    MP2 Hybrid          =          FALSE

   => Exchange Functionals <=

    0.0800   Slater exchange
    0.7200         Becke 88

   => Exact (HF) Exchange <=

    0.2000               HF 

   => Correlation Functionals <=

    0.1900   Vosko, Wilk & Nusair (VWN5_RPA)
    0.8100   Lee, Yang & Parr

   => Molecular Quadrature <=

    Radial Scheme       =       TREUTLER
    Pruning Scheme      =           FLAT
    Nuclear Scheme      =       TREUTLER

    BS radius alpha     =              1
    Pruning alpha       =              1
    Radial Points       =             75
    Spherical Points    =            302
    Total Points        =         397340
    Total Blocks        =           3000
    Max Points          =            256
    Max Functions       =            150


  -Total Gradient:
     Atom            X                  Y                   Z
    ------   -----------------  -----------------  -----------------
       1       -0.000000020771     0.000000699564    -0.016420461951
       2        0.003401101314     0.000313984293     0.005150377750
       3        0.000744477519     0.002640827508    -0.002265070961
       4       -0.000000000302    -0.000000043899     0.000173236959
       5       -0.000744473217    -0.002640597836    -0.002264900442
       6       -0.003401105286    -0.000315413802     0.005149971177
       7        0.000000074622    -0.000000108068     0.016704370426
       8       -0.002277853837     0.000216656894     0.000880262392
       9       -0.000428636442    -0.000158135545     0.000190201879
      10        0.000000000125     0.000000004303     0.000005095073
      11        0.000428634520     0.000158081411     0.000190178485
      12        0.002277841490    -0.000215953978     0.000880696176
      13        0.004855462249     0.001925003856    -0.003848992515
      14       -0.004855767193    -0.001924957793    -0.003848759343
      15        0.000162459127    -0.001967484602     0.001605079748
      16        0.000767509449     0.002725175430    -0.001943953791
      17       -0.000767179192    -0.002725265858    -0.001943628782
      18       -0.000162524170     0.001967528034     0.001604969713


*** tstop() called on oliva.prib.upf.edu at Sat Sep 29 20:50:44 2018
Module time:
	user time   =      29.35 seconds =       0.49 minutes
	system time =       0.27 seconds =       0.00 minutes
	total time  =          8 seconds =       0.13 minutes
Total time:
	user time   =     129.93 seconds =       2.17 minutes
	system time =       1.17 seconds =       0.02 minutes
	total time  =         37 seconds =       0.62 minutes

			-----------------------------------------
			 OPTKING 2.0: for geometry optimizations 
			  - R.A. King,  Bethel University        
			-----------------------------------------
	At level 1: Red. Int., RFO, no backsteps, dynamic trust

	Internal coordinates to be generated automatically.
	Detected frag 1 with atoms:  1 2 3 4 5 6 7 8 9 10 11 12 13 14 15 16 17 18
	---Fragment 1 Bond Connectivity---
	 1 : 2 6 7
	 2 : 1 3 8
	 3 : 2 4 9
	 4 : 3 5 10
	 5 : 4 6 11
	 6 : 1 5 12
	 7 : 1 13 14
	 8 : 2
	 9 : 3
	 10 : 4
	 11 : 5
	 12 : 6
	 13 : 7 17 18
	 14 : 7 15 16
	 15 : 14
	 16 : 14
	 17 : 13
	 18 : 13

	Assuming in current code that numbering for constraints corresponds to unified fragment.
	Frozen dihedral atom list: 
	     2     1     7    13
	---Fragment 1 Geometry and Gradient---
	 C           0.0000000000        0.0000000000       -0.3361142489
	 C           0.0693113751        2.3042829136        0.9905282984
	 C           0.0600271506        2.2924645663        3.6196645829
	 C           0.0000000000        0.0000000000        4.9323874075
	 C          -0.0600271506       -2.2924645663        3.6196645829
	 C          -0.0693113751       -2.3042848033        0.9905282984
	 C           0.0000000000        0.0000000000       -3.1080968214
	 H           0.0343363238        4.0906996085       -0.0205110874
	 H           0.0801281675        4.0683819429        4.6447314059
	 H           0.0000000000        0.0000000000        6.9839666940
	 H          -0.0801281675       -4.0683819429        4.6447314059
	 H          -0.0343363238       -4.0906996085       -0.0205091977
	 N           2.1771478085       -0.0654865694       -4.3623571887
	 N          -2.1771478085        0.0654865694       -4.3623571887
	 H          -2.2859355625       -0.1069169251       -6.2663261875
	 H          -3.8050618343        0.4240961182       -3.4266725221
	 H           3.8050618343       -0.4240961182       -3.4266706324
	 H           2.2859355625        0.1069188149       -6.2663261875
	            -0.0000000208        0.0000006996       -0.0164204620
	             0.0034011013        0.0003139843        0.0051503778
	             0.0007444775        0.0026408275       -0.0022650710
	            -0.0000000003       -0.0000000439        0.0001732370
	            -0.0007444732       -0.0026405978       -0.0022649004
	            -0.0034011053       -0.0003154138        0.0051499712
	             0.0000000746       -0.0000001081        0.0167043704
	            -0.0022778538        0.0002166569        0.0008802624
	            -0.0004286364       -0.0001581355        0.0001902019
	             0.0000000001        0.0000000043        0.0000050951
	             0.0004286345        0.0001580814        0.0001901785
	             0.0022778415       -0.0002159540        0.0008806962
	             0.0048554622        0.0019250039       -0.0038489925
	            -0.0048557672       -0.0019249578       -0.0038487593
	             0.0001624591       -0.0019674846        0.0016050797
	             0.0007675094        0.0027251754       -0.0019439538
	            -0.0007671792       -0.0027252659       -0.0019436288
	            -0.0001625242        0.0019675280        0.0016049697

	Previous optimization step data not found.  Starting new optimization.

	---Fragment 1 Intrafragment Coordinates---
	 - Coordinate -           - BOHR/RAD -       - ANG/DEG -
	 R(1,2)           =         2.659794	       1.407502
	 R(1,6)           =         2.659796	       1.407503
	 R(1,7)           =         2.771983	       1.466870
	 R(2,3)           =         2.629179	       1.391302
	 R(2,8)           =         2.052976	       1.086388
	 R(3,4)           =         2.642393	       1.398294
	 R(3,9)           =         2.050622	       1.085142
	 R(4,5)           =         2.642393	       1.398294
	 R(4,10)          =         2.051579	       1.085649
	 R(5,6)           =         2.629179	       1.391302
	 R(5,11)          =         2.050622	       1.085142
	 R(6,12)          =         2.052973	       1.086386
	 R(7,13)          =         2.513450	       1.330060
	 R(7,14)          =         2.513450	       1.330060
	 R(13,17)         =         1.911600	       1.011575
	 R(13,18)         =         1.914852	       1.013296
	 R(14,15)         =         1.914851	       1.013296
	 R(14,16)         =         1.911599	       1.011575
	 B(1,2,3)         =         2.088380	     119.655376
	 B(1,2,8)         =         2.103396	     120.515689
	 B(1,6,5)         =         2.088379	     119.655315
	 B(1,6,12)        =         2.103396	     120.515729
	 B(1,7,13)        =         2.093263	     119.935149
	 B(1,7,14)        =         2.093263	     119.935149
	 B(2,1,6)         =         2.097220	     120.161857
	 B(2,1,7)         =         2.092983	     119.919082
	 B(2,3,4)         =         2.095279	     120.050636
	 B(2,3,9)         =         2.089719	     119.732108
	 B(3,2,8)         =         2.090149	     119.756722
	 B(3,4,5)         =         2.101793	     120.423859
	 B(3,4,10)        =         2.090696	     119.788070
	 B(4,3,9)         =         2.098135	     120.214297
	 B(4,5,6)         =         2.095280	     120.050677
	 B(4,5,11)        =         2.098135	     120.214297
	 B(5,4,10)        =         2.090696	     119.788070
	 B(5,6,12)        =         2.090149	     119.756743
	 B(6,1,7)         =         2.092982	     119.919061
	 B(6,5,11)        =         2.089719	     119.732067
	 B(7,13,17)       =         2.092412	     119.886379
	 B(7,13,18)       =         2.144860	     122.891414
	 B(7,14,15)       =         2.144860	     122.891419
	 B(7,14,16)       =         2.092413	     119.886427
	 B(13,7,14)       =         2.096659	     120.129703
	 B(15,14,16)      =         2.043398	     117.078089
	 B(17,13,18)      =         2.043399	     117.078147
	 D(1,2,3,4)       =         0.007799	       0.446825
	 D(1,2,3,9)       =        -3.122896	    -178.928735
	 D(1,6,5,4)       =         0.007799	       0.446822
	 D(1,6,5,11)      =        -3.122896	    -178.928737
	 D(1,7,13,17)     =         0.187845	      10.762705
	 D(1,7,13,18)     =        -3.032165	    -173.730255
	 D(1,7,14,15)     =        -3.032166	    -173.730322
	 D(1,7,14,16)     =         0.187845	      10.762716
	 D(2,1,6,5)       =        -0.003906	      -0.223802
	 D(2,1,6,12)      =        -3.091437	    -177.126283
	*D(2,1,7,13)      =         1.570796	      89.999983
	 D(2,1,7,14)      =        -1.570797	     -90.000017
	 D(2,3,4,5)       =        -0.003942	      -0.225875
	 D(2,3,4,10)      =         3.137650	     179.774125
	 D(3,2,1,6)       =        -0.003906	      -0.223806
	 D(3,2,1,7)       =         3.137687	     179.776196
	 D(3,4,5,6)       =        -0.003942	      -0.225874
	 D(3,4,5,11)      =         3.126699	     179.146646
	 D(4,3,2,8)       =         3.095744	     177.373058
	 D(4,5,6,12)      =         3.095744	     177.373055
	 D(5,4,3,9)       =         3.126699	     179.146646
	 D(5,6,1,7)       =         3.137687	     179.776197
	 D(6,1,2,8)       =        -3.091437	    -177.126287
	 D(6,1,7,13)      =        -1.570797	     -90.000016
	 D(6,1,7,14)      =         1.570796	      89.999984
	 D(6,5,4,10)      =         3.137650	     179.774126
	 D(7,1,2,8)       =         0.050156	       2.873714
	 D(7,1,6,12)      =         0.050156	       2.873716
	 D(8,2,3,9)       =        -0.034950	      -2.002503
	 D(9,3,4,10)      =        -0.014894	      -0.853354
	 D(10,4,5,11)     =        -0.014894	      -0.853354
	 D(11,5,6,12)     =        -0.034950	      -2.002504
	 D(13,7,14,15)    =         0.109427	       6.269678
	 D(13,7,14,16)    =        -2.953748	    -169.237284
	 D(14,7,13,17)    =        -2.953748	    -169.237295
	 D(14,7,13,18)    =         0.109428	       6.269745

	Current energy   :      -381.4619414816

	Generating empirical Hessian (Schlegel '84) for each fragment.
	Taking RFO optimization step.
	Going to follow RFO solution 1.
	Using RFO vector 1.
	Norm of target step-size    0.30948
	Projected energy change by RFO approximation:        -0.0016495773

	Back-transformation to cartesian coordinates...
	Could not converge backtransformation.
	Using first guess instead.

	Back-transformation to cartesian coordinates to adjust frozen coordinates...
	Successfully converged to displaced geometry.

	--- Internal Coordinate Step in ANG or DEG, aJ/ANG or AJ/DEG ---
	 ---------------------------------------------------------------------------
	   Coordinate                Previous        Force       Change         New 
	   ----------                --------       ------       ------       ------
	    1 R(1,2)          =      1.407502    -0.031589    -0.004651     1.402852
	    2 R(1,6)          =      1.407503    -0.031593    -0.004558     1.402945
	    3 R(1,7)          =      1.466870     0.068625     0.012135     1.479005
	    4 R(2,3)          =      1.391302     0.016399     0.002231     1.393533
	    5 R(2,8)          =      1.086388     0.001699     0.001655     1.088043
	    6 R(3,4)          =      1.398294    -0.007206    -0.000834     1.397460
	    7 R(3,9)          =      1.085142     0.000379     0.000313     1.085455
	    8 R(4,5)          =      1.398294    -0.007203    -0.000852     1.397442
	    9 R(4,10)         =      1.085649    -0.000043     0.000007     1.085656
	   10 R(5,6)          =      1.391302     0.016402     0.002265     1.393566
	   11 R(5,11)         =      1.085142     0.000379     0.000538     1.085681
	   12 R(6,12)         =      1.086386     0.001706     0.001796     1.088182
	   13 R(7,13)         =      1.330060    -0.044981    -0.004793     1.325267
	   14 R(7,14)         =      1.330060    -0.044981    -0.004368     1.325693
	   15 R(13,17)        =      1.011575     0.009007     0.007032     1.018607
	   16 R(13,18)        =      1.013296     0.011765     0.003915     1.017211
	   17 R(14,15)        =      1.013296     0.011766     0.003206     1.016502
	   18 R(14,16)        =      1.011575     0.009011     0.007469     1.019044
	   19 B(1,2,3)        =    119.655376    -0.000126    -0.414344   119.241032
	   20 B(1,2,8)        =    120.515689     0.000000    -0.064482   120.451207
	   21 B(1,6,5)        =    119.655315    -0.000126    -0.414931   119.240384
	   22 B(1,6,12)       =    120.515729    -0.000000    -0.030213   120.485517
	   23 B(1,7,13)       =    119.935149    -0.000179    -0.530054   119.405095
	   24 B(1,7,14)       =    119.935149    -0.000179    -0.548436   119.386713
	   25 B(2,1,6)        =    120.161857     0.000252     0.702703   120.864560
	   26 B(2,1,7)        =    119.919082    -0.000126    -0.353473   119.565609
	   27 B(2,3,4)        =    120.050636     0.000022     0.107929   120.158565
	   28 B(2,3,9)        =    119.732108    -0.000031    -0.149442   119.582665
	   29 B(3,2,8)        =    119.756722     0.000130     0.550124   120.306846
	   30 B(3,4,5)        =    120.423859    -0.000044    -0.086758   120.337101
	   31 B(3,4,10)       =    119.788070     0.000022     0.045009   119.833079
	   32 B(4,3,9)        =    120.214297     0.000009     0.043795   120.258091
	   33 B(4,5,6)        =    120.050677     0.000022     0.105234   120.155911
	   34 B(4,5,11)       =    120.214297     0.000009     0.037754   120.252050
	   35 B(5,4,10)       =    119.788070     0.000022     0.041581   119.829651
	   36 B(5,6,12)       =    119.756743     0.000130     0.517057   120.273800
	   37 B(6,1,7)        =    119.919061    -0.000126    -0.359801   119.559261
	   38 B(6,5,11)       =    119.732067    -0.000031    -0.141539   119.590527
	   39 B(7,13,17)      =    119.886379    -0.000114    -0.620829   119.265550
	   40 B(7,13,18)      =    122.891414     0.000078     0.280583   123.171997
	   41 B(7,14,15)      =    122.891419     0.000078     0.248573   123.139993
	   42 B(7,14,16)      =    119.886427    -0.000114    -0.514611   119.371816
	   43 B(13,7,14)      =    120.129703     0.000357     1.068463   121.198166
	   44 B(15,14,16)     =    117.078089     0.000040     0.363267   117.441356
	   45 B(17,13,18)     =    117.078147     0.000040     0.437407   117.515554
	   46 D(1,2,3,4)      =      0.446825    -0.000004    -0.674755    -0.227930
	   47 D(1,2,3,9)      =   -178.928735    -0.000010    -1.597953  -180.526688
	   48 D(1,6,5,4)      =      0.446822    -0.000002    -0.234544     0.212278
	   49 D(1,6,5,11)     =   -178.928737    -0.000008    -1.305006  -180.233744
	   50 D(1,7,13,17)    =     10.762705    -0.000047    -6.643582     4.119123
	   51 D(1,7,13,18)    =   -173.730255    -0.000033    -4.705425  -178.435680
	   52 D(1,7,14,15)    =   -173.730322    -0.000027    -3.580232  -177.310554
	   53 D(1,7,14,16)    =     10.762716    -0.000041    -5.518454     5.244262
	   54 D(2,1,6,5)      =     -0.223802    -0.000001    -0.331688    -0.555489
	   55 D(2,1,6,12)     =   -177.126283    -0.000023    -3.627713  -180.753995
	   56 *D(2,1,7,13)    =     89.999983     0.000000    -0.000000    89.999983
	   57 D(2,1,7,14)     =    -90.000017    -0.000006    -1.137865   -91.137882
	   58 D(2,3,4,5)      =     -0.225875     0.000001     0.117405    -0.108471
	   59 D(2,3,4,10)     =    179.774125     0.000002     0.267102   180.041226
	   60 D(3,2,1,6)      =     -0.223806     0.000004     0.787108     0.563302
	   61 D(3,2,1,7)      =    179.776196    -0.000001    -0.400866   179.375329
	   62 D(3,4,5,6)      =     -0.225874     0.000002     0.342274     0.116400
	   63 D(3,4,5,11)     =    179.146646     0.000009     1.418749   180.565396
	   64 D(4,3,2,8)      =    177.373058     0.000017     2.745495   180.118552
	   65 D(4,5,6,12)     =    177.373055     0.000019     3.037299   180.410355
	   66 D(5,4,3,9)      =    179.146646     0.000007     1.045675   180.192321
	   67 D(5,6,1,7)      =    179.776197     0.000004     0.856212   180.632409
	   68 D(6,1,2,8)      =   -177.126287    -0.000018    -2.657405  -179.783692
	   69 D(6,1,7,13)     =    -90.000016    -0.000005    -1.172316   -91.172332
	   70 D(6,1,7,14)     =     89.999984    -0.000011    -2.310181    87.689803
	   71 D(6,5,4,10)     =    179.774126     0.000001     0.192583   179.966709
	   72 D(7,1,2,8)      =      2.873714    -0.000024    -3.845380    -0.971665
	   73 D(7,1,6,12)     =      2.873716    -0.000017    -2.439813     0.433903
	   74 D(8,2,3,9)      =     -2.002503     0.000011     1.822297    -0.180206
	   75 D(9,3,4,10)     =     -0.853354     0.000008     1.195371     0.342018
	   76 D(10,4,5,11)    =     -0.853354     0.000008     1.269058     0.415704
	   77 D(11,5,6,12)    =     -2.002504     0.000012     1.966837    -0.035667
	   78 D(13,7,14,15)   =      6.269678    -0.000033    -4.739103     1.530575
	   79 D(13,7,14,16)   =   -169.237284    -0.000047    -6.677325  -175.914609
	   80 D(14,7,13,17)   =   -169.237295    -0.000041    -5.484502  -174.721796
	   81 D(14,7,13,18)   =      6.269745    -0.000027    -3.546344     2.723401
	 ---------------------------------------------------------------------------
	Successfully symmetrized geometry.

  ==> Convergence Check <==

  Measures of convergence in internal coordinates in au.
  Criteria marked as inactive (o), active & met (*), and active & unmet ( ).
  --------------------------------------------------------------------------------------------- ~
   Step     Total Energy     Delta E     MAX Force     RMS Force      MAX Disp      RMS Disp    ~
  --------------------------------------------------------------------------------------------- ~
    Convergence Criteria    1.00e-06 *    3.00e-04 *             o    1.20e-03 *             o  ~
  --------------------------------------------------------------------------------------------- ~
      1    -381.46194148   -3.81e+02      8.33e-03      1.90e-03 o    1.17e-01      3.44e-02 o  ~
  ---------------------------------------------------------------------------------------------

	Writing optimization data to binary file.
	Structure for next step:
	Cartesian Geometry (in Angstrom)
	    C     0.0126521225   0.0047910453  -0.1745506911
	    C     0.0450353752   1.2230674087   0.5202489987
	    C     0.0390418492   1.2123586545   1.9137280912
	    C    -0.0036569430  -0.0006449406   2.6063262372
	    C    -0.0429183224  -1.2108065067   1.9086071797
	    C    -0.0372937275  -1.2159441491   0.5150616976
	    C     0.0047508858   0.0081491703  -1.6535306572
	    H     0.0801864706   2.1660313733  -0.0214345233
	    H     0.0726546896   2.1514876103   2.4569765017
	    H    -0.0088009687  -0.0028016351   3.6919675106
	    H    -0.0853153437  -2.1520489616   2.4480212128
	    H    -0.0745450654  -2.1569146233  -0.0302161563
	    N     1.1554725396  -0.0175012934  -2.3104287749
	    N    -1.1538128039   0.0138302692  -2.2978588994
	    H    -1.2263721387  -0.0235625952  -3.3110778034
	    H    -2.0201393132   0.0969707782  -1.7677490165
	    H     2.0254981556  -0.1029274508  -1.7876295803
	    H     1.2175625384   0.0064658460  -3.3254603271
			--------------------------
			 OPTKING Finished Execution 
			--------------------------

    Structure for next step:
    Molecular point group: c1
    Full point group: C1

    Geometry (in Angstrom), charge = 1, multiplicity = 1:

    C            0.012652122540     0.004791045306    -0.174550691058
    C            0.045035375243     1.223067408730     0.520248998684
    C            0.039041849165     1.212358654501     1.913728091195
    C           -0.003656943024    -0.000644940553     2.606326237229
    C           -0.042918322441    -1.210806506745     1.908607179747
    C           -0.037293727514    -1.215944149110     0.515061697551
    C            0.004750885810     0.008149170294    -1.653530657237
    H            0.080186470555     2.166031373266    -0.021434523282
    H            0.072654689576     2.151487610338     2.456976501703
    H           -0.008800968711    -0.002801635136     3.691967510619
    H           -0.085315343732    -2.152048961630     2.448021212822
    H           -0.074545065380    -2.156914623256    -0.030216156288
    N            1.155472539631    -0.017501293387    -2.310428774898
    N           -1.153812803894     0.013830269153    -2.297858899394
    H           -1.226372138662    -0.023562595205    -3.311077803447
    H           -2.020139313165     0.096970778182    -1.767749016546
    H            2.025498155639    -0.102927450795    -1.787629580339
    H            1.217562538363     0.006465846046    -3.325460327060

gradient() will perform analytic gradient computation.

*** tstart() called on oliva.prib.upf.edu
*** at Sat Sep 29 20:50:44 2018

   => Loading Basis Set <=

    Name: 6-31G*
    Role: ORBITAL
    Keyword: BASIS
    atoms 1-7         entry C          line   111 file /shared/joao/test_parameterize/miniconda3/share/psi4/basis/6-31gs.gbs 
    atoms 8-12, 15-18 entry H          line    44 file /shared/joao/test_parameterize/miniconda3/share/psi4/basis/6-31gs.gbs 
    atoms 13-14       entry N          line   128 file /shared/joao/test_parameterize/miniconda3/share/psi4/basis/6-31gs.gbs 


         ---------------------------------------------------------
                                   SCF
            by Justin Turney, Rob Parrish, Andy Simmonett
                             and Daniel Smith
                              RKS Reference
                        4 Threads,   2861 MiB Core
         ---------------------------------------------------------

  ==> Geometry <==

    Molecular point group: c1
    Full point group: C1

    Geometry (in Angstrom), charge = 1, multiplicity = 1:

       Center              X                  Y                   Z               Mass       
    ------------   -----------------  -----------------  -----------------  -----------------
         C            0.012652122540     0.004791045306    -0.174550691058    12.000000000000
         C            0.045035375243     1.223067408730     0.520248998684    12.000000000000
         C            0.039041849165     1.212358654501     1.913728091195    12.000000000000
         C           -0.003656943024    -0.000644940553     2.606326237229    12.000000000000
         C           -0.042918322441    -1.210806506745     1.908607179747    12.000000000000
         C           -0.037293727514    -1.215944149110     0.515061697551    12.000000000000
         C            0.004750885810     0.008149170294    -1.653530657237    12.000000000000
         H            0.080186470555     2.166031373266    -0.021434523282     1.007825032070
         H            0.072654689576     2.151487610338     2.456976501703     1.007825032070
         H           -0.008800968711    -0.002801635136     3.691967510619     1.007825032070
         H           -0.085315343732    -2.152048961630     2.448021212822     1.007825032070
         H           -0.074545065380    -2.156914623256    -0.030216156288     1.007825032070
         N            1.155472539631    -0.017501293387    -2.310428774898    14.003074004780
         N           -1.153812803894     0.013830269153    -2.297858899394    14.003074004780
         H           -1.226372138662    -0.023562595205    -3.311077803447     1.007825032070
         H           -2.020139313165     0.096970778182    -1.767749016546     1.007825032070
         H            2.025498155639    -0.102927450795    -1.787629580339     1.007825032070
         H            1.217562538363     0.006465846046    -3.325460327060     1.007825032070

  Running in c1 symmetry.

  Rotational constants: A =      0.12180  B =      0.03661  C =      0.03360 [cm^-1]
  Rotational constants: A =   3651.46361  B =   1097.49379  C =   1007.29449 [MHz]
  Nuclear repulsion =  415.954575887504802

  Charge       = 1
  Multiplicity = 1
  Electrons    = 64
  Nalpha       = 32
  Nbeta        = 32

  ==> Algorithm <==

  SCF Algorithm Type is DF.
  DIIS enabled.
  MOM disabled.
  Fractional occupation disabled.
  Guess Type is READ.
  Energy threshold   = 1.00e-08
  Density threshold  = 1.00e-08
  Integral threshold = 0.00e+00

  ==> Primary Basis <==

  Basis Set: 6-31G*
    Blend: 6-31G*
    Number of shells: 72
    Number of basis function: 153
    Number of Cartesian functions: 153
    Spherical Harmonics?: false
    Max angular momentum: 2

  ==> DFT Potential <==

   => Composite Functional: B3LYP-D3ZERO <= 

    B3LYP-d3zero Hyb-GGA Exchange-Correlation Functional

    P. J. Stephens, F. J. Devlin, C. F. Chabalowski, and M. J. Frisch, J. Phys. Chem. 98, 11623 (1994)

    Deriv               =              1
    GGA                 =           TRUE
    Meta                =          FALSE

    Exchange Hybrid     =           TRUE
    MP2 Hybrid          =          FALSE

   => Exchange Functionals <=

    0.0800   Slater exchange
    0.7200         Becke 88

   => Exact (HF) Exchange <=

    0.2000               HF 

   => Correlation Functionals <=

    0.1900   Vosko, Wilk & Nusair (VWN5_RPA)
    0.8100   Lee, Yang & Parr

   => Molecular Quadrature <=

    Radial Scheme       =       TREUTLER
    Pruning Scheme      =           FLAT
    Nuclear Scheme      =       TREUTLER

    BS radius alpha     =              1
    Pruning alpha       =              1
    Radial Points       =             75
    Spherical Points    =            302
    Total Points        =         397376
    Total Blocks        =           2994
    Max Points          =            256
    Max Functions       =            151

   => -D3ZERO: Empirical Dispersion <=

    Grimme's -D3 (zero-damping) Dispersion Correction
    Grimme S.; Antony J.; Ehrlich S.; Krieg H. (2010), J. Chem. Phys., 132: 154104

        S6 =   1.000000E+00
        S8 =   1.703000E+00
       SR6 =   1.261000E+00
       SR8 =   1.000000E+00
    ALPHA6 =   1.400000E+01

   => Loading Basis Set <=

    Name: (6-31G* AUX)
    Role: JKFIT
    Keyword: DF_BASIS_SCF
    atoms 1-7         entry C          line   121 file /shared/joao/test_parameterize/miniconda3/share/psi4/basis/cc-pvdz-jkfit.gbs 
    atoms 8-12, 15-18 entry H          line    51 file /shared/joao/test_parameterize/miniconda3/share/psi4/basis/cc-pvdz-jkfit.gbs 
    atoms 13-14       entry N          line   171 file /shared/joao/test_parameterize/miniconda3/share/psi4/basis/cc-pvdz-jkfit.gbs 

  Reading orbitals from file 180, no projection.

  ==> Pre-Iterations <==

   -------------------------------------------------------
    Irrep   Nso     Nmo     Nalpha   Nbeta   Ndocc  Nsocc
   -------------------------------------------------------
     A        153     153       0       0       0       0
   -------------------------------------------------------
    Total     153     153      32      32      32       0
   -------------------------------------------------------

  ==> Integral Setup <==

  ==> DiskDFJK: Density-Fitted J/K Matrices <==

    J tasked:                  Yes
    K tasked:                  Yes
    wK tasked:                  No
    OpenMP threads:              4
    Integrals threads:           4
    Memory (MB):              2002
    Algorithm:                Core
    Integral Cache:           NONE
    Schwarz Cutoff:          1E-12
    Fitting Condition:       1E-12

   => Auxiliary Basis Set <=

  Basis Set: (6-31G* AUX)
    Blend: CC-PVDZ-JKFIT
    Number of shells: 297
    Number of basis function: 954
    Number of Cartesian functions: 954
    Spherical Harmonics?: false
    Max angular momentum: 3

  Minimum eigenvalue in the overlap matrix is 4.8488602135E-04.
  Using Symmetric Orthogonalization.

  SCF Guess: Orbitals guess was supplied from a previous computation.

  ==> Iterations <==

                           Total Energy        Delta E     RMS |[F,P]|

   @DF-RKS iter   0:  -381.45206614687828   -3.81452e+02   1.14339e-03 
   @DF-RKS iter   1:  -381.46355236147878   -1.14862e-02   1.36089e-04 
   @DF-RKS iter   2:  -381.46357404851534   -2.16870e-05   1.50946e-04 DIIS
   @DF-RKS iter   3:  -381.46363428938446   -6.02409e-05   5.88930e-05 DIIS
   @DF-RKS iter   4:  -381.46364507119546   -1.07818e-05   1.41624e-05 DIIS
   @DF-RKS iter   5:  -381.46364556645091   -4.95255e-07   7.16833e-06 DIIS
   @DF-RKS iter   6:  -381.46364572263872   -1.56188e-07   7.26302e-07 DIIS
   @DF-RKS iter   7:  -381.46364572366866   -1.02995e-09   4.15822e-07 DIIS
   @DF-RKS iter   8:  -381.46364572410130   -4.32635e-10   1.08948e-07 DIIS
   @DF-RKS iter   9:  -381.46364572412887   -2.75691e-11   4.47604e-08 DIIS
   @DF-RKS iter  10:  -381.46364572413404   -5.17275e-12   6.22904e-09 DIIS

  ==> Post-Iterations <==

    Orbital Energies [Eh]
    ---------------------

    Doubly Occupied:                                                      

       1A    -14.577400     2A    -14.577319     3A    -10.503831  
       4A    -10.367385     5A    -10.348481     6A    -10.348344  
       7A    -10.332956     8A    -10.332737     9A    -10.332018  
      10A     -1.190324    11A     -1.098173    12A     -1.008291  
      13A     -0.922059    14A     -0.894171    15A     -0.844668  
      16A     -0.787675    17A     -0.763139    18A     -0.755630  
      19A     -0.727622    20A     -0.690849    21A     -0.666675  
      22A     -0.623363    23A     -0.615526    24A     -0.576362  
      25A     -0.572810    26A     -0.566286    27A     -0.514920  
      28A     -0.496292    29A     -0.490373    30A     -0.479979  
      31A     -0.403819    32A     -0.397480  

    Virtual:                                                              

      33A     -0.198013    34A     -0.162786    35A     -0.146374  
      36A     -0.117249    37A     -0.071598    38A     -0.065029  
      39A     -0.035030    40A     -0.030699    41A      0.009542  
      42A      0.014693    43A      0.024878    44A      0.054886  
      45A      0.060188    46A      0.073884    47A      0.138380  
      48A      0.150203    49A      0.165557    50A      0.192254  
      51A      0.200488    52A      0.210618    53A      0.291711  
      54A      0.341346    55A      0.357104    56A      0.381287  
      57A      0.392364    58A      0.400049    59A      0.402429  
      60A      0.426874    61A      0.439981    62A      0.453123  
      63A      0.456747    64A      0.464203    65A      0.478337  
      66A      0.479351    67A      0.481917    68A      0.494107  
      69A      0.515788    70A      0.526890    71A      0.566132  
      72A      0.577191    73A      0.599144    74A      0.626614  
      75A      0.664593    76A      0.674771    77A      0.677075  
      78A      0.677547    79A      0.699655    80A      0.712374  
      81A      0.733160    82A      0.749139    83A      0.780334  
      84A      0.789232    85A      0.812993    86A      0.833953  
      87A      0.852218    88A      0.942460    89A      0.966892  
      90A      1.013354    91A      1.015689    92A      1.027198  
      93A      1.035087    94A      1.091402    95A      1.139980  
      96A      1.183816    97A      1.207556    98A      1.293388  
      99A      1.305162   100A      1.326906   101A      1.332902  
     102A      1.362948   103A      1.365990   104A      1.387556  
     105A      1.441160   106A      1.468431   107A      1.510033  
     108A      1.575653   109A      1.586715   110A      1.662894  
     111A      1.681019   112A      1.742188   113A      1.770831  
     114A      1.796599   115A      1.820708   116A      1.849301  
     117A      1.898612   118A      1.914343   119A      1.974405  
     120A      1.994586   121A      1.998618   122A      1.999514  
     123A      2.041492   124A      2.076380   125A      2.120017  
     126A      2.141875   127A      2.154998   128A      2.181995  
     129A      2.220060   130A      2.286910   131A      2.381120  
     132A      2.403719   133A      2.405817   134A      2.429312  
     135A      2.510722   136A      2.572628   137A      2.573386  
     138A      2.593362   139A      2.633904   140A      2.642900  
     141A      2.700189   142A      2.890415   143A      2.906807  
     144A      3.260773   145A      3.631675   146A      3.633437  
     147A      3.946748   148A      3.967596   149A      3.992121  
     150A      4.130914   151A      4.178637   152A      4.264012  
     153A      4.556453  

    Final Occupation by Irrep:
              A 
    DOCC [    32 ]

  Energy converged.

  @DF-RKS Final Energy:  -381.46364572413404

   => Energetics <=

    Nuclear Repulsion Energy =            415.9545758875048023
    One-Electron Energy =               -1327.2813598246443689
    Two-Electron Energy =                 574.2718470456715067
    DFT Exchange-Correlation Energy =     -44.3971036126660294
    Empirical Dispersion Energy =          -0.0116052200000000
    VV10 Nonlocal Energy =                  0.0000000000000000
    Total Energy =                       -381.4636457241340395



Properties will be evaluated at   0.000000,   0.000000,   0.000000 [a0]

Properties computed using the SCF density matrix

  Nuclear Dipole Moment: [e a0]
     X:     0.1852      Y:     0.1565      Z:    -0.1687

  Electronic Dipole Moment: [e a0]
     X:    -0.1902      Y:    -0.1618      Z:    -2.4155

  Dipole Moment: [e a0]
     X:    -0.0050      Y:    -0.0053      Z:    -2.5842     Total:     2.5843

  Dipole Moment: [D]
     X:    -0.0126      Y:    -0.0135      Z:    -6.5685     Total:     6.5685


*** tstop() called on oliva.prib.upf.edu at Sat Sep 29 20:51:06 2018
Module time:
	user time   =      75.23 seconds =       1.25 minutes
	system time =       0.70 seconds =       0.01 minutes
	total time  =         22 seconds =       0.37 minutes
Total time:
	user time   =     206.16 seconds =       3.44 minutes
	system time =       1.95 seconds =       0.03 minutes
	total time  =         59 seconds =       0.98 minutes

*** tstart() called on oliva.prib.upf.edu
*** at Sat Sep 29 20:51:06 2018


         ------------------------------------------------------------
                                   SCF GRAD                          
                          Rob Parrish, Justin Turney,                
                       Andy Simmonett, and Alex Sokolov              
         ------------------------------------------------------------

  ==> Geometry <==

    Molecular point group: c1
    Full point group: C1

    Geometry (in Angstrom), charge = 1, multiplicity = 1:

       Center              X                  Y                   Z               Mass       
    ------------   -----------------  -----------------  -----------------  -----------------
         C            0.012652122540     0.004791045306    -0.174550691058    12.000000000000
         C            0.045035375243     1.223067408730     0.520248998684    12.000000000000
         C            0.039041849165     1.212358654501     1.913728091195    12.000000000000
         C           -0.003656943024    -0.000644940553     2.606326237229    12.000000000000
         C           -0.042918322441    -1.210806506745     1.908607179747    12.000000000000
         C           -0.037293727514    -1.215944149110     0.515061697551    12.000000000000
         C            0.004750885810     0.008149170294    -1.653530657237    12.000000000000
         H            0.080186470555     2.166031373266    -0.021434523282     1.007825032070
         H            0.072654689576     2.151487610338     2.456976501703     1.007825032070
         H           -0.008800968711    -0.002801635136     3.691967510619     1.007825032070
         H           -0.085315343732    -2.152048961630     2.448021212822     1.007825032070
         H           -0.074545065380    -2.156914623256    -0.030216156288     1.007825032070
         N            1.155472539631    -0.017501293387    -2.310428774898    14.003074004780
         N           -1.153812803894     0.013830269153    -2.297858899394    14.003074004780
         H           -1.226372138662    -0.023562595205    -3.311077803447     1.007825032070
         H           -2.020139313165     0.096970778182    -1.767749016546     1.007825032070
         H            2.025498155639    -0.102927450795    -1.787629580339     1.007825032070
         H            1.217562538363     0.006465846046    -3.325460327060     1.007825032070

  Nuclear repulsion =  415.954575887504802

  ==> Basis Set <==

  Basis Set: 6-31G*
    Blend: 6-31G*
    Number of shells: 72
    Number of basis function: 153
    Number of Cartesian functions: 153
    Spherical Harmonics?: false
    Max angular momentum: 2

  ==> DFJKGrad: Density-Fitted SCF Gradients <==

    Gradient:                    1
    J tasked:                  Yes
    K tasked:                  Yes
    wK tasked:                  No
    OpenMP threads:              4
    Integrals threads:           4
    Memory (MB):              2002
    Schwarz Cutoff:          0E+00
    Fitting Condition:       1E-12

   => Auxiliary Basis Set <=

  Basis Set: (6-31G* AUX)
    Blend: CC-PVDZ-JKFIT
    Number of shells: 297
    Number of basis function: 954
    Number of Cartesian functions: 954
    Spherical Harmonics?: false
    Max angular momentum: 3

  ==> DFT Potential <==

   => Composite Functional: B3LYP-D3ZERO <= 

    B3LYP-d3zero Hyb-GGA Exchange-Correlation Functional

    P. J. Stephens, F. J. Devlin, C. F. Chabalowski, and M. J. Frisch, J. Phys. Chem. 98, 11623 (1994)

    Deriv               =              1
    GGA                 =           TRUE
    Meta                =          FALSE

    Exchange Hybrid     =           TRUE
    MP2 Hybrid          =          FALSE

   => Exchange Functionals <=

    0.0800   Slater exchange
    0.7200         Becke 88

   => Exact (HF) Exchange <=

    0.2000               HF 

   => Correlation Functionals <=

    0.1900   Vosko, Wilk & Nusair (VWN5_RPA)
    0.8100   Lee, Yang & Parr

   => Molecular Quadrature <=

    Radial Scheme       =       TREUTLER
    Pruning Scheme      =           FLAT
    Nuclear Scheme      =       TREUTLER

    BS radius alpha     =              1
    Pruning alpha       =              1
    Radial Points       =             75
    Spherical Points    =            302
    Total Points        =         397376
    Total Blocks        =           2994
    Max Points          =            256
    Max Functions       =            151


  -Total Gradient:
     Atom            X                  Y                   Z
    ------   -----------------  -----------------  -----------------
       1        0.001448928200    -0.000876469350    -0.005026888015
       2       -0.001232251076    -0.001183218295     0.001939905917
       3       -0.000371631900     0.000184267431    -0.000773200500
       4        0.000078217409    -0.000057486499     0.000436866826
       5        0.000346798593    -0.000136521143    -0.000730957611
       6        0.000312991756     0.001431928249     0.002059617804
       7        0.000055085911     0.002569571026     0.005497935748
       8        0.000047128339     0.000949244627    -0.000526264345
       9        0.000319951607     0.000066319999     0.000064166204
      10       -0.000022891745    -0.000004345399     0.000064719834
      11       -0.000328208018    -0.000183441806     0.000171034132
      12       -0.000191074390    -0.001061523436    -0.000498001569
      13       -0.002657150603     0.000624184409    -0.001925721358
      14        0.002699693757    -0.001917787981    -0.002742350265
      15        0.000601499165    -0.000835464409    -0.001358923557
      16       -0.004784521052     0.001488411215     0.002694047370
      17        0.004324686458    -0.001789888346     0.002650030650
      18       -0.000643173071     0.000732449742    -0.001992309992


*** tstop() called on oliva.prib.upf.edu at Sat Sep 29 20:51:14 2018
Module time:
	user time   =      30.15 seconds =       0.50 minutes
	system time =       0.26 seconds =       0.00 minutes
	total time  =          8 seconds =       0.13 minutes
Total time:
	user time   =     236.37 seconds =       3.94 minutes
	system time =       2.22 seconds =       0.04 minutes
	total time  =         67 seconds =       1.12 minutes

			-----------------------------------------
			 OPTKING 2.0: for geometry optimizations 
			  - R.A. King,  Bethel University        
			-----------------------------------------
	At level 1: Red. Int., RFO, no backsteps, dynamic trust

	Previous internal coordinate definitions found.
	---Fragment 1 Geometry and Gradient---
	 C           0.0239090466        0.0090537635       -0.3298530024
	 C           0.0851045255        2.3112624446        0.9831281284
	 C           0.0737784026        2.2910258318        3.6164219852
	 C          -0.0069106208       -0.0012187610        4.9252428013
	 C          -0.0811038755       -2.2880926977        3.6067448650
	 C          -0.0704749315       -2.2978014347        0.9733255499
	 C           0.0089778731        0.0153997001       -3.1247200945
	 H           0.1515304689        4.0932060907       -0.0405053788
	 H           0.1372974656        4.0657223618        4.6430127032
	 H          -0.0166314206       -0.0052943231        6.9768074866
	 H          -0.1612226346       -4.0667831620        4.6260896597
	 H          -0.1408697581       -4.0759779300       -0.0571002602
	 N           2.1835266540       -0.0330726515       -4.3660776341
	 N          -2.1803902080        0.0261354210       -4.3423240119
	 H          -2.3175074791       -0.0445268519       -6.2570302532
	 H          -3.8175100522        0.1832482137       -3.3405615130
	 H           3.8276367968       -0.1945046936       -3.3781303339
	 H           2.3008597472        0.0122186782       -6.2842092839
	             0.0014489282       -0.0008764693       -0.0050268880
	            -0.0012322511       -0.0011832183        0.0019399059
	            -0.0003716319        0.0001842674       -0.0007732005
	             0.0000782174       -0.0000574865        0.0004368668
	             0.0003467986       -0.0001365211       -0.0007309576
	             0.0003129918        0.0014319282        0.0020596178
	             0.0000550859        0.0025695710        0.0054979357
	             0.0000471283        0.0009492446       -0.0005262643
	             0.0003199516        0.0000663200        0.0000641662
	            -0.0000228917       -0.0000043454        0.0000647198
	            -0.0003282080       -0.0001834418        0.0001710341
	            -0.0001910744       -0.0010615234       -0.0004980016
	            -0.0026571506        0.0006241844       -0.0019257214
	             0.0026996938       -0.0019177880       -0.0027423503
	             0.0006014992       -0.0008354644       -0.0013589236
	            -0.0047845211        0.0014884112        0.0026940474
	             0.0043246865       -0.0017898883        0.0026500307
	            -0.0006431731        0.0007324497       -0.0019923100

	---Fragment 1 Intrafragment Coordinates---
	 - Coordinate -           - BOHR/RAD -       - ANG/DEG -
	 R(1,2)           =         2.651005	       1.402852
	 R(1,6)           =         2.651182	       1.402945
	 R(1,7)           =         2.794914	       1.479005
	 R(2,3)           =         2.633396	       1.393533
	 R(2,8)           =         2.056103	       1.088043
	 R(3,4)           =         2.640816	       1.397460
	 R(3,9)           =         2.051212	       1.085455
	 R(4,5)           =         2.640783	       1.397442
	 R(4,10)          =         2.051592	       1.085656
	 R(5,6)           =         2.633459	       1.393566
	 R(5,11)          =         2.051639	       1.085681
	 R(6,12)          =         2.056367	       1.088182
	 R(7,13)          =         2.504392	       1.325267
	 R(7,14)          =         2.505196	       1.325693
	 R(13,17)         =         1.924889	       1.018607
	 R(13,18)         =         1.922251	       1.017211
	 R(14,15)         =         1.920910	       1.016502
	 R(14,16)         =         1.925714	       1.019044
	 B(1,2,3)         =         2.081149	     119.241032
	 B(1,2,8)         =         2.102270	     120.451207
	 B(1,6,5)         =         2.081137	     119.240384
	 B(1,6,12)        =         2.102869	     120.485517
	 B(1,7,13)        =         2.084012	     119.405095
	 B(1,7,14)        =         2.083691	     119.386713
	 B(2,1,6)         =         2.109485	     120.864560
	 B(2,1,7)         =         2.086814	     119.565609
	 B(2,3,4)         =         2.097163	     120.158565
	 B(2,3,9)         =         2.087111	     119.582665
	 B(3,2,8)         =         2.099751	     120.306846
	 B(3,4,5)         =         2.100279	     120.337101
	 B(3,4,10)        =         2.091482	     119.833079
	 B(4,3,9)         =         2.098900	     120.258091
	 B(4,5,6)         =         2.097116	     120.155911
	 B(4,5,11)        =         2.098794	     120.252050
	 B(5,4,10)        =         2.091422	     119.829651
	 B(5,6,12)        =         2.099174	     120.273800
	 B(6,1,7)         =         2.086703	     119.559261
	 B(6,5,11)        =         2.087248	     119.590527
	 B(7,13,17)       =         2.081577	     119.265550
	 B(7,13,18)       =         2.149757	     123.171997
	 B(7,14,15)       =         2.149198	     123.139993
	 B(7,14,16)       =         2.083431	     119.371816
	 B(13,7,14)       =         2.115307	     121.198166
	 B(15,14,16)      =         2.049738	     117.441356
	 B(17,13,18)      =         2.051033	     117.515554
	 D(1,2,3,4)       =        -0.003978	      -0.227930
	 D(1,2,3,9)       =         3.132400	     179.473312
	 D(1,6,5,4)       =         0.003705	       0.212278
	 D(1,6,5,11)      =         3.137513	     179.766256
	 D(1,7,13,17)     =         0.071892	       4.119123
	 D(1,7,13,18)     =        -3.114290	    -178.435680
	 D(1,7,14,15)     =        -3.094653	    -177.310554
	 D(1,7,14,16)     =         0.091530	       5.244262
	 D(2,1,6,5)       =        -0.009695	      -0.555489
	 D(2,1,6,12)      =         3.128433	     179.246005
	*D(2,1,7,13)      =         1.570796	      89.999983
	 D(2,1,7,14)      =        -1.590656	     -91.137882
	 D(2,3,4,5)       =        -0.001893	      -0.108471
	 D(2,3,4,10)      =        -3.140873	    -179.958774
	 D(3,2,1,6)       =         0.009831	       0.563302
	 D(3,2,1,7)       =         3.130690	     179.375329
	 D(3,4,5,6)       =         0.002032	       0.116400
	 D(3,4,5,11)      =        -3.131725	    -179.434604
	 D(4,3,2,8)       =        -3.139524	    -179.881448
	 D(4,5,6,12)      =        -3.134431	    -179.589645
	 D(5,4,3,9)       =        -3.138236	    -179.807679
	 D(5,6,1,7)       =        -3.130555	    -179.367591
	 D(6,1,2,8)       =        -3.137817	    -179.783692
	 D(6,1,7,13)      =        -1.591257	     -91.172332
	 D(6,1,7,14)      =         1.530476	      87.689803
	 D(6,5,4,10)      =         3.141012	     179.966709
	 D(7,1,2,8)       =        -0.016959	      -0.971665
	 D(7,1,6,12)      =         0.007573	       0.433903
	 D(8,2,3,9)       =        -0.003145	      -0.180206
	 D(9,3,4,10)      =         0.005969	       0.342018
	 D(10,4,5,11)     =         0.007255	       0.415704
	 D(11,5,6,12)     =        -0.000623	      -0.035667
	 D(13,7,14,15)    =         0.026714	       1.530575
	 D(13,7,14,16)    =        -3.070289	    -175.914609
	 D(14,7,13,17)    =        -3.049471	    -174.721796
	 D(14,7,13,18)    =         0.047532	       2.723401

	Current energy   :      -381.4636457241

	Energy change for the previous step:
		Projected    :        -0.0016495773
		Actual       :        -0.0017042426
	Energy ratio indicates good step: Trust radius increased to 1.000e+00.


	Performing BFGS update.
	Previous computed or guess Hessian on step 1.
	Steps to be used in Hessian update: 1
	Taking RFO optimization step.
	Going to follow RFO solution 1.
	Using RFO vector 1.
	Norm of target step-size    0.16357
	Projected energy change by RFO approximation:         0.0002322964

	Back-transformation to cartesian coordinates...
	Could not converge backtransformation.
	Using first guess instead.

	Back-transformation to cartesian coordinates to adjust frozen coordinates...
	Successfully converged to displaced geometry.

	--- Internal Coordinate Step in ANG or DEG, aJ/ANG or AJ/DEG ---
	 ---------------------------------------------------------------------------
	   Coordinate                Previous        Force       Change         New 
	   ----------                --------       ------       ------       ------
	    1 R(1,2)          =      1.402852    -0.004044    -0.001214     1.401637
	    2 R(1,6)          =      1.402945    -0.005037    -0.001386     1.401559
	    3 R(1,7)          =      1.479005     0.023209     0.006429     1.485434
	    4 R(2,3)          =      1.393533     0.003460     0.000844     1.394377
	    5 R(2,8)          =      1.088043    -0.008950    -0.001497     1.086546
	    6 R(3,4)          =      1.397460    -0.001086    -0.000250     1.397210
	    7 R(3,9)          =      1.085455    -0.000818    -0.000065     1.085389
	    8 R(4,5)          =      1.397442    -0.000330    -0.000128     1.397314
	    9 R(4,10)         =      1.085656    -0.000532    -0.000113     1.085542
	   10 R(5,6)          =      1.393566     0.002901     0.000745     1.394312
	   11 R(5,11)         =      1.085681    -0.002115    -0.000273     1.085407
	   12 R(6,12)         =      1.088182    -0.009673    -0.001624     1.086558
	   13 R(7,13)         =      1.325267    -0.012566    -0.002166     1.323101
	   14 R(7,14)         =      1.325693    -0.016285    -0.002323     1.323370
	   15 R(13,17)        =      1.018607    -0.042868    -0.003651     1.014957
	   16 R(13,18)        =      1.017211    -0.016201    -0.001453     1.015758
	   17 R(14,15)        =      1.016502    -0.011059    -0.000268     1.016234
	   18 R(14,16)        =      1.019044    -0.046062    -0.004775     1.014269
	   19 B(1,2,3)        =    119.241032    -0.000044    -0.220370   119.020662
	   20 B(1,2,8)        =    120.451207     0.000021     0.068845   120.520052
	   21 B(1,6,5)        =    119.240384    -0.000048    -0.240602   118.999782
	   22 B(1,6,12)       =    120.485517     0.000016     0.051193   120.536710
	   23 B(1,7,13)       =    119.405095    -0.000071    -0.312970   119.092125
	   24 B(1,7,14)       =    119.386713    -0.000080    -0.361611   119.025102
	   25 B(2,1,6)        =    120.864560     0.000085     0.393774   121.258334
	   26 B(2,1,7)        =    119.565609    -0.000024    -0.127445   119.438163
	   27 B(2,3,4)        =    120.158565    -0.000011    -0.026183   120.132383
	   28 B(2,3,9)        =    119.582665     0.000004    -0.004338   119.578328
	   29 B(3,2,8)        =    120.306846     0.000023     0.152159   120.459005
	   30 B(3,4,5)        =    120.337101     0.000023     0.094542   120.431643
	   31 B(3,4,10)       =    119.833079    -0.000012    -0.048682   119.784397
	   32 B(4,3,9)        =    120.258091     0.000007     0.031190   120.289281
	   33 B(4,5,6)        =    120.155911    -0.000004    -0.000779   120.155132
	   34 B(4,5,11)       =    120.252050     0.000006     0.034187   120.286237
	   35 B(5,4,10)       =    119.829651    -0.000011    -0.045692   119.783960
	   36 B(5,6,12)       =    120.273800     0.000032     0.189683   120.463483
	   37 B(6,1,7)        =    119.559261    -0.000061    -0.265974   119.293287
	   38 B(6,5,11)       =    119.590527    -0.000002    -0.031971   119.558557
	   39 B(7,13,17)      =    119.265550    -0.000030    -0.315180   118.950370
	   40 B(7,13,18)      =    123.171997     0.000074     0.447211   123.619208
	   41 B(7,14,15)      =    123.139993     0.000078     0.462430   123.602423
	   42 B(7,14,16)      =    119.371816    -0.000050    -0.416285   118.955532
	   43 B(13,7,14)      =    121.198166     0.000151     0.684553   121.882719
	   44 B(15,14,16)     =    117.441356    -0.000027    -0.016450   117.424906
	   45 B(17,13,18)     =    117.515554    -0.000042    -0.086110   117.429444
	   46 D(1,2,3,4)      =     -0.227930     0.000001     0.263105     0.035175
	   47 D(1,2,3,9)      =    179.473312     0.000003     0.595471   180.068783
	   48 D(1,6,5,4)      =      0.212278     0.000001     0.234154     0.446432
	   49 D(1,6,5,11)     =    179.766256     0.000003     0.581196   180.347452
	   50 D(1,7,13,17)    =      4.119123    -0.000018    -3.697356     0.421767
	   51 D(1,7,13,18)    =   -178.435680    -0.000007    -1.511871  -179.947551
	   52 D(1,7,14,15)    =   -177.310554    -0.000013    -2.874439  -180.184993
	   53 D(1,7,14,16)    =      5.244262    -0.000017    -3.882651     1.361611
	   54 D(2,1,6,5)      =     -0.555489    -0.000000     0.003306    -0.552183
	   55 D(2,1,6,12)     =    179.246005     0.000002     0.259279   179.505284
	   56 *D(2,1,7,13)    =     89.999983    -0.000000     0.000000    89.999983
	   57 D(2,1,7,14)     =    -91.137882     0.000005     1.055346   -90.082536
	   58 D(2,3,4,5)      =     -0.108471    -0.000000    -0.026584    -0.135055
	   59 D(2,3,4,10)     =   -179.958774    -0.000001    -0.166547  -180.125321
	   60 D(3,2,1,6)      =      0.563302    -0.000001    -0.251611     0.311691
	   61 D(3,2,1,7)      =    179.375329    -0.000001    -0.234720   179.140609
	   62 D(3,4,5,6)      =      0.116400    -0.000001    -0.226395    -0.109995
	   63 D(3,4,5,11)     =   -179.434604    -0.000003    -0.575684  -180.010289
	   64 D(4,3,2,8)      =   -179.881448    -0.000000     0.108521  -179.772926
	   65 D(4,5,6,12)     =   -179.589645    -0.000001    -0.021347  -179.610992
	   66 D(5,4,3,9)      =   -179.807679    -0.000002    -0.361225  -180.168904
	   67 D(5,6,1,7)      =   -179.367591    -0.000000    -0.015175  -179.382766
	   68 D(6,1,2,8)      =   -179.783692     0.000001    -0.096636  -179.880329
	   69 D(6,1,7,13)     =    -91.172332     0.000000     0.024453   -91.147879
	   70 D(6,1,7,14)     =     87.689803     0.000005     1.079799    88.769602
	   71 D(6,5,4,10)     =    179.966709    -0.000001    -0.086437   179.880272
	   72 D(7,1,2,8)      =     -0.971665     0.000000    -0.079745    -1.051411
	   73 D(7,1,6,12)     =      0.433903     0.000002     0.240798     0.674701
	   74 D(8,2,3,9)      =     -0.180206     0.000001     0.440887     0.260682
	   75 D(9,3,4,10)     =      0.342018    -0.000003    -0.501188    -0.159170
	   76 D(10,4,5,11)    =      0.415704    -0.000003    -0.435727    -0.020023
	   77 D(11,5,6,12)    =     -0.035667     0.000001     0.325696     0.290028
	   78 D(13,7,14,15)   =      1.530575    -0.000009    -1.800488    -0.269913
	   79 D(13,7,14,16)   =   -175.914609    -0.000013    -2.808700  -178.723309
	   80 D(14,7,13,17)   =   -174.721796    -0.000022    -4.771461  -179.493257
	   81 D(14,7,13,18)   =      2.723401    -0.000011    -2.585977     0.137424
	 ---------------------------------------------------------------------------
	Successfully symmetrized geometry.

  ==> Convergence Check <==

  Measures of convergence in internal coordinates in au.
  Criteria marked as inactive (o), active & met (*), and active & unmet ( ).
  ---------------------------------------------------------------------------------------------
   Step     Total Energy     Delta E     MAX Force     RMS Force      MAX Disp      RMS Disp   
  ---------------------------------------------------------------------------------------------
    Convergence Criteria    1.00e-06 *    3.00e-04 *             o    1.20e-03 *             o
  ---------------------------------------------------------------------------------------------
      2    -381.46364572   -1.70e-03      5.59e-03      1.11e-03 o    8.33e-02      1.81e-02 o  ~
  ---------------------------------------------------------------------------------------------

	Writing optimization data to binary file.
	Structure for next step:
	Cartesian Geometry (in Angstrom)
	    C     0.0131700172  -0.0001093063  -0.1733617708
	    C     0.0489903168   1.2206749922   0.5143809667
	    C     0.0385556433   1.2121391324   1.9086931511
	    C    -0.0062846988   0.0001169521   2.6023692092
	    C    -0.0438549092  -1.2118346045   1.9079285688
	    C    -0.0391694176  -1.2206173986   0.5136525683
	    C     0.0045296695  -0.0012567688  -1.6587700939
	    H     0.0875077961   2.1599900028  -0.0303999807
	    H     0.0649198451   2.1522946854   2.4504332343
	    H    -0.0121325527  -0.0000076157   3.6878959123
	    H    -0.0784863542  -2.1520163469   2.4491934759
	    H    -0.0746242017  -2.1598879360  -0.0314372363
	    N     1.1565528204  -0.0318915732  -2.3087705710
	    N    -1.1559988898   0.0267447697  -2.2941416475
	    H    -1.2428999304   0.0306915922  -3.3066452691
	    H    -2.0119232312   0.0694177176  -1.7516343300
	    H     2.0203193187  -0.0604586725  -1.7765779455
	    H     1.2308287585  -0.0339896222  -3.3218072419
			--------------------------
			 OPTKING Finished Execution 
			--------------------------

    Structure for next step:
    Molecular point group: c1
    Full point group: C1

    Geometry (in Angstrom), charge = 1, multiplicity = 1:

    C            0.013170017249    -0.000109306274    -0.173361770824
    C            0.048990316814     1.220674992220     0.514380966666
    C            0.038555643344     1.212139132441     1.908693151074
    C           -0.006284698803     0.000116952140     2.602369209229
    C           -0.043854909214    -1.211834604478     1.907928568840
    C           -0.039169417580    -1.220617398571     0.513652568258
    C            0.004529669480    -0.001256768764    -1.658770093856
    H            0.087507796114     2.159990002811    -0.030399980669
    H            0.064919845058     2.152294685426     2.450433234329
    H           -0.012132552748    -0.000007615695     3.687895912280
    H           -0.078486354200    -2.152016346872     2.449193475882
    H           -0.074624201738    -2.159887935952    -0.031437236281
    N            1.156552820384    -0.031891573241    -2.308770570980
    N           -1.155998889750     0.026744769690    -2.294141647474
    H           -1.242899930386     0.030691592219    -3.306645269121
    H           -2.011923231236     0.069417717587    -1.751634329985
    H            2.020319318676    -0.060458672517    -1.776577945475
    H            1.230828758538    -0.033989622168    -3.321807241894

gradient() will perform analytic gradient computation.

*** tstart() called on oliva.prib.upf.edu
*** at Sat Sep 29 20:51:14 2018

   => Loading Basis Set <=

    Name: 6-31G*
    Role: ORBITAL
    Keyword: BASIS
    atoms 1-7         entry C          line   111 file /shared/joao/test_parameterize/miniconda3/share/psi4/basis/6-31gs.gbs 
    atoms 8-12, 15-18 entry H          line    44 file /shared/joao/test_parameterize/miniconda3/share/psi4/basis/6-31gs.gbs 
    atoms 13-14       entry N          line   128 file /shared/joao/test_parameterize/miniconda3/share/psi4/basis/6-31gs.gbs 


         ---------------------------------------------------------
                                   SCF
            by Justin Turney, Rob Parrish, Andy Simmonett
                             and Daniel Smith
                              RKS Reference
                        4 Threads,   2861 MiB Core
         ---------------------------------------------------------

  ==> Geometry <==

    Molecular point group: c1
    Full point group: C1

    Geometry (in Angstrom), charge = 1, multiplicity = 1:

       Center              X                  Y                   Z               Mass       
[...]
	             0.0000126405       -0.0000033602        0.0000002627
	            -0.0000268280       -0.0000113901       -0.0000193589
	             0.0000262294       -0.0000009162       -0.0000424423
	            -0.0000107671        0.0000019520        0.0000038323
	             0.0000023202       -0.0000031037        0.0000014026
	             0.0000048046       -0.0000001964        0.0000024353
	            -0.0000002557        0.0000018505        0.0000031581
	             0.0000115926        0.0000004589        0.0000015314
	            -0.0000113587       -0.0000264926        0.0000356640
	            -0.0000119542       -0.0000239925        0.0000052671
	            -0.0000015251        0.0000093751        0.0000215767
	             0.0000141870        0.0000083880       -0.0000158250
	            -0.0000176598        0.0000091658       -0.0000259845
	             0.0000032667        0.0000072201        0.0000082766

	---Fragment 1 Intrafragment Coordinates---
	 - Coordinate -           - BOHR/RAD -       - ANG/DEG -
	 R(1,2)           =         2.649022	       1.401802
	 R(1,6)           =         2.649134	       1.401861
	 R(1,7)           =         2.807077	       1.485441
	 R(2,3)           =         2.634994	       1.394379
	 R(2,8)           =         2.052885	       1.086340
	 R(3,4)           =         2.640423	       1.397252
	 R(3,9)           =         2.050943	       1.085312
	 R(4,5)           =         2.640456	       1.397269
	 R(4,10)          =         2.051492	       1.085603
	 R(5,6)           =         2.634964	       1.394363
	 R(5,11)          =         2.050949	       1.085315
	 R(6,12)          =         2.052879	       1.086337
	 R(7,13)          =         2.500462	       1.323187
	 R(7,14)          =         2.500525	       1.323221
	 R(13,17)         =         1.913593	       1.012630
	 R(13,18)         =         1.918106	       1.015018
	 R(14,15)         =         1.918075	       1.015002
	 R(14,16)         =         1.913610	       1.012639
	 B(1,2,3)         =         2.077102	     119.009169
	 B(1,2,8)         =         2.104240	     120.564089
	 B(1,6,5)         =         2.077097	     119.008905
	 B(1,6,12)        =         2.104199	     120.561715
	 B(1,7,13)        =         2.078595	     119.094693
	 B(1,7,14)        =         2.078410	     119.084107
	 B(2,1,6)         =         2.116379	     121.259603
	 B(2,1,7)         =         2.083603	     119.381659
	 B(2,3,4)         =         2.096682	     120.131048
	 B(2,3,9)         =         2.087546	     119.607550
	 B(3,2,8)         =         2.101843	     120.426738
	 B(3,4,5)         =         2.102441	     120.460973
	 B(3,4,10)        =         2.090374	     119.769636
	 B(4,3,9)         =         2.098957	     120.261401
	 B(4,5,6)         =         2.096669	     120.130300
	 B(4,5,11)        =         2.098946	     120.260737
	 B(5,4,10)        =         2.090370	     119.769391
	 B(5,6,12)        =         2.101889	     120.429377
	 B(6,1,7)         =         2.083203	     119.358736
	 B(6,5,11)        =         2.087570	     119.608963
	 B(7,13,17)       =         2.078430	     119.085259
	 B(7,13,18)       =         2.157501	     123.615688
	 B(7,14,15)       =         2.157535	     123.617625
	 B(7,14,16)       =         2.078348	     119.080573
	 B(13,7,14)       =         2.126181	     121.821197
	 B(15,14,16)      =         2.047302	     117.301773
	 B(17,13,18)      =         2.047254	     117.299029
	 D(1,2,3,4)       =         0.000216	       0.012393
	 D(1,2,3,9)       =        -3.141509	    -179.995202
	 D(1,6,5,4)       =         0.000238	       0.013631
	 D(1,6,5,11)      =        -3.141459	    -179.992363
	 D(1,7,13,17)     =        -0.000632	      -0.036210
	 D(1,7,13,18)     =        -3.141200	    -179.977489
	 D(1,7,14,15)     =         3.141212	     179.978171
	 D(1,7,14,16)     =         0.000718	       0.041153
	 D(2,1,6,5)       =        -0.000064	      -0.003682
	 D(2,1,6,12)      =        -3.141305	    -179.983503
	*D(2,1,7,13)      =         1.570796	      89.999983
	 D(2,1,7,14)      =        -1.571089	     -90.016775
	 D(2,3,4,5)       =        -0.000045	      -0.002589
	 D(2,3,4,10)      =         3.141401	     179.989011
	 D(3,2,1,6)       =        -0.000163	      -0.009320
	 D(3,2,1,7)       =         3.141180	     179.976356
	 D(3,4,5,6)       =        -0.000186	      -0.010652
	 D(3,4,5,11)      =         3.141512	     179.995381
	 D(4,3,2,8)       =         3.141388	     179.988271
	 D(4,5,6,12)      =         3.141479	     179.993480
	 D(5,4,3,9)       =        -3.141504	    -179.994945
	 D(5,6,1,7)       =        -3.141407	    -179.989360
	 D(6,1,2,8)       =        -3.141334	    -179.985164
	 D(6,1,7,13)      =        -1.571042	     -90.014067
	 D(6,1,7,14)      =         1.570258	      89.969176
	 D(6,5,4,10)      =         3.141553	     179.997747
	 D(7,1,2,8)       =         0.000000	       0.000000
	 D(7,1,6,12)      =         0.000538	       0.030818
	 D(8,2,3,9)       =        -0.000337	      -0.019323
	 D(9,3,4,10)      =        -0.000058	      -0.003345
	 D(10,4,5,11)     =         0.000066	       0.003781
	 D(11,5,6,12)     =        -0.000218	      -0.012514
	 D(13,7,14,15)    =        -0.000682	      -0.039062
	 D(13,7,14,16)    =        -3.141175	    -179.976080
	 D(14,7,13,17)    =         3.141261	     179.981025
	 D(14,7,13,18)    =         0.000694	       0.039746

	Current energy   :      -381.4640107280

	Energy change for the previous step:
		Projected    :        -0.0000029753
		Actual       :        -0.0000005119
	Energy ratio indicates iffy step: Trust radius decreased to 6.250e-02.


	Performing BFGS update.
	Previous computed or guess Hessian on step 1.
	Steps to be used in Hessian update: 5 4
	Taking RFO optimization step.
	Going to follow RFO solution 1.
	Using RFO vector 1.
	Norm of target step-size    0.00191
	Projected energy change by RFO approximation:         0.0000000699

	Back-transformation to cartesian coordinates...
	Could not converge backtransformation.
	Using first guess instead.

	Back-transformation to cartesian coordinates to adjust frozen coordinates...
	Successfully converged to displaced geometry.

	--- Internal Coordinate Step in ANG or DEG, aJ/ANG or AJ/DEG ---
	 ---------------------------------------------------------------------------
	   Coordinate                Previous        Force       Change         New 
	   ----------                --------       ------       ------       ------
	    1 R(1,2)          =      1.401802     0.000191     0.000032     1.401835
	    2 R(1,6)          =      1.401861    -0.000008    -0.000004     1.401857
	    3 R(1,7)          =      1.485441    -0.000128    -0.000038     1.485403
	    4 R(2,3)          =      1.394379    -0.000033    -0.000007     1.394372
	    5 R(2,8)          =      1.086340     0.000003     0.000000     1.086340
	    6 R(3,4)          =      1.397252     0.000041     0.000007     1.397258
	    7 R(3,9)          =      1.085312     0.000017     0.000003     1.085316
	    8 R(4,5)          =      1.397269     0.000002     0.000001     1.397270
	    9 R(4,10)         =      1.085603    -0.000018    -0.000004     1.085599
	   10 R(5,6)          =      1.394363    -0.000003    -0.000004     1.394359
	   11 R(5,11)         =      1.085315     0.000001     0.000000     1.085316
	   12 R(6,12)         =      1.086337     0.000011     0.000003     1.086340
	   13 R(7,13)         =      1.323187     0.000252     0.000031     1.323218
	   14 R(7,14)         =      1.323221     0.000047     0.000004     1.323225
	   15 R(13,17)        =      1.012630     0.000240     0.000046     1.012676
	   16 R(13,18)        =      1.015018     0.000064     0.000012     1.015030
	   17 R(14,15)        =      1.015002     0.000174     0.000032     1.015034
	   18 R(14,16)        =      1.012639     0.000167     0.000029     1.012668
	   19 B(1,2,3)        =    119.009169     0.000000     0.001518   119.010687
	   20 B(1,2,8)        =    120.564089    -0.000000    -0.002229   120.561860
	   21 B(1,6,5)        =    119.008905     0.000001     0.001919   119.010824
	   22 B(1,6,12)       =    120.561715    -0.000000    -0.001187   120.560528
	   23 B(1,7,13)       =    119.094693    -0.000001    -0.004493   119.090200
	   24 B(1,7,14)       =    119.084107     0.000001     0.005398   119.089506
	   25 B(2,1,6)        =    121.259603    -0.000001    -0.003204   121.256399
	   26 B(2,1,7)        =    119.381659    -0.000002    -0.006510   119.375149
	   27 B(2,3,4)        =    120.131048     0.000000     0.000280   120.131327
	   28 B(2,3,9)        =    119.607550    -0.000000    -0.001093   119.606458
	   29 B(3,2,8)        =    120.426738     0.000000     0.000715   120.427453
	   30 B(3,4,5)        =    120.460973    -0.000000    -0.001207   120.459767
	   31 B(3,4,10)       =    119.769636     0.000000     0.000504   119.770139
	   32 B(4,3,9)        =    120.261401     0.000000     0.000813   120.262215
	   33 B(4,5,6)        =    120.130300     0.000000     0.000696   120.130996
	   34 B(4,5,11)       =    120.260737     0.000000     0.001022   120.261759
	   35 B(5,4,10)       =    119.769391     0.000000     0.000703   119.770094
	   36 B(5,6,12)       =    120.429377    -0.000000    -0.000729   120.428648
	   37 B(6,1,7)        =    119.358736     0.000003     0.009716   119.368452
	   38 B(6,5,11)       =    119.608963    -0.000000    -0.001718   119.607244
	   39 B(7,13,17)      =    119.085259    -0.000001    -0.004909   119.080350
	   40 B(7,13,18)      =    123.615688     0.000000     0.001029   123.616717
	   41 B(7,14,15)      =    123.617625    -0.000000    -0.000114   123.617511
	   42 B(7,14,16)      =    119.080573    -0.000000    -0.001587   119.078986
	   43 B(13,7,14)      =    121.821197    -0.000000    -0.000903   121.820294
	   44 B(15,14,16)     =    117.301773     0.000000     0.001729   117.303503
	   45 B(17,13,18)     =    117.299029     0.000001     0.003900   117.302929
	   46 D(1,2,3,4)      =      0.012393    -0.000000    -0.018900    -0.006507
	   47 D(1,2,3,9)      =   -179.995202    -0.000000    -0.006316  -180.001518
	   48 D(1,6,5,4)      =      0.013631    -0.000000    -0.019217    -0.005586
	   49 D(1,6,5,11)     =   -179.992363    -0.000000    -0.007637  -180.000000
	   50 D(1,7,13,17)    =     -0.036210     0.000000     0.020055    -0.016155
	   51 D(1,7,13,18)    =   -179.977489    -0.000000    -0.014227  -179.991716
	   52 D(1,7,14,15)    =    179.978171     0.000000     0.022702   180.000873
	   53 D(1,7,14,16)    =      0.041153    -0.000000    -0.039427     0.001727
	   54 D(2,1,6,5)      =     -0.003682     0.000000     0.003682     0.000000
	   55 D(2,1,6,12)     =   -179.983503    -0.000000    -0.016497  -180.000000
	   56 *D(2,1,7,13)    =     89.999983    -0.000000    -0.000000    89.999983
	   57 D(2,1,7,14)     =    -90.016775    -0.000000     0.011287   -90.005488
	   58 D(2,3,4,5)      =     -0.002589     0.000000     0.003868     0.001279
	   59 D(2,3,4,10)     =    179.989011     0.000000     0.015818   180.004829
	   60 D(3,2,1,6)      =     -0.009320     0.000000     0.015100     0.005780
	   61 D(3,2,1,7)      =    179.976356     0.000000     0.030956   180.007312
	   62 D(3,4,5,6)      =     -0.010652     0.000000     0.015527     0.004875
	   63 D(3,4,5,11)     =    179.995381     0.000000     0.004619   180.000000
	   64 D(4,3,2,8)      =    179.988271     0.000000     0.009275   179.997546
	   65 D(4,5,6,12)     =    179.993480     0.000000     0.001860   179.995340
	   66 D(5,4,3,9)      =   -179.994945    -0.000000    -0.008799  -180.003744
	   67 D(5,6,1,7)      =   -179.989360    -0.000000    -0.011910  -180.001270
	   68 D(6,1,2,8)      =   -179.985164    -0.000000    -0.013115  -179.998279
	   69 D(6,1,7,13)     =    -90.014067     0.000000     0.015552   -89.998515
	   70 D(6,1,7,14)     =     89.969176     0.000000     0.026839    89.996015
	   71 D(6,5,4,10)     =    179.997747     0.000000     0.003578   180.001325
	   72 D(7,1,2,8)      =      0.000000    -0.000000     0.003253     0.003253
	   73 D(7,1,6,12)     =      0.030818    -0.000000    -0.033016    -0.002197
	   74 D(8,2,3,9)      =     -0.019323     0.000000     0.021859     0.002536
	   75 D(9,3,4,10)     =     -0.003345     0.000000     0.003345     0.000000
	   76 D(10,4,5,11)    =      0.003781    -0.000000    -0.007810    -0.004029
	   77 D(11,5,6,12)    =     -0.012514     0.000000     0.012514     0.000000
	   78 D(13,7,14,15)   =     -0.039062     0.000000     0.034309    -0.004753
	   79 D(13,7,14,16)   =   -179.976080    -0.000000    -0.027820  -180.003899
	   80 D(14,7,13,17)   =    179.981025     0.000000     0.008446   179.989471
	   81 D(14,7,13,18)   =      0.039746    -0.000000    -0.025836     0.013910
	 ---------------------------------------------------------------------------
	Successfully symmetrized geometry.

  ==> Convergence Check <==

  Measures of convergence in internal coordinates in au.
  Criteria marked as inactive (o), active & met (*), and active & unmet ( ).
  ---------------------------------------------------------------------------------------------
   Step     Total Energy     Delta E     MAX Force     RMS Force      MAX Disp      RMS Disp   
  ---------------------------------------------------------------------------------------------
    Convergence Criteria    1.00e-06 *    3.00e-04 *             o    1.20e-03 *             o
  ---------------------------------------------------------------------------------------------
      6    -381.46401073   -5.12e-07 *    3.36e-05 *    9.42e-06 o    6.88e-04 *    2.12e-04 o  ~
  ---------------------------------------------------------------------------------------------


  **** Optimization is complete! (in 6 steps) ****

  ==> Optimization Summary <==

  Measures of convergence in internal coordinates in au.
  --------------------------------------------------------------------------------------------------------------- ~
   Step         Total Energy             Delta E       MAX Force       RMS Force        MAX Disp        RMS Disp  ~
  --------------------------------------------------------------------------------------------------------------- ~
      1    -381.461941481569   -381.461941481569      0.00832960      0.00189722      0.11654131      0.03436319  ~
      2    -381.463645724134     -0.001704242565      0.00559093      0.00111083      0.08327770      0.01814285  ~
      3    -381.463982234380     -0.000336510246      0.00202133      0.00033235      0.02192928      0.00505822  ~
      4    -381.464005627748     -0.000023393368      0.00027611      0.00007403      0.01042278      0.00234772  ~
      5    -381.464010216045     -0.000004588297      0.00025022      0.00004299      0.00294179      0.00076412  ~
      6    -381.464010727970     -0.000000511926      0.00003363      0.00000942      0.00068812      0.00021186  ~
  --------------------------------------------------------------------------------------------------------------- ~

	Writing optimization data to binary file.
	Final energy is   -381.4640107279704
	Final (previous) structure:
	Cartesian Geometry (in Angstrom)
	    C     0.0002601711   0.0001452433  -0.1730935021
	    C     0.0409597169   1.2210613329   0.5144795465
	    C     0.0402741348   1.2122264643   1.9088304033
	    C    -0.0002581760   0.0000207083   2.6025355982
	    C    -0.0404543460  -1.2121570976   1.9087272573
	    C    -0.0406323451  -1.2208817739   0.5143916593
	    C     0.0001334229  -0.0000767336  -1.6585347868
	    H     0.0721896379   2.1607430483  -0.0297241508
	    H     0.0715152408   2.1518866788   2.4510159150
	    H    -0.0003835705  -0.0000197883   3.6881386522
	    H    -0.0718002205  -2.1518526618   2.4508519772
	    H    -0.0716829208  -2.1604920733  -0.0299392775
	    N     1.1556624255  -0.0386419186  -2.3020334145
	    N    -1.1556645558   0.0379630961  -2.3016502620
	    H    -1.2359246920   0.0407795830  -3.3134696964
	    H    -2.0154351694   0.0670501829  -1.7674351130
	    H     2.0156902112  -0.0666311106  -1.7681903959
	    H     1.2355510347  -0.0411231802  -3.3138994100
	Saving final (previous) structure.
	Removing binary optimization data file.
			--------------------------
			 OPTKING Finished Execution 
			--------------------------

    Final optimized geometry and variables:
    Molecular point group: c1
    Full point group: C1

    Geometry (in Angstrom), charge = 1, multiplicity = 1:

    C            0.000260171145     0.000145243271    -0.173093502137
    C            0.040959716935     1.221061332941     0.514479546539
    C            0.040274134802     1.212226464278     1.908830403288
    C           -0.000258176022     0.000020708320     2.602535598183
    C           -0.040454346032    -1.212157097627     1.908727257280
    C           -0.040632345054    -1.220881773865     0.514391659268
    C            0.000133422936    -0.000076733594    -1.658534786757
    H            0.072189637863     2.160743048288    -0.029724150765
    H            0.071515240784     2.151886678834     2.451015915016
    H           -0.000383570475    -0.000019788305     3.688138652245
    H           -0.071800220463    -2.151852661822     2.450851977172
    H           -0.071682920793    -2.160492073278    -0.029939277544
    N            1.155662425533    -0.038641918621    -2.302033414545
    N           -1.155664555768     0.037963096131    -2.301650261972
    H           -1.235924691977     0.040779582958    -3.313469696399
    H           -2.015435169358     0.067050182899    -1.767435112950
    H            2.015690211234    -0.066631110594    -1.768190395897
    H            1.235551034709    -0.041123180213    -3.313899410025

	Removing binary optimization data file.
	Cleaning optimization helper files.


Properties will be evaluated at   0.000000,   0.000000,   0.000000 [a0]
OEProp: No title given, name of density matrix used for the following properties is 'SCF density'
  Nuclear Dipole Moment: [e a0]
     X:     0.0026      Y:    -0.0045      Z:    -0.2918

  Electronic Dipole Moment: [e a0]
     X:    -0.0026      Y:     0.0051      Z:    -2.2972

  Dipole Moment: [e a0]
     X:     0.0000      Y:     0.0006      Z:    -2.5891     Total:     2.5891

  Dipole Moment: [D]
     X:     0.0001      Y:     0.0016      Z:    -6.5807     Total:     6.5807

  Quadrupole Moment: [D A]
    XX:   -41.8088     YY:   -45.1926     ZZ:   -13.5126
    XY:    -0.1114     XZ:    -0.0030     YZ:    -0.0027

  Traceless Quadrupole Moment: [D A]
    XX:    -8.3042     YY:   -11.6879     ZZ:    19.9921
    XY:    -0.1114     XZ:    -0.0030     YZ:    -0.0027

  Mulliken Charges: (a.u.)
   Center  Symbol    Alpha    Beta     Spin     Total
       1     C     2.99542  2.99542  0.00000  0.00917
       2     C     3.07010  3.07010  0.00000 -0.14020
       3     C     3.06290  3.06290  0.00000 -0.12580
       4     C     3.05379  3.05379  0.00000 -0.10758
       5     C     3.06290  3.06290  0.00000 -0.12579
       6     C     3.07008  3.07008  0.00000 -0.14016
       7     C     2.74885  2.74885  0.00000  0.50231
       8     H     0.41373  0.41373  0.00000  0.17254
       9     H     0.40754  0.40754  0.00000  0.18492
      10     H     0.40701  0.40701  0.00000  0.18598
      11     H     0.40754  0.40754  0.00000  0.18492
      12     H     0.41373  0.41373  0.00000  0.17255
      13     N     3.84327  3.84327  0.00000 -0.68654
      14     N     3.84326  3.84326  0.00000 -0.68653
      15     H     0.30491  0.30491  0.00000  0.39017
      16     H     0.29504  0.29504  0.00000  0.40993
      17     H     0.29503  0.29503  0.00000  0.40993
      18     H     0.30491  0.30491  0.00000  0.39018

   Total alpha = 32.00000, Total beta = 32.00000, Total charge =  1.00000


    Psi4 stopped on: Saturday, 29 September 2018 08:53PM
    Psi4 wall time for execution: 0:02:52.80

*** Psi4 exiting successfully. Buy a developer a beer!
