
    -----------------------------------------------------------------------
          Psi4: An Open-Source Ab Initio Electronic Structure Package
                               Psi4 1.2.1 release

                         Git: Rev {HEAD} 406f4de 


    R. M. Parrish, L. A. Burns, D. G. A. Smith, A. C. Simmonett,
    A. E. DePrince III, E. G. Hohenstein, U. Bozkaya, A. Yu. Sokolov,
    R. Di Remigio, R. M. Richard, J. F. Gonthier, A. M. James,
    H. R. McAlexander, A. Kumar, M. Saitow, X. Wang, B. P. Pritchard,
    P. Verma, H. F. Schaefer III, K. Patkowski, R. A. King, E. F. Valeev,
    F. A. Evangelista, J. M. Turney, T. D. Crawford, and C. D. Sherrill,
    J. Chem. Theory Comput. 13(7) pp 3185--3197 (2017).
    (doi: 10.1021/acs.jctc.7b00174)


                         Additional Contributions by
    P. Kraus, H. Kruse, M. H. Lechner, M. C. Schieber, and R. A. Shaw

    -----------------------------------------------------------------------


    Psi4 started on: Saturday, 29 September 2018 08:31PM

    Process ID: 16541
    Host:       green.prib.upf.edu
    PSIDATADIR: /shared/joao/test_parameterize/miniconda3/share/psi4
    Memory:     500.0 MiB
    Threads:    1
    
  ==> Input File <==

--------------------------------------------------------------------------
set_num_threads(4)
set_memory('3000 MB')

set { scf_mem_safety_factor 0.7 }

set { reference rks }
set { basis 6-31G* }

molecule MOL {
    1 1
    noreorient
    nocom
    symmetry c1
    C   -0.000000  -0.000000  -0.177864
    C    0.036678   1.219374   0.524165
    C    0.031765   1.213120   1.915444
    C    0.000000   0.000000   2.610107
    C   -0.031765  -1.213120   1.915444
    C   -0.036678  -1.219375   0.524165
    C   -0.000000   0.000000  -1.644734
    H    0.018170   2.164705  -0.010854
    H    0.042402   2.152895   2.457886
    H    0.000000   0.000000   3.695756
    H   -0.042402  -2.152895   2.457886
    H   -0.018170  -2.164705  -0.010853
    N   -0.712590  -0.905950  -2.308461
    N    0.712590   0.905950  -2.308460
    H    0.673432   1.006470  -3.315997
    H    1.377190   1.485970  -1.813316
    H   -1.561645  -1.276077  -1.901773
    H   -0.482495  -1.206075  -3.248539
}

set optking { frozen_dihedral = (" 1 7 13 17 ") }

set optking { dynamic_level = 1 
 geom_maxiter = 250
 print_trajectory_xyz_file = True }

energy, wfn = optimize('B3LYP-D3', return_wfn=True)

import os
os.chdir(os.environ['HTMD_PSI4_WORKDIR'])

oeprop(wfn, 'DIPOLE', 'QUADRUPOLE', 'MULLIKEN_CHARGES')

with open('psi4out.xyz', 'w') as f:
    f.write('18 ' )
    f.write('%.12f\n' % energy)
    f.write(MOL.save_string_xyz())
--------------------------------------------------------------------------
  Threads set to 4 by Python driver.

  Memory set to   2.794 GiB by Python driver.
gradient() will perform analytic gradient computation.

*** tstart() called on green.prib.upf.edu
*** at Sat Sep 29 20:31:18 2018

   => Loading Basis Set <=

    Name: 6-31G*
    Role: ORBITAL
    Keyword: BASIS
    atoms 1-7         entry C          line   111 file /shared/joao/test_parameterize/miniconda3/share/psi4/basis/6-31gs.gbs 
    atoms 8-12, 15-18 entry H          line    44 file /shared/joao/test_parameterize/miniconda3/share/psi4/basis/6-31gs.gbs 
    atoms 13-14       entry N          line   128 file /shared/joao/test_parameterize/miniconda3/share/psi4/basis/6-31gs.gbs 


         ---------------------------------------------------------
                                   SCF
            by Justin Turney, Rob Parrish, Andy Simmonett
                             and Daniel Smith
                              RKS Reference
                        4 Threads,   2861 MiB Core
         ---------------------------------------------------------

  ==> Geometry <==

    Molecular point group: c1
    Full point group: C1

    Geometry (in Angstrom), charge = 1, multiplicity = 1:

       Center              X                  Y                   Z               Mass       
    ------------   -----------------  -----------------  -----------------  -----------------
         C            0.000000000000     0.000000000000    -0.177864000000    12.000000000000
         C            0.036678000000     1.219374000000     0.524165000000    12.000000000000
         C            0.031765000000     1.213120000000     1.915444000000    12.000000000000
         C            0.000000000000     0.000000000000     2.610107000000    12.000000000000
         C           -0.031765000000    -1.213120000000     1.915444000000    12.000000000000
         C           -0.036678000000    -1.219375000000     0.524165000000    12.000000000000
         C            0.000000000000     0.000000000000    -1.644734000000    12.000000000000
         H            0.018170000000     2.164705000000    -0.010854000000     1.007825032070
         H            0.042402000000     2.152895000000     2.457886000000     1.007825032070
         H            0.000000000000     0.000000000000     3.695756000000     1.007825032070
         H           -0.042402000000    -2.152895000000     2.457886000000     1.007825032070
         H           -0.018170000000    -2.164705000000    -0.010853000000     1.007825032070
         N           -0.712590000000    -0.905950000000    -2.308461000000    14.003074004780
         N            0.712590000000     0.905950000000    -2.308460000000    14.003074004780
         H            0.673432000000     1.006470000000    -3.315997000000     1.007825032070
         H            1.377190000000     1.485970000000    -1.813316000000     1.007825032070
         H           -1.561645000000    -1.276077000000    -1.901773000000     1.007825032070
         H           -0.482495000000    -1.206075000000    -3.248539000000     1.007825032070

  Running in c1 symmetry.

  Rotational constants: A =      0.12174  B =      0.03955  C =      0.03131 [cm^-1]
  Rotational constants: A =   3649.62321  B =   1185.70524  C =    938.56602 [MHz]
  Nuclear repulsion =  416.810241225740640

  Charge       = 1
  Multiplicity = 1
  Electrons    = 64
  Nalpha       = 32
  Nbeta        = 32

  ==> Algorithm <==

  SCF Algorithm Type is DF.
  DIIS enabled.
  MOM disabled.
  Fractional occupation disabled.
  Guess Type is SAD.
  Energy threshold   = 1.00e-08
  Density threshold  = 1.00e-08
  Integral threshold = 0.00e+00

  ==> Primary Basis <==

  Basis Set: 6-31G*
    Blend: 6-31G*
    Number of shells: 72
    Number of basis function: 153
    Number of Cartesian functions: 153
    Spherical Harmonics?: false
    Max angular momentum: 2

  ==> DFT Potential <==

   => Composite Functional: B3LYP-D3ZERO <= 

    B3LYP-d3zero Hyb-GGA Exchange-Correlation Functional

    P. J. Stephens, F. J. Devlin, C. F. Chabalowski, and M. J. Frisch, J. Phys. Chem. 98, 11623 (1994)

    Deriv               =              1
    GGA                 =           TRUE
    Meta                =          FALSE

    Exchange Hybrid     =           TRUE
    MP2 Hybrid          =          FALSE

   => Exchange Functionals <=

    0.0800   Slater exchange
    0.7200         Becke 88

   => Exact (HF) Exchange <=

    0.2000               HF 

   => Correlation Functionals <=

    0.1900   Vosko, Wilk & Nusair (VWN5_RPA)
    0.8100   Lee, Yang & Parr

   => Molecular Quadrature <=

    Radial Scheme       =       TREUTLER
    Pruning Scheme      =           FLAT
    Nuclear Scheme      =       TREUTLER

    BS radius alpha     =              1
    Pruning alpha       =              1
    Radial Points       =             75
    Spherical Points    =            302
    Total Points        =         397014
    Total Blocks        =           3014
    Max Points          =            256
    Max Functions       =            149

   => -D3ZERO: Empirical Dispersion <=

    Grimme's -D3 (zero-damping) Dispersion Correction
    Grimme S.; Antony J.; Ehrlich S.; Krieg H. (2010), J. Chem. Phys., 132: 154104

        S6 =   1.000000E+00
        S8 =   1.703000E+00
       SR6 =   1.261000E+00
       SR8 =   1.000000E+00
    ALPHA6 =   1.400000E+01

   => Loading Basis Set <=

    Name: (6-31G* AUX)
    Role: JKFIT
    Keyword: DF_BASIS_SCF
    atoms 1-7         entry C          line   121 file /shared/joao/test_parameterize/miniconda3/share/psi4/basis/cc-pvdz-jkfit.gbs 
    atoms 8-12, 15-18 entry H          line    51 file /shared/joao/test_parameterize/miniconda3/share/psi4/basis/cc-pvdz-jkfit.gbs 
    atoms 13-14       entry N          line   171 file /shared/joao/test_parameterize/miniconda3/share/psi4/basis/cc-pvdz-jkfit.gbs 

  ==> Pre-Iterations <==

   -------------------------------------------------------
    Irrep   Nso     Nmo     Nalpha   Nbeta   Ndocc  Nsocc
   -------------------------------------------------------
     A        153     153       0       0       0       0
   -------------------------------------------------------
    Total     153     153      32      32      32       0
   -------------------------------------------------------

  ==> Integral Setup <==

  ==> DiskDFJK: Density-Fitted J/K Matrices <==

    J tasked:                  Yes
    K tasked:                  Yes
    wK tasked:                  No
    OpenMP threads:              4
    Integrals threads:           4
    Memory (MB):              2002
    Algorithm:                Core
    Integral Cache:           NONE
    Schwarz Cutoff:          1E-12
    Fitting Condition:       1E-12

   => Auxiliary Basis Set <=

  Basis Set: (6-31G* AUX)
    Blend: CC-PVDZ-JKFIT
    Number of shells: 297
    Number of basis function: 954
    Number of Cartesian functions: 954
    Spherical Harmonics?: false
    Max angular momentum: 3

  Minimum eigenvalue in the overlap matrix is 4.8713015698E-04.
  Using Symmetric Orthogonalization.

  SCF Guess: Superposition of Atomic Densities via on-the-fly atomic UHF.

  ==> Iterations <==

                           Total Energy        Delta E     RMS |[F,P]|

   @DF-RKS iter   0:  -379.61771744188769   -3.79618e+02   6.73329e-02 
   @DF-RKS iter   1:  -381.03782277077005   -1.42011e+00   1.17945e-02 
   @DF-RKS iter   2:  -380.94427030966898    9.35525e-02   1.30588e-02 DIIS
   @DF-RKS iter   3:  -381.45733327747109   -5.13063e-01   1.81317e-03 DIIS
   @DF-RKS iter   4:  -381.46475326998899   -7.41999e-03   8.32301e-04 DIIS
   @DF-RKS iter   5:  -381.46643944765145   -1.68618e-03   2.57632e-04 DIIS
   @DF-RKS iter   6:  -381.46659852266134   -1.59075e-04   8.73002e-05 DIIS
   @DF-RKS iter   7:  -381.46661916164715   -2.06390e-05   1.89462e-05 DIIS
   @DF-RKS iter   8:  -381.46662015926478   -9.97618e-07   6.80617e-06 DIIS
   @DF-RKS iter   9:  -381.46662030521185   -1.45947e-07   2.27603e-06 DIIS
   @DF-RKS iter  10:  -381.46662032061357   -1.54017e-08   6.14289e-07 DIIS
   @DF-RKS iter  11:  -381.46662032164352   -1.02995e-09   1.28131e-07 DIIS
   @DF-RKS iter  12:  -381.46662032167080   -2.72848e-11   8.87315e-08 DIIS
   @DF-RKS iter  13:  -381.46662032169706   -2.62617e-11   1.56125e-08 DIIS
   @DF-RKS iter  14:  -381.46662032169775   -6.82121e-13   4.18878e-09 DIIS

  ==> Post-Iterations <==

    Orbital Energies [Eh]
    ---------------------

    Doubly Occupied:                                                      

       1A    -14.569736     2A    -14.562100     3A    -10.495590  
       4A    -10.371700     5A    -10.355947     6A    -10.355250  
       7A    -10.343784     8A    -10.340278     9A    -10.339824  
      10A     -1.181939    11A     -1.090041    12A     -1.013722  
      13A     -0.925671    14A     -0.901634    15A     -0.843961  
      16A     -0.782896    17A     -0.771098    18A     -0.741700  
      19A     -0.731158    20A     -0.694496    21A     -0.669488  
      22A     -0.625523    23A     -0.611642    24A     -0.582394  
      25A     -0.578731    26A     -0.567767    27A     -0.518530  
      28A     -0.504879    29A     -0.497402    30A     -0.471646  
      31A     -0.412696    32A     -0.405288  

    Virtual:                                                              

      33A     -0.223058    34A     -0.156146    35A     -0.130035  
      36A     -0.104110    37A     -0.068582    38A     -0.056096  
      39A     -0.037926    40A     -0.028140    41A      0.007660  
      42A      0.015224    43A      0.021885    44A      0.054404  
      45A      0.062065    46A      0.086706    47A      0.131286  
      48A      0.145109    49A      0.155038    50A      0.158422  
      51A      0.203004    52A      0.243067    53A      0.298485  
      54A      0.351592    55A      0.356487    56A      0.382598  
      57A      0.389681    58A      0.397625    59A      0.421042  
      60A      0.422749    61A      0.443213    62A      0.448663  
      63A      0.453463    64A      0.471457    65A      0.475017  
      66A      0.477213    67A      0.485592    68A      0.517529  
      69A      0.522322    70A      0.536467    71A      0.544840  
      72A      0.590717    73A      0.607377    74A      0.652767  
      75A      0.664162    76A      0.685309    77A      0.689215  
      78A      0.703550    79A      0.713778    80A      0.720436  
      81A      0.730156    82A      0.756337    83A      0.774447  
      84A      0.792296    85A      0.808510    86A      0.822142  
      87A      0.853966    88A      0.941832    89A      0.953293  
      90A      0.983280    91A      1.003754    92A      1.024126  
      93A      1.065262    94A      1.085264    95A      1.119540  
      96A      1.147718    97A      1.227332    98A      1.275185  
      99A      1.282529   100A      1.308461   101A      1.321554  
     102A      1.343296   103A      1.362175   104A      1.386467  
     105A      1.438760   106A      1.451046   107A      1.509149  
     108A      1.622051   109A      1.639999   110A      1.649523  
     111A      1.659984   112A      1.736820   113A      1.752215  
     114A      1.797407   115A      1.824898   116A      1.834152  
     117A      1.893071   118A      1.908994   119A      1.961237  
     120A      1.973879   121A      1.996302   122A      2.005051  
     123A      2.030879   124A      2.048222   125A      2.128325  
     126A      2.132004   127A      2.154291   128A      2.203629  
     129A      2.237498   130A      2.306378   131A      2.360505  
     132A      2.369452   133A      2.443001   134A      2.452947  
     135A      2.489130   136A      2.513722   137A      2.552431  
     138A      2.587606   139A      2.602070   140A      2.631455  
     141A      2.737131   142A      2.866294   143A      2.982563  
     144A      3.259164   145A      3.635990   146A      3.659047  
     147A      3.912086   148A      3.947303   149A      3.964304  
     150A      4.049549   151A      4.174696   152A      4.256298  
     153A      4.546657  

    Final Occupation by Irrep:
              A 
    DOCC [    32 ]

  Energy converged.

  @DF-RKS Final Energy:  -381.46662032169775

   => Energetics <=

    Nuclear Repulsion Energy =            416.8102412257406399
    One-Electron Energy =               -1328.8885627352087795
    Two-Electron Energy =                 575.0298803707121351
    DFT Exchange-Correlation Energy =     -44.4062150429417670
    Empirical Dispersion Energy =          -0.0119641400000000
    VV10 Nonlocal Energy =                  0.0000000000000000
    Total Energy =                       -381.4666203216978033



Properties will be evaluated at   0.000000,   0.000000,   0.000000 [a0]

Properties computed using the SCF density matrix

  Nuclear Dipole Moment: [e a0]
     X:     0.0122      Y:     0.0194      Z:    -0.0149

  Electronic Dipole Moment: [e a0]
     X:     0.0162      Y:    -0.0062      Z:    -2.2141

  Dipole Moment: [e a0]
     X:     0.0284      Y:     0.0132      Z:    -2.2290     Total:     2.2292

  Dipole Moment: [D]
     X:     0.0723      Y:     0.0335      Z:    -5.6655     Total:     5.6661


*** tstop() called on green.prib.upf.edu at Sat Sep 29 20:31:46 2018
Module time:
	user time   =     101.91 seconds =       1.70 minutes
	system time =       0.50 seconds =       0.01 minutes
	total time  =         28 seconds =       0.47 minutes
Total time:
	user time   =     101.91 seconds =       1.70 minutes
	system time =       0.50 seconds =       0.01 minutes
	total time  =         28 seconds =       0.47 minutes

*** tstart() called on green.prib.upf.edu
*** at Sat Sep 29 20:31:46 2018


         ------------------------------------------------------------
                                   SCF GRAD                          
                          Rob Parrish, Justin Turney,                
                       Andy Simmonett, and Alex Sokolov              
         ------------------------------------------------------------

  ==> Geometry <==

    Molecular point group: c1
    Full point group: C1

    Geometry (in Angstrom), charge = 1, multiplicity = 1:

       Center              X                  Y                   Z               Mass       
    ------------   -----------------  -----------------  -----------------  -----------------
         C            0.000000000000     0.000000000000    -0.177864000000    12.000000000000
         C            0.036678000000     1.219374000000     0.524165000000    12.000000000000
         C            0.031765000000     1.213120000000     1.915444000000    12.000000000000
         C            0.000000000000     0.000000000000     2.610107000000    12.000000000000
         C           -0.031765000000    -1.213120000000     1.915444000000    12.000000000000
         C           -0.036678000000    -1.219375000000     0.524165000000    12.000000000000
         C            0.000000000000     0.000000000000    -1.644734000000    12.000000000000
         H            0.018170000000     2.164705000000    -0.010854000000     1.007825032070
         H            0.042402000000     2.152895000000     2.457886000000     1.007825032070
         H            0.000000000000     0.000000000000     3.695756000000     1.007825032070
         H           -0.042402000000    -2.152895000000     2.457886000000     1.007825032070
         H           -0.018170000000    -2.164705000000    -0.010853000000     1.007825032070
         N           -0.712590000000    -0.905950000000    -2.308461000000    14.003074004780
         N            0.712590000000     0.905950000000    -2.308460000000    14.003074004780
         H            0.673432000000     1.006470000000    -3.315997000000     1.007825032070
         H            1.377190000000     1.485970000000    -1.813316000000     1.007825032070
         H           -1.561645000000    -1.276077000000    -1.901773000000     1.007825032070
         H           -0.482495000000    -1.206075000000    -3.248539000000     1.007825032070

  Nuclear repulsion =  416.810241225740640

  ==> Basis Set <==

  Basis Set: 6-31G*
    Blend: 6-31G*
    Number of shells: 72
    Number of basis function: 153
    Number of Cartesian functions: 153
    Spherical Harmonics?: false
    Max angular momentum: 2

  ==> DFJKGrad: Density-Fitted SCF Gradients <==

    Gradient:                    1
    J tasked:                  Yes
    K tasked:                  Yes
    wK tasked:                  No
    OpenMP threads:              4
    Integrals threads:           4
    Memory (MB):              2002
    Schwarz Cutoff:          0E+00
    Fitting Condition:       1E-12

   => Auxiliary Basis Set <=

  Basis Set: (6-31G* AUX)
    Blend: CC-PVDZ-JKFIT
    Number of shells: 297
    Number of basis function: 954
    Number of Cartesian functions: 954
    Spherical Harmonics?: false
    Max angular momentum: 3

  ==> DFT Potential <==

   => Composite Functional: B3LYP-D3ZERO <= 

    B3LYP-d3zero Hyb-GGA Exchange-Correlation Functional

    P. J. Stephens, F. J. Devlin, C. F. Chabalowski, and M. J. Frisch, J. Phys. Chem. 98, 11623 (1994)

    Deriv               =              1
    GGA                 =           TRUE
    Meta                =          FALSE

    Exchange Hybrid     =           TRUE
    MP2 Hybrid          =          FALSE

   => Exchange Functionals <=

    0.0800   Slater exchange
    0.7200         Becke 88

   => Exact (HF) Exchange <=

    0.2000               HF 

   => Correlation Functionals <=

    0.1900   Vosko, Wilk & Nusair (VWN5_RPA)
    0.8100   Lee, Yang & Parr

   => Molecular Quadrature <=

    Radial Scheme       =       TREUTLER
    Pruning Scheme      =           FLAT
    Nuclear Scheme      =       TREUTLER

    BS radius alpha     =              1
    Pruning alpha       =              1
    Radial Points       =             75
    Spherical Points    =            302
    Total Points        =         397014
    Total Blocks        =           3014
    Max Points          =            256
    Max Functions       =            149


  -Total Gradient:
     Atom            X                  Y                   Z
    ------   -----------------  -----------------  -----------------
       1        0.003686833163    -0.003923409939     0.002881203088
       2        0.000070371056    -0.000565048469    -0.002083064876
       3       -0.000405286879    -0.001069615183     0.000736981267
       4        0.000089882577     0.000385820732    -0.000035003838
       5       -0.000342752095    -0.000173533047     0.000168378881
       6        0.000276026980     0.001756527511     0.000208187045
       7       -0.002194342434    -0.005610432975    -0.005875496568
       8        0.000188023613    -0.000063205162     0.000051323000
       9        0.000002243417     0.000016635271    -0.000097056657
      10        0.000070206221    -0.000041541410    -0.000050256438
      11       -0.000039923071     0.000008674829     0.000012659549
      12        0.000809884331    -0.000801331952     0.000670434151
      13        0.001791878175     0.005421987982     0.004463511544
      14       -0.003085225096     0.003359653522    -0.000652281828
      15        0.001278062085     0.000155571491     0.000282362706
      16       -0.001781705275     0.000735194812     0.000008762165
      17       -0.003719338454     0.005509423438    -0.003335088604
      18        0.003293572072    -0.005105277476     0.002634534987


*** tstop() called on green.prib.upf.edu at Sat Sep 29 20:31:52 2018
Module time:
	user time   =      25.46 seconds =       0.42 minutes
	system time =       0.25 seconds =       0.00 minutes
	total time  =          6 seconds =       0.10 minutes
Total time:
	user time   =     127.43 seconds =       2.12 minutes
	system time =       0.76 seconds =       0.01 minutes
	total time  =         34 seconds =       0.57 minutes

			-----------------------------------------
			 OPTKING 2.0: for geometry optimizations 
			  - R.A. King,  Bethel University        
			-----------------------------------------
	At level 1: Red. Int., RFO, no backsteps, dynamic trust

	Internal coordinates to be generated automatically.
	Detected frag 1 with atoms:  1 2 3 4 5 6 7 8 9 10 11 12 13 14 15 16 17 18
	---Fragment 1 Bond Connectivity---
	 1 : 2 6 7
	 2 : 1 3 8
	 3 : 2 4 9
	 4 : 3 5 10
	 5 : 4 6 11
	 6 : 1 5 12
	 7 : 1 13 14
	 8 : 2
	 9 : 3
	 10 : 4
	 11 : 5
	 12 : 6
	 13 : 7 17 18
	 14 : 7 15 16
	 15 : 14
	 16 : 14
	 17 : 13
	 18 : 13

	Assuming in current code that numbering for constraints corresponds to unified fragment.
	Frozen dihedral atom list: 
	     1     7    13    17
	---Fragment 1 Geometry and Gradient---
	 C           0.0000000000        0.0000000000       -0.3361142489
	 C           0.0693113751        2.3042829136        0.9905282984
	 C           0.0600271506        2.2924645663        3.6196645829
	 C           0.0000000000        0.0000000000        4.9323874075
	 C          -0.0600271506       -2.2924645663        3.6196645829
	 C          -0.0693113751       -2.3042848033        0.9905282984
	 C           0.0000000000        0.0000000000       -3.1080968214
	 H           0.0343363238        4.0906996085       -0.0205110874
	 H           0.0801281675        4.0683819429        4.6447314059
	 H           0.0000000000        0.0000000000        6.9839666940
	 H          -0.0801281675       -4.0683819429        4.6447314059
	 H          -0.0343363238       -4.0906996085       -0.0205091977
	 N          -1.3465999450       -1.7119973901       -4.3623590784
	 N           1.3465999450        1.7119973901       -4.3623571887
	 H           1.2726020491        1.9019526610       -6.2663261875
	 H           2.6025119329        2.8080763417       -3.4266706324
	 H          -2.9510813668       -2.4114360545       -3.5938301369
	 H          -0.9117834105       -2.2791514457       -6.1388490420
	             0.0036868332       -0.0039234099        0.0028812031
	             0.0000703711       -0.0005650485       -0.0020830649
	            -0.0004052869       -0.0010696152        0.0007369813
	             0.0000898826        0.0003858207       -0.0000350038
	            -0.0003427521       -0.0001735330        0.0001683789
	             0.0002760270        0.0017565275        0.0002081870
	            -0.0021943424       -0.0056104330       -0.0058754966
	             0.0001880236       -0.0000632052        0.0000513230
	             0.0000022434        0.0000166353       -0.0000970567
	             0.0000702062       -0.0000415414       -0.0000502564
	            -0.0000399231        0.0000086748        0.0000126595
	             0.0008098843       -0.0008013320        0.0006704342
	             0.0017918782        0.0054219880        0.0044635115
	            -0.0030852251        0.0033596535       -0.0006522818
	             0.0012780621        0.0001555715        0.0002823627
	            -0.0017817053        0.0007351948        0.0000087622
	            -0.0037193385        0.0055094234       -0.0033350886
	             0.0032935721       -0.0051052775        0.0026345350

	Previous optimization step data not found.  Starting new optimization.

	---Fragment 1 Intrafragment Coordinates---
	 - Coordinate -           - BOHR/RAD -       - ANG/DEG -
	 R(1,2)           =         2.659794	       1.407502
	 R(1,6)           =         2.659796	       1.407503
	 R(1,7)           =         2.771983	       1.466870
	 R(2,3)           =         2.629179	       1.391302
	 R(2,8)           =         2.052976	       1.086388
	 R(3,4)           =         2.642393	       1.398294
	 R(3,9)           =         2.050622	       1.085142
	 R(4,5)           =         2.642393	       1.398294
	 R(4,10)          =         2.051579	       1.085649
	 R(5,6)           =         2.629179	       1.391302
	 R(5,11)          =         2.050622	       1.085142
	 R(6,12)          =         2.052973	       1.086386
	 R(7,13)          =         2.513452	       1.330061
	 R(7,14)          =         2.513451	       1.330061
	 R(13,17)         =         1.911599	       1.011575
	 R(13,18)         =         1.914849	       1.013294
	 R(14,15)         =         1.914852	       1.013296
	 R(14,16)         =         1.911600	       1.011575
	 B(1,2,3)         =         2.088380	     119.655376
	 B(1,2,8)         =         2.103396	     120.515689
	 B(1,6,5)         =         2.088379	     119.655315
	 B(1,6,12)        =         2.103396	     120.515729
	 B(1,7,13)        =         2.093264	     119.935172
	 B(1,7,14)        =         2.093263	     119.935135
	 B(2,1,6)         =         2.097220	     120.161857
	 B(2,1,7)         =         2.092983	     119.919082
	 B(2,3,4)         =         2.095279	     120.050636
	 B(2,3,9)         =         2.089719	     119.732108
	 B(3,2,8)         =         2.090149	     119.756722
	 B(3,4,5)         =         2.101793	     120.423859
	 B(3,4,10)        =         2.090696	     119.788070
	 B(4,3,9)         =         2.098135	     120.214297
	 B(4,5,6)         =         2.095280	     120.050677
	 B(4,5,11)        =         2.098135	     120.214297
	 B(5,4,10)        =         2.090696	     119.788070
	 B(5,6,12)        =         2.090149	     119.756743
	 B(6,1,7)         =         2.092982	     119.919061
	 B(6,5,11)        =         2.089719	     119.732067
	 B(7,13,17)       =         2.092411	     119.886307
	 B(7,13,18)       =         2.144859	     122.891396
	 B(7,14,15)       =         2.144860	     122.891405
	 B(7,14,16)       =         2.092412	     119.886393
	 B(13,7,14)       =         2.096659	     120.129694
	 B(15,14,16)      =         2.043399	     117.078146
	 B(17,13,18)      =         2.043401	     117.078238
	 D(1,2,3,4)       =         0.007799	       0.446825
	 D(1,2,3,9)       =        -3.122896	    -178.928735
	 D(1,6,5,4)       =         0.007799	       0.446822
	 D(1,6,5,11)      =        -3.122896	    -178.928737
	*D(1,7,13,17)     =         0.523598	      29.999978
	 D(1,7,13,18)     =        -2.696411	    -154.492964
	 D(1,7,14,15)     =        -3.032165	    -173.730230
	 D(1,7,14,16)     =         0.187844	      10.762681
	 D(2,1,6,5)       =        -0.003906	      -0.223802
	 D(2,1,6,12)      =        -3.091437	    -177.126283
	 D(2,1,7,13)      =        -2.505167	    -143.535494
	 D(2,1,7,14)      =         0.636426	      36.464506
	 D(2,3,4,5)       =        -0.003942	      -0.225875
	 D(2,3,4,10)      =         3.137650	     179.774125
	 D(3,2,1,6)       =        -0.003906	      -0.223806
	 D(3,2,1,7)       =         3.137687	     179.776196
	 D(3,4,5,6)       =        -0.003942	      -0.225874
	 D(3,4,5,11)      =         3.126699	     179.146646
	 D(4,3,2,8)       =         3.095744	     177.373058
	 D(4,5,6,12)      =         3.095744	     177.373055
	 D(5,4,3,9)       =         3.126699	     179.146646
	 D(5,6,1,7)       =         3.137687	     179.776197
	 D(6,1,2,8)       =        -3.091437	    -177.126287
	 D(6,1,7,13)      =         0.636426	      36.464508
	 D(6,1,7,14)      =        -2.505167	    -143.535492
	 D(6,5,4,10)      =         3.137650	     179.774126
	 D(7,1,2,8)       =         0.050156	       2.873714
	 D(7,1,6,12)      =         0.050156	       2.873716
	 D(8,2,3,9)       =        -0.034950	      -2.002503
	 D(9,3,4,10)      =        -0.014894	      -0.853354
	 D(10,4,5,11)     =        -0.014894	      -0.853354
	 D(11,5,6,12)     =        -0.034950	      -2.002504
	 D(13,7,14,15)    =         0.109428	       6.269770
	 D(13,7,14,16)    =        -2.953748	    -169.237319
	 D(14,7,13,17)    =        -2.617994	    -150.000022
	 D(14,7,13,18)    =         0.445182	      25.507036

	Current energy   :      -381.4666203217

	Generating empirical Hessian (Schlegel '84) for each fragment.
	Taking RFO optimization step.
	Going to follow RFO solution 1.
	Using RFO vector 1.
	Norm of target step-size    0.39958
	Projected energy change by RFO approximation:        -0.0026890766

	Back-transformation to cartesian coordinates...
	Could not converge backtransformation.
	Using first guess instead.

	Back-transformation to cartesian coordinates to adjust frozen coordinates...
	Successfully converged to displaced geometry.

	--- Internal Coordinate Step in ANG or DEG, aJ/ANG or AJ/DEG ---
	 ---------------------------------------------------------------------------
	   Coordinate                Previous        Force       Change         New 
	   ----------                --------       ------       ------       ------
	    1 R(1,2)          =      1.407502     0.011852     0.001893     1.409396
	    2 R(1,6)          =      1.407503    -0.001471    -0.000077     1.407426
	    3 R(1,7)          =      1.466870    -0.020348    -0.003566     1.463304
	    4 R(2,3)          =      1.391302    -0.005451    -0.000503     1.390799
	    5 R(2,8)          =      1.086388     0.000690     0.000165     1.086553
	    6 R(3,4)          =      1.398294     0.005746     0.000869     1.399163
	    7 R(3,9)          =      1.085142     0.000278     0.000268     1.085410
	    8 R(4,5)          =      1.398294     0.003748     0.000856     1.399150
	    9 R(4,10)         =      1.085649     0.000410     0.000205     1.085854
	   10 R(5,6)          =      1.391302    -0.000627     0.000114     1.391416
	   11 R(5,11)         =      1.085142     0.000005     0.000081     1.085223
	   12 R(6,12)         =      1.086386    -0.003136     0.000136     1.086523
	   13 R(7,13)         =      1.330061     0.054225     0.010221     1.340282
	   14 R(7,14)         =      1.330061    -0.009513    -0.000835     1.329226
	   15 R(13,17)        =      1.011575     0.001947     0.004080     1.015655
	   16 R(13,18)        =      1.013294     0.001517     0.010040     1.023334
	   17 R(14,15)        =      1.013296     0.002600     0.000806     1.014102
	   18 R(14,16)        =      1.011575     0.006122     0.001108     1.012683
	   19 B(1,2,3)        =    119.655376    -0.000002     0.011514   119.666890
	   20 B(1,2,8)        =    120.515689    -0.000001    -0.002146   120.513543
	   21 B(1,6,5)        =    119.655315    -0.000029    -0.111602   119.543713
	   22 B(1,6,12)       =    120.515729    -0.000060    -0.284126   120.231604
	   23 B(1,7,13)       =    119.935172     0.000017    -0.068960   119.866211
	   24 B(1,7,14)       =    119.935135     0.000102     0.301251   120.236385
	   25 B(2,1,6)        =    120.161857     0.000027     0.090170   120.252027
	   26 B(2,1,7)        =    119.919082     0.000182     0.538405   120.457486
	   27 B(2,3,4)        =    120.050636    -0.000031    -0.110700   119.939936
	   28 B(2,3,9)        =    119.732108     0.000023     0.092558   119.824665
	   29 B(3,2,8)        =    119.756722     0.000003     0.006217   119.762939
	   30 B(3,4,5)        =    120.423859     0.000027     0.087653   120.511512
	   31 B(3,4,10)       =    119.788070    -0.000017    -0.065696   119.722375
	   32 B(4,3,9)        =    120.214297     0.000009     0.016467   120.230764
	   33 B(4,5,6)        =    120.050677     0.000007     0.028149   120.078826
	   34 B(4,5,11)       =    120.214297    -0.000002     0.002303   120.216599
	   35 B(5,4,10)       =    119.788070    -0.000011    -0.022438   119.765633
	   36 B(5,6,12)       =    119.756743     0.000090     0.415061   120.171804
	   37 B(6,1,7)        =    119.919061    -0.000210    -0.628576   119.290486
	   38 B(6,5,11)       =    119.732067    -0.000005    -0.028485   119.703581
	   39 B(7,13,17)      =    119.886307     0.000020     0.125240   120.011547
	   40 B(7,13,18)      =    122.891396    -0.000063    -1.538077   121.353318
	   41 B(7,14,15)      =    122.891405    -0.000101    -0.490879   122.400526
	   42 B(7,14,16)      =    119.886393     0.000056     0.230729   120.117122
	   43 B(13,7,14)      =    120.129694    -0.000119    -0.539585   119.590108
	   44 B(15,14,16)     =    117.078146     0.000041     0.108113   117.186258
	   45 B(17,13,18)     =    117.078238     0.000023     0.287167   117.365405
	   46 D(1,2,3,4)      =      0.446825    -0.000003    -0.407857     0.038968
	   47 D(1,2,3,9)      =   -178.928735    -0.000002    -0.251003  -179.179738
	   48 D(1,6,5,4)      =      0.446822     0.000002     0.343679     0.790501
	   49 D(1,6,5,11)     =   -178.928737     0.000001     0.080945  -178.847793
	   50 *D(1,7,13,17)   =     29.999978     0.000000     0.000000    29.999978
	   51 D(1,7,13,18)    =   -154.492964    -0.000072    -8.716791  -163.209756
	   52 D(1,7,14,15)    =   -173.730230    -0.000010    -1.711948  -175.442178
	   53 D(1,7,14,16)    =     10.762681     0.000005     0.222703    10.985384
	   54 D(2,1,6,5)      =     -0.223802    -0.000005    -0.804594    -1.028396
	   55 D(2,1,6,12)     =   -177.126283    -0.000009    -1.262267  -178.388549
	   56 D(2,1,7,13)     =   -143.535494    -0.000033    -6.216244  -149.751738
	   57 D(2,1,7,14)     =     36.464506     0.000009     0.175203    36.639709
	   58 D(2,3,4,5)      =     -0.225875    -0.000000    -0.050826    -0.276702
	   59 D(2,3,4,10)     =    179.774125     0.000001     0.201924   179.976048
	   60 D(3,2,1,6)      =     -0.223806     0.000005     0.837338     0.613532
	   61 D(3,2,1,7)      =    179.776196     0.000005     0.824088   180.600284
	   62 D(3,4,5,6)      =     -0.225874     0.000000     0.082901    -0.142974
	   63 D(3,4,5,11)     =    179.146646     0.000002     0.346802   179.493448
	   64 D(4,3,2,8)      =    177.373058    -0.000000    -0.056348   177.316709
	   65 D(4,5,6,12)     =    177.373055     0.000005     0.779204   178.152259
	   66 D(5,4,3,9)      =    179.146646    -0.000001    -0.207850   178.938796
	   67 D(5,6,1,7)      =    179.776197    -0.000005    -0.791499   178.984698
	   68 D(6,1,2,8)      =   -177.126287     0.000003     0.482877  -176.643410
	   69 D(6,1,7,13)     =     36.464508    -0.000033    -6.229366    30.235141
	   70 D(6,1,7,14)     =   -143.535492     0.000009     0.162080  -143.373412
	   71 D(6,5,4,10)     =    179.774126    -0.000001    -0.169958   179.604168
	   72 D(7,1,2,8)      =      2.873714     0.000003     0.469628     3.343342
	   73 D(7,1,6,12)     =      2.873716    -0.000008    -1.249172     1.624544
	   74 D(8,2,3,9)      =     -2.002503     0.000001     0.100507    -1.901996
	   75 D(9,3,4,10)     =     -0.853354     0.000000     0.044900    -0.808454
	   76 D(10,4,5,11)    =     -0.853354     0.000001     0.093943    -0.759411
	   77 D(11,5,6,12)    =     -2.002504     0.000003     0.516469    -1.486034
	   78 D(13,7,14,15)   =      6.269770     0.000032     4.661862    10.931632
	   79 D(13,7,14,16)   =   -169.237319     0.000047     6.596513  -162.640806
	   80 D(14,7,13,17)   =   -150.000022    -0.000042    -6.349932  -156.349954
	   81 D(14,7,13,18)   =     25.507036    -0.000114   -15.066723    10.440312
	 ---------------------------------------------------------------------------
	Successfully symmetrized geometry.

  ==> Convergence Check <==

  Measures of convergence in internal coordinates in au.
  Criteria marked as inactive (o), active & met (*), and active & unmet ( ).
  --------------------------------------------------------------------------------------------- ~
   Step     Total Energy     Delta E     MAX Force     RMS Force      MAX Disp      RMS Disp    ~
  --------------------------------------------------------------------------------------------- ~
    Convergence Criteria    1.00e-06 *    3.00e-04 *             o    1.20e-03 *             o  ~
  --------------------------------------------------------------------------------------------- ~
      1    -381.46662032   -3.81e+02      6.58e-03      1.42e-03 o    2.63e-01      4.35e-02 o  ~
  ---------------------------------------------------------------------------------------------

	Writing optimization data to binary file.
	Structure for next step:
	Cartesian Geometry (in Angstrom)
	    C    -0.0232149165   0.0230368834  -0.1734638394
	    C     0.0332317492   1.2380819167   0.5384880830
	    C     0.0505203628   1.2209637929   1.9290738075
	    C     0.0127258122   0.0009017713   2.6129422066
	    C    -0.0483239968  -1.2065704776   1.9087378086
	    C    -0.0749632776  -1.2019622547   0.5175844767
	    C    -0.0289873212   0.0203232050  -1.6367535292
	    H     0.0185213839   2.1878363164   0.0109013162
	    H     0.0804928264   2.1556135557   2.4801153702
	    H     0.0267755810  -0.0083582171   3.6986654291
	    H    -0.0691610384  -2.1504589639   2.4438536926
	    H    -0.0920891095  -2.1394481964  -0.0313764617
	    N    -0.6608610429  -0.9581208303  -2.2998815739
	    N     0.6937129229   0.9093983704  -2.3106160650
	    H     0.6620235937   0.9812454402  -3.3216729292
	    H     1.3758348999   1.4809321201  -1.8273090683
	    H    -1.4728108379  -1.4085712673  -1.8883157621
	    H    -0.4769455912  -1.1345561647  -3.2909709618
			--------------------------
			 OPTKING Finished Execution 
			--------------------------

    Structure for next step:
    Molecular point group: c1
    Full point group: C1

    Geometry (in Angstrom), charge = 1, multiplicity = 1:

    C           -0.023214916545     0.023036883389    -0.173463839380
    C            0.033231749172     1.238081916727     0.538488082985
    C            0.050520362781     1.220963792858     1.929073807480
    C            0.012725812186     0.000901771339     2.612942206627
    C           -0.048323996765    -1.206570477561     1.908737808618
    C           -0.074963277599    -1.201962254742     0.517584476727
    C           -0.028987321219     0.020323205015    -1.636753529189
    H            0.018521383935     2.187836316359     0.010901316176
    H            0.080492826376     2.155613555685     2.480115370172
    H            0.026775581003    -0.008358217068     3.698665429128
    H           -0.069161038358    -2.150458963885     2.443853692636
    H           -0.092089109494    -2.139448196414    -0.031376461662
    N           -0.660861042904    -0.958120830272    -2.299881573900
    N            0.693712922931     0.909398370362    -2.310616064977
    H            0.662023593708     0.981245440167    -3.321672929244
    H            1.375834899894     1.480932120116    -1.827309068288
    H           -1.472810837935    -1.408571267341    -1.888315762136
    H           -0.476945591169    -1.134556164734    -3.290970961772

gradient() will perform analytic gradient computation.

*** tstart() called on green.prib.upf.edu
*** at Sat Sep 29 20:31:52 2018

   => Loading Basis Set <=

    Name: 6-31G*
    Role: ORBITAL
    Keyword: BASIS
    atoms 1-7         entry C          line   111 file /shared/joao/test_parameterize/miniconda3/share/psi4/basis/6-31gs.gbs 
    atoms 8-12, 15-18 entry H          line    44 file /shared/joao/test_parameterize/miniconda3/share/psi4/basis/6-31gs.gbs 
    atoms 13-14       entry N          line   128 file /shared/joao/test_parameterize/miniconda3/share/psi4/basis/6-31gs.gbs 


         ---------------------------------------------------------
                                   SCF
            by Justin Turney, Rob Parrish, Andy Simmonett
                             and Daniel Smith
                              RKS Reference
                        4 Threads,   2861 MiB Core
         ---------------------------------------------------------

  ==> Geometry <==

    Molecular point group: c1
    Full point group: C1

    Geometry (in Angstrom), charge = 1, multiplicity = 1:

       Center              X                  Y                   Z               Mass       
    ------------   -----------------  -----------------  -----------------  -----------------
         C           -0.023214916545     0.023036883389    -0.173463839380    12.000000000000
         C            0.033231749172     1.238081916727     0.538488082985    12.000000000000
         C            0.050520362781     1.220963792858     1.929073807480    12.000000000000
         C            0.012725812186     0.000901771339     2.612942206627    12.000000000000
         C           -0.048323996765    -1.206570477561     1.908737808618    12.000000000000
         C           -0.074963277599    -1.201962254742     0.517584476727    12.000000000000
         C           -0.028987321219     0.020323205015    -1.636753529189    12.000000000000
         H            0.018521383935     2.187836316359     0.010901316176     1.007825032070
         H            0.080492826376     2.155613555685     2.480115370172     1.007825032070
         H            0.026775581003    -0.008358217068     3.698665429128     1.007825032070
         H           -0.069161038358    -2.150458963885     2.443853692636     1.007825032070
         H           -0.092089109494    -2.139448196414    -0.031376461662     1.007825032070
         N           -0.660861042904    -0.958120830272    -2.299881573900    14.003074004780
         N            0.693712922931     0.909398370362    -2.310616064977    14.003074004780
         H            0.662023593708     0.981245440167    -3.321672929244     1.007825032070
         H            1.375834899894     1.480932120116    -1.827309068288     1.007825032070
         H           -1.472810837935    -1.408571267341    -1.888315762136     1.007825032070
         H           -0.476945591169    -1.134556164734    -3.290970961772     1.007825032070

  Running in c1 symmetry.

  Rotational constants: A =      0.12166  B =      0.03969  C =      0.03118 [cm^-1]
  Rotational constants: A =   3647.19403  B =   1189.99327  C =    934.83854 [MHz]
  Nuclear repulsion =  416.658498218802492

  Charge       = 1
  Multiplicity = 1
  Electrons    = 64
  Nalpha       = 32
  Nbeta        = 32

  ==> Algorithm <==

  SCF Algorithm Type is DF.
  DIIS enabled.
  MOM disabled.
  Fractional occupation disabled.
  Guess Type is READ.
  Energy threshold   = 1.00e-08
  Density threshold  = 1.00e-08
  Integral threshold = 0.00e+00

  ==> Primary Basis <==

  Basis Set: 6-31G*
    Blend: 6-31G*
    Number of shells: 72
    Number of basis function: 153
    Number of Cartesian functions: 153
    Spherical Harmonics?: false
    Max angular momentum: 2

  ==> DFT Potential <==

   => Composite Functional: B3LYP-D3ZERO <= 

    B3LYP-d3zero Hyb-GGA Exchange-Correlation Functional

    P. J. Stephens, F. J. Devlin, C. F. Chabalowski, and M. J. Frisch, J. Phys. Chem. 98, 11623 (1994)

    Deriv               =              1
    GGA                 =           TRUE
    Meta                =          FALSE

    Exchange Hybrid     =           TRUE
    MP2 Hybrid          =          FALSE

   => Exchange Functionals <=

    0.0800   Slater exchange
    0.7200         Becke 88

   => Exact (HF) Exchange <=

    0.2000               HF 

   => Correlation Functionals <=

    0.1900   Vosko, Wilk & Nusair (VWN5_RPA)
    0.8100   Lee, Yang & Parr

   => Molecular Quadrature <=

    Radial Scheme       =       TREUTLER
    Pruning Scheme      =           FLAT
    Nuclear Scheme      =       TREUTLER

    BS radius alpha     =              1
    Pruning alpha       =              1
    Radial Points       =             75
    Spherical Points    =            302
    Total Points        =         396979
    Total Blocks        =           3011
    Max Points          =            256
    Max Functions       =            149

   => -D3ZERO: Empirical Dispersion <=

    Grimme's -D3 (zero-damping) Dispersion Correction
    Grimme S.; Antony J.; Ehrlich S.; Krieg H. (2010), J. Chem. Phys., 132: 154104

        S6 =   1.000000E+00
        S8 =   1.703000E+00
       SR6 =   1.261000E+00
       SR8 =   1.000000E+00
    ALPHA6 =   1.400000E+01

   => Loading Basis Set <=

    Name: (6-31G* AUX)
    Role: JKFIT
    Keyword: DF_BASIS_SCF
    atoms 1-7         entry C          line   121 file /shared/joao/test_parameterize/miniconda3/share/psi4/basis/cc-pvdz-jkfit.gbs 
    atoms 8-12, 15-18 entry H          line    51 file /shared/joao/test_parameterize/miniconda3/share/psi4/basis/cc-pvdz-jkfit.gbs 
    atoms 13-14       entry N          line   171 file /shared/joao/test_parameterize/miniconda3/share/psi4/basis/cc-pvdz-jkfit.gbs 

  Reading orbitals from file 180, no projection.

  ==> Pre-Iterations <==

   -------------------------------------------------------
    Irrep   Nso     Nmo     Nalpha   Nbeta   Ndocc  Nsocc
   -------------------------------------------------------
     A        153     153       0       0       0       0
   -------------------------------------------------------
    Total     153     153      32      32      32       0
   -------------------------------------------------------

  ==> Integral Setup <==

  ==> DiskDFJK: Density-Fitted J/K Matrices <==

    J tasked:                  Yes
    K tasked:                  Yes
    wK tasked:                  No
    OpenMP threads:              4
    Integrals threads:           4
    Memory (MB):              2002
    Algorithm:                Core
    Integral Cache:           NONE
    Schwarz Cutoff:          1E-12
    Fitting Condition:       1E-12

   => Auxiliary Basis Set <=

  Basis Set: (6-31G* AUX)
    Blend: CC-PVDZ-JKFIT
    Number of shells: 297
    Number of basis function: 954
    Number of Cartesian functions: 954
    Spherical Harmonics?: false
    Max angular momentum: 3

  Minimum eigenvalue in the overlap matrix is 4.8805215691E-04.
  Using Symmetric Orthogonalization.

  SCF Guess: Orbitals guess was supplied from a previous computation.

  ==> Iterations <==

                           Total Energy        Delta E     RMS |[F,P]|

   @DF-RKS iter   0:  -381.44731585576255   -3.81447e+02   1.83989e-03 
   @DF-RKS iter   1:  -381.46830608300667   -2.09902e-02   2.20382e-04 
   @DF-RKS iter   2:  -381.46827082677913    3.52562e-05   2.80990e-04 DIIS
   @DF-RKS iter   3:  -381.46848236373603   -2.11537e-04   5.94806e-05 DIIS
   @DF-RKS iter   4:  -381.46848974663072   -7.38289e-06   3.15273e-05 DIIS
   @DF-RKS iter   5:  -381.46849243485610   -2.68823e-06   8.06585e-06 DIIS
   @DF-RKS iter   6:  -381.46849261219836   -1.77342e-07   2.74697e-06 DIIS
   @DF-RKS iter   7:  -381.46849263401032   -2.18120e-08   7.53276e-07 DIIS
   @DF-RKS iter   8:  -381.46849263564360   -1.63328e-09   2.47504e-07 DIIS
   @DF-RKS iter   9:  -381.46849263582976   -1.86162e-10   6.40658e-08 DIIS
   @DF-RKS iter  10:  -381.46849263583840   -8.64020e-12   3.08719e-08 DIIS
   @DF-RKS iter  11:  -381.46849263584113   -2.72848e-12   9.94222e-09 DIIS

  ==> Post-Iterations <==

    Orbital Energies [Eh]
    ---------------------

    Doubly Occupied:                                                      

       1A    -14.569444     2A    -14.565456     3A    -10.496094  
       4A    -10.372265     5A    -10.356439     6A    -10.355685  
       7A    -10.344186     8A    -10.340669     9A    -10.340296  
      10A     -1.181167    11A     -1.088336    12A     -1.013951  
      13A     -0.926220    14A     -0.902021    15A     -0.843098  
      16A     -0.782996    17A     -0.771568    18A     -0.738600  
      19A     -0.731231    20A     -0.692153    21A     -0.668984  
      22A     -0.625334    23A     -0.612270    24A     -0.583905  
      25A     -0.579164    26A     -0.570304    27A     -0.517906  
      28A     -0.505413    29A     -0.497881    30A     -0.472829  
      31A     -0.412366    32A     -0.405660  

    Virtual:                                                              

      33A     -0.222339    34A     -0.156720    35A     -0.128001  
      36A     -0.108101    37A     -0.068849    38A     -0.060934  
      39A     -0.037411    40A     -0.031247    41A      0.008430  
      42A      0.016302    43A      0.021928    44A      0.054203  
      45A      0.061702    46A      0.085935    47A      0.127599  
      48A      0.143717    49A      0.157519    50A      0.158208  
      51A      0.201652    52A      0.242682    53A      0.299568  
      54A      0.353507    55A      0.354803    56A      0.381317  
      57A      0.389010    58A      0.397268    59A      0.420696  
      60A      0.424282    61A      0.442092    62A      0.448356  
      63A      0.453678    64A      0.471297    65A      0.473801  
      66A      0.475208    67A      0.485037    68A      0.515275  
      69A      0.524448    70A      0.535254    71A      0.541748  
      72A      0.593832    73A      0.605908    74A      0.656048  
      75A      0.658541    76A      0.684077    77A      0.688050  
      78A      0.703441    79A      0.715089    80A      0.718555  
      81A      0.733237    82A      0.765565    83A      0.774577  
      84A      0.796749    85A      0.809119    86A      0.825283  
      87A      0.852434    88A      0.942357    89A      0.949565  
      90A      0.984509    91A      1.003893    92A      1.025778  
      93A      1.067786    94A      1.090034    95A      1.122538  
      96A      1.157224    97A      1.210944    98A      1.276746  
      99A      1.282793   100A      1.308146   101A      1.324553  
     102A      1.342514   103A      1.359370   104A      1.376882  
     105A      1.422091   106A      1.449535   107A      1.507132  
     108A      1.617714   109A      1.650506   110A      1.655932  
     111A      1.660434   112A      1.738187   113A      1.754512  
     114A      1.795187   115A      1.823607   116A      1.842303  
     117A      1.887986   118A      1.903987   119A      1.959850  
     120A      1.972959   121A      1.996015   122A      2.004877  
     123A      2.030122   124A      2.050274   125A      2.124494  
     126A      2.133063   127A      2.153360   128A      2.194599  
     129A      2.253550   130A      2.269881   131A      2.346205  
     132A      2.369743   133A      2.445036   134A      2.454658  
     135A      2.487695   136A      2.508723   137A      2.546170  
     138A      2.587647   139A      2.601559   140A      2.630790  
     141A      2.737396   142A      2.855622   143A      2.987766  
     144A      3.258097   145A      3.632376   146A      3.653664  
     147A      3.910346   148A      3.946293   149A      3.963682  
     150A      4.047618   151A      4.173168   152A      4.255995  
     153A      4.546443  

    Final Occupation by Irrep:
              A 
    DOCC [    32 ]

  Energy converged.

  @DF-RKS Final Energy:  -381.46849263584113

   => Energetics <=

    Nuclear Repulsion Energy =            416.6584982188024924
    One-Electron Energy =               -1328.5845869161096289
    Two-Electron Energy =                 574.8662980970825629
    DFT Exchange-Correlation Energy =     -44.3967564656166047
    Empirical Dispersion Energy =          -0.0119455700000000
    VV10 Nonlocal Energy =                  0.0000000000000000
    Total Energy =                       -381.4684926358411872



Properties will be evaluated at   0.000000,   0.000000,   0.000000 [a0]

Properties computed using the SCF density matrix

  Nuclear Dipole Moment: [e a0]
     X:    -0.3618      Y:     0.3625      Z:     0.3403

  Electronic Dipole Moment: [e a0]
     X:     0.3772      Y:    -0.3371      Z:    -2.5786

  Dipole Moment: [e a0]
     X:     0.0154      Y:     0.0253      Z:    -2.2384     Total:     2.2386

  Dipole Moment: [D]
     X:     0.0392      Y:     0.0644      Z:    -5.6893     Total:     5.6898


*** tstop() called on green.prib.upf.edu at Sat Sep 29 20:32:15 2018
Module time:
	user time   =      81.29 seconds =       1.35 minutes
	system time =       0.41 seconds =       0.01 minutes
	total time  =         23 seconds =       0.38 minutes
Total time:
	user time   =     209.54 seconds =       3.49 minutes
	system time =       1.22 seconds =       0.02 minutes
	total time  =         57 seconds =       0.95 minutes

*** tstart() called on green.prib.upf.edu
*** at Sat Sep 29 20:32:15 2018


         ------------------------------------------------------------
                                   SCF GRAD                          
                          Rob Parrish, Justin Turney,                
                       Andy Simmonett, and Alex Sokolov              
         ------------------------------------------------------------

  ==> Geometry <==

    Molecular point group: c1
    Full point group: C1

    Geometry (in Angstrom), charge = 1, multiplicity = 1:

       Center              X                  Y                   Z               Mass       
    ------------   -----------------  -----------------  -----------------  -----------------
         C           -0.023214916545     0.023036883389    -0.173463839380    12.000000000000
         C            0.033231749172     1.238081916727     0.538488082985    12.000000000000
         C            0.050520362781     1.220963792858     1.929073807480    12.000000000000
         C            0.012725812186     0.000901771339     2.612942206627    12.000000000000
         C           -0.048323996765    -1.206570477561     1.908737808618    12.000000000000
         C           -0.074963277599    -1.201962254742     0.517584476727    12.000000000000
         C           -0.028987321219     0.020323205015    -1.636753529189    12.000000000000
         H            0.018521383935     2.187836316359     0.010901316176     1.007825032070
         H            0.080492826376     2.155613555685     2.480115370172     1.007825032070
         H            0.026775581003    -0.008358217068     3.698665429128     1.007825032070
         H           -0.069161038358    -2.150458963885     2.443853692636     1.007825032070
         H           -0.092089109494    -2.139448196414    -0.031376461662     1.007825032070
         N           -0.660861042904    -0.958120830272    -2.299881573900    14.003074004780
         N            0.693712922931     0.909398370362    -2.310616064977    14.003074004780
         H            0.662023593708     0.981245440167    -3.321672929244     1.007825032070
         H            1.375834899894     1.480932120116    -1.827309068288     1.007825032070
         H           -1.472810837935    -1.408571267341    -1.888315762136     1.007825032070
         H           -0.476945591169    -1.134556164734    -3.290970961772     1.007825032070

  Nuclear repulsion =  416.658498218802492

  ==> Basis Set <==

  Basis Set: 6-31G*
    Blend: 6-31G*
    Number of shells: 72
    Number of basis function: 153
    Number of Cartesian functions: 153
    Spherical Harmonics?: false
    Max angular momentum: 2

  ==> DFJKGrad: Density-Fitted SCF Gradients <==

    Gradient:                    1
    J tasked:                  Yes
    K tasked:                  Yes
    wK tasked:                  No
    OpenMP threads:              4
    Integrals threads:           4
    Memory (MB):              2002
    Schwarz Cutoff:          0E+00
    Fitting Condition:       1E-12

   => Auxiliary Basis Set <=

  Basis Set: (6-31G* AUX)
    Blend: CC-PVDZ-JKFIT
    Number of shells: 297
    Number of basis function: 954
    Number of Cartesian functions: 954
    Spherical Harmonics?: false
    Max angular momentum: 3

  ==> DFT Potential <==

   => Composite Functional: B3LYP-D3ZERO <= 

    B3LYP-d3zero Hyb-GGA Exchange-Correlation Functional

    P. J. Stephens, F. J. Devlin, C. F. Chabalowski, and M. J. Frisch, J. Phys. Chem. 98, 11623 (1994)

    Deriv               =              1
    GGA                 =           TRUE
    Meta                =          FALSE

    Exchange Hybrid     =           TRUE
    MP2 Hybrid          =          FALSE

   => Exchange Functionals <=

    0.0800   Slater exchange
    0.7200         Becke 88

   => Exact (HF) Exchange <=

    0.2000               HF 

   => Correlation Functionals <=

    0.1900   Vosko, Wilk & Nusair (VWN5_RPA)
    0.8100   Lee, Yang & Parr

   => Molecular Quadrature <=

    Radial Scheme       =       TREUTLER
    Pruning Scheme      =           FLAT
    Nuclear Scheme      =       TREUTLER

    BS radius alpha     =              1
    Pruning alpha       =              1
    Radial Points       =             75
    Spherical Points    =            302
    Total Points        =         396979
    Total Blocks        =           3011
    Max Points          =            256
    Max Functions       =            149


  -Total Gradient:
     Atom            X                  Y                   Z
    ------   -----------------  -----------------  -----------------
       1        0.005458778538    -0.003787709967     0.000819806404
       2       -0.000444082135     0.000304315089     0.000088998264
       3        0.000012111640     0.000087441751     0.000361976892
       4        0.000086132648     0.000358822790     0.000191508665
       5        0.000273574893    -0.000134034650     0.000054051058
       6        0.000096211358     0.000535157254    -0.001075400078
       7       -0.006036870775     0.010842763330     0.000414770933
       8       -0.000040733984     0.000111935070     0.000230707625
       9        0.000003238378     0.000195013753     0.000088575692
      10       -0.000123544817     0.000065622493     0.000097030974
      11       -0.000037274865    -0.000096202816    -0.000078785735
      12       -0.000547003668    -0.000404898314    -0.000760962696
      13        0.000957967655    -0.005489292026     0.006453629230
      14       -0.000268725622    -0.000779465301     0.000727690082
      15       -0.000015929733    -0.000463741722    -0.000577111085
      16        0.000747789494    -0.000180525538     0.000191914486
      17       -0.004919636815     0.001303486122     0.000143227399
      18        0.004794352928    -0.002476227071    -0.007389603696


*** tstop() called on green.prib.upf.edu at Sat Sep 29 20:32:22 2018
Module time:
	user time   =      27.08 seconds =       0.45 minutes
	system time =       0.24 seconds =       0.00 minutes
	total time  =          7 seconds =       0.12 minutes
Total time:
	user time   =     236.68 seconds =       3.94 minutes
	system time =       1.46 seconds =       0.02 minutes
	total time  =         64 seconds =       1.07 minutes

			-----------------------------------------
			 OPTKING 2.0: for geometry optimizations 
			  - R.A. King,  Bethel University        
			-----------------------------------------
	At level 1: Red. Int., RFO, no backsteps, dynamic trust

	Previous internal coordinate definitions found.
	---Fragment 1 Geometry and Gradient---
	 C          -0.0438698345        0.0435334006       -0.3277991504
	 C           0.0627989049        2.3396357527        1.0175950027
	 C           0.0954696498        2.3072871867        3.6454211863
	 C           0.0240482999        0.0017041009        4.9377451716
	 C          -0.0913191195       -2.2800877626        3.6069917178
	 C          -0.1416600647       -2.2713794835        0.9780929116
	 C          -0.0547780984        0.0384052916       -3.0930159172
	 H           0.0350003432        4.1344114615        0.0206005021
	 H           0.1521093975        4.0735192686        4.6867388276
	 H           0.0505985151       -0.0157947412        6.9894647182
	 H          -0.1306954216       -4.0637785018        4.6182141879
	 H          -0.1740231968       -4.0429711667       -0.0592929196
	 N          -1.2488463830       -1.8105859714       -4.3461463127
	 N           1.3109274392        1.7185138657       -4.3664315611
	 H           1.2510432856        1.8542851511       -6.2770521393
	 H           2.5999511649        2.7985561284       -3.4531136992
	 H          -2.7832091292       -2.6618139339       -3.5683996428
	 H          -0.9012965476       -2.1440004337       -6.2190338290
	             0.0054587785       -0.0037877100        0.0008198064
	            -0.0004440821        0.0003043151        0.0000889983
	             0.0000121116        0.0000874418        0.0003619769
	             0.0000861326        0.0003588228        0.0001915087
	             0.0002735749       -0.0001340347        0.0000540511
	             0.0000962114        0.0005351573       -0.0010754001
	            -0.0060368708        0.0108427633        0.0004147709
	            -0.0000407340        0.0001119351        0.0002307076
	             0.0000032384        0.0001950138        0.0000885757
	            -0.0001235448        0.0000656225        0.0000970310
	            -0.0000372749       -0.0000962028       -0.0000787857
	            -0.0005470037       -0.0004048983       -0.0007609627
	             0.0009579677       -0.0054892920        0.0064536292
	            -0.0002687256       -0.0007794653        0.0007276901
	            -0.0000159297       -0.0004637417       -0.0005771111
	             0.0007477895       -0.0001805255        0.0001919145
	            -0.0049196368        0.0013034861        0.0001432274
	             0.0047943529       -0.0024762271       -0.0073896037

	---Fragment 1 Intrafragment Coordinates---
	 - Coordinate -           - BOHR/RAD -       - ANG/DEG -
	 R(1,2)           =         2.663372	       1.409396
	 R(1,6)           =         2.659650	       1.407426
	 R(1,7)           =         2.765243	       1.463304
	 R(2,3)           =         2.628228	       1.390799
	 R(2,8)           =         2.053288	       1.086553
	 R(3,4)           =         2.644034	       1.399163
	 R(3,9)           =         2.051128	       1.085410
	 R(4,5)           =         2.644010	       1.399150
	 R(4,10)          =         2.051966	       1.085854
	 R(5,6)           =         2.629395	       1.391416
	 R(5,11)          =         2.050774	       1.085223
	 R(6,12)          =         2.053230	       1.086523
	 R(7,13)          =         2.532766	       1.340282
	 R(7,14)          =         2.511873	       1.329226
	 R(13,17)         =         1.919309	       1.015655
	 R(13,18)         =         1.933821	       1.023334
	 R(14,15)         =         1.916374	       1.014102
	 R(14,16)         =         1.913694	       1.012683
	 B(1,2,3)         =         2.088581	     119.666890
	 B(1,2,8)         =         2.103358	     120.513543
	 B(1,6,5)         =         2.086431	     119.543713
	 B(1,6,12)        =         2.098437	     120.231604
	 B(1,7,13)        =         2.092060	     119.866211
	 B(1,7,14)        =         2.098521	     120.236385
	 B(2,1,6)         =         2.098794	     120.252027
	 B(2,1,7)         =         2.102380	     120.457486
	 B(2,3,4)         =         2.093347	     119.939936
	 B(2,3,9)         =         2.091335	     119.824665
	 B(3,2,8)         =         2.090258	     119.762939
	 B(3,4,5)         =         2.103323	     120.511512
	 B(3,4,10)        =         2.089550	     119.722375
	 B(4,3,9)         =         2.098423	     120.230764
	 B(4,5,6)         =         2.095771	     120.078826
	 B(4,5,11)        =         2.098175	     120.216599
	 B(5,4,10)        =         2.090305	     119.765633
	 B(5,6,12)        =         2.097394	     120.171804
	 B(6,1,7)         =         2.082012	     119.290486
	 B(6,5,11)        =         2.089222	     119.703581
	 B(7,13,17)       =         2.094597	     120.011547
	 B(7,13,18)       =         2.118015	     121.353318
	 B(7,14,15)       =         2.136292	     122.400526
	 B(7,14,16)       =         2.096439	     120.117122
	 B(13,7,14)       =         2.087241	     119.590108
	 B(15,14,16)      =         2.045286	     117.186258
	 B(17,13,18)      =         2.048413	     117.365405
	 D(1,2,3,4)       =         0.000680	       0.038968
	 D(1,2,3,9)       =        -3.127276	    -179.179738
	 D(1,6,5,4)       =         0.013797	       0.790501
	 D(1,6,5,11)      =        -3.121483	    -178.847793
	*D(1,7,13,17)     =         0.523598	      29.999978
	 D(1,7,13,18)     =        -2.848548	    -163.209756
	 D(1,7,14,15)     =        -3.062044	    -175.442178
	 D(1,7,14,16)     =         0.191731	      10.985384
	 D(2,1,6,5)       =        -0.017949	      -1.028396
	 D(2,1,6,12)      =        -3.113468	    -178.388549
	 D(2,1,7,13)      =        -2.613661	    -149.751738
	 D(2,1,7,14)      =         0.639484	      36.639709
	 D(2,3,4,5)       =        -0.004829	      -0.276702
	 D(2,3,4,10)      =         3.141175	     179.976048
	 D(3,2,1,6)       =         0.010708	       0.613532
	 D(3,2,1,7)       =        -3.131116	    -179.399716
	 D(3,4,5,6)       =        -0.002495	      -0.142974
	 D(3,4,5,11)      =         3.132752	     179.493448
	 D(4,3,2,8)       =         3.094760	     177.316709
	 D(4,5,6,12)      =         3.109343	     178.152259
	 D(5,4,3,9)       =         3.123071	     178.938796
	 D(5,6,1,7)       =         3.123872	     178.984698
	 D(6,1,2,8)       =        -3.083009	    -176.643410
	 D(6,1,7,13)      =         0.527703	      30.235141
	 D(6,1,7,14)      =        -2.502338	    -143.373412
	 D(6,5,4,10)      =         3.134684	     179.604168
	 D(7,1,2,8)       =         0.058352	       3.343342
	 D(7,1,6,12)      =         0.028354	       1.624544
	 D(8,2,3,9)       =        -0.033196	      -1.901996
	 D(9,3,4,10)      =        -0.014110	      -0.808454
	 D(10,4,5,11)     =        -0.013254	      -0.759411
	 D(11,5,6,12)     =        -0.025936	      -1.486034
	 D(13,7,14,15)    =         0.190793	      10.931632
	 D(13,7,14,16)    =        -2.838618	    -162.640806
	 D(14,7,13,17)    =        -2.728821	    -156.349954
	 D(14,7,13,18)    =         0.182218	      10.440312

	Current energy   :      -381.4684926358

	Energy change for the previous step:
		Projected    :        -0.0026890766
		Actual       :        -0.0018723141

	Performing BFGS update.
	Previous computed or guess Hessian on step 1.
	Steps to be used in Hessian update: 1
	Taking RFO optimization step.
	Going to follow RFO solution 1.
	Using RFO vector 1.
	Norm of target step-size    0.26465
	Projected energy change by RFO approximation:        -0.0018914703

	Back-transformation to cartesian coordinates...
	Could not converge backtransformation.
	Using first guess instead.

	Back-transformation to cartesian coordinates to adjust frozen coordinates...
	Successfully converged to displaced geometry.

	--- Internal Coordinate Step in ANG or DEG, aJ/ANG or AJ/DEG ---
	 ---------------------------------------------------------------------------
	   Coordinate                Previous        Force       Change         New 
	   ----------                --------       ------       ------       ------
	    1 R(1,2)          =      1.409396    -0.006446    -0.000249     1.409146
	    2 R(1,6)          =      1.407426     0.009484     0.001411     1.408837
	    3 R(1,7)          =      1.463304    -0.000347    -0.000922     1.462382
	    4 R(2,3)          =      1.390799    -0.003001    -0.000448     1.390350
	    5 R(2,8)          =      1.086553     0.000114     0.000164     1.086717
	    6 R(3,4)          =      1.399163    -0.000893     0.000187     1.399350
	    7 R(3,9)          =      1.085410    -0.001761    -0.000168     1.085242
	    8 R(4,5)          =      1.399150    -0.005803    -0.000447     1.398703
	    9 R(4,10)         =      1.085854    -0.000790    -0.000005     1.085849
	   10 R(5,6)          =      1.391416    -0.002941    -0.000187     1.391229
	   11 R(5,11)         =      1.085223    -0.000377     0.000032     1.085255
	   12 R(6,12)         =      1.086523    -0.006111    -0.000861     1.085661
	   13 R(7,13)         =      1.340282    -0.040038    -0.001222     1.339060
	   14 R(7,14)         =      1.329226     0.007199     0.000970     1.330196
	   15 R(13,17)        =      1.015655    -0.028115    -0.002383     1.013272
	   16 R(13,18)        =      1.023334    -0.069572     0.005323     1.028657
	   17 R(14,15)        =      1.014102    -0.004464     0.000013     1.014115
	   18 R(14,16)        =      1.012683    -0.004076    -0.000006     1.012677
	   19 B(1,2,3)        =    119.666890     0.000014     0.043581   119.710471
	   20 B(1,2,8)        =    120.513543    -0.000027    -0.112244   120.401299
	   21 B(1,6,5)        =    119.543713     0.000015     0.026119   119.569831
	   22 B(1,6,12)       =    120.231604     0.000027     0.030750   120.262353
	   23 B(1,7,13)       =    119.866211     0.000125     0.449696   120.315908
	   24 B(1,7,14)       =    120.236385    -0.000099    -0.118804   120.117581
	   25 B(2,1,6)        =    120.252027    -0.000039    -0.074184   120.177843
	   26 B(2,1,7)        =    120.457486    -0.000148    -0.271117   120.186370
	   27 B(2,3,4)        =    119.939936     0.000017     0.007910   119.947846
	   28 B(2,3,9)        =    119.824665    -0.000007     0.015237   119.839902
	   29 B(3,2,8)        =    119.762939     0.000013     0.070213   119.833152
	   30 B(3,4,5)        =    120.511512    -0.000000     0.010524   120.522036
	   31 B(3,4,10)       =    119.722375     0.000005     0.010347   119.732722
	   32 B(4,3,9)        =    120.230764    -0.000010    -0.022665   120.208099
	   33 B(4,5,6)        =    120.078826    -0.000006    -0.009753   120.069073
	   34 B(4,5,11)       =    120.216599    -0.000006    -0.032009   120.184591
	   35 B(5,4,10)       =    119.765633    -0.000005    -0.020401   119.745232
	   36 B(5,6,12)       =    120.171804    -0.000042    -0.071810   120.099994
	   37 B(6,1,7)        =    119.290486     0.000187     0.341463   119.631949
	   38 B(6,5,11)       =    119.703581     0.000012     0.039139   119.742720
	   39 B(7,13,17)      =    120.011547    -0.000037    -0.681458   119.330089
	   40 B(7,13,18)      =    121.353318     0.000099    -0.798081   120.555237
	   41 B(7,14,15)      =    122.400526     0.000035     0.085910   122.486436
	   42 B(7,14,16)      =    120.117122    -0.000010     0.091594   120.208715
	   43 B(13,7,14)      =    119.590108    -0.000013    -0.094334   119.495774
	   44 B(15,14,16)     =    117.186258    -0.000020    -0.061103   117.125155
	   45 B(17,13,18)     =    117.365405    -0.000109    -1.578878   115.786527
	   46 D(1,2,3,4)      =      0.038968     0.000001     0.029286     0.068253
	   47 D(1,2,3,9)      =   -179.179738     0.000000    -0.012223  -179.191961
	   48 D(1,6,5,4)      =      0.790501    -0.000002    -0.240091     0.550410
	   49 D(1,6,5,11)     =   -178.847793     0.000000     0.088662  -178.759131
	   50 *D(1,7,13,17)   =     29.999978    -0.000000    -0.000000    29.999978
	   51 D(1,7,13,18)    =   -163.209756    -0.000059   -11.127102  -174.336857
	   52 D(1,7,14,15)    =   -175.442178     0.000021     2.766076  -172.676101
	   53 D(1,7,14,16)    =     10.985384     0.000007     1.352121    12.337504
	   54 D(2,1,6,5)      =     -1.028396     0.000003     0.385144    -0.643252
	   55 D(2,1,6,12)     =   -178.388549     0.000007     0.736838  -177.651711
	   56 D(2,1,7,13)     =   -149.751738     0.000015     0.802351  -148.949386
	   57 D(2,1,7,14)     =     36.639709    -0.000016    -2.515440    34.124269
	   58 D(2,3,4,5)      =     -0.276702     0.000001     0.115168    -0.161533
	   59 D(2,3,4,10)     =    179.976048    -0.000001    -0.173653   179.802395
	   60 D(3,2,1,6)      =      0.613532    -0.000003    -0.279953     0.333579
	   61 D(3,2,1,7)      =   -179.399716     0.000001     0.448664  -178.951052
	   62 D(3,4,5,6)      =     -0.142974    -0.000000    -0.008670    -0.151644
	   63 D(3,4,5,11)     =    179.493448    -0.000002    -0.338629   179.154820
	   64 D(4,3,2,8)      =    177.316709     0.000000     0.063709   177.380418
	   65 D(4,5,6,12)     =    178.152259    -0.000005    -0.588459   177.563800
	   66 D(5,4,3,9)      =    178.938796     0.000001     0.157132   179.095929
	   67 D(5,6,1,7)      =    178.984698    -0.000000    -0.339348   178.645350
	   68 D(6,1,2,8)      =   -176.643410    -0.000003    -0.319659  -176.963069
	   69 D(6,1,7,13)     =     30.235141     0.000018     1.526932    31.762073
	   70 D(6,1,7,14)     =   -143.373412    -0.000012    -1.790859  -145.164271
	   71 D(6,5,4,10)     =    179.604168     0.000002     0.280265   179.884433
	   72 D(7,1,2,8)      =      3.343342     0.000001     0.408958     3.752300
	   73 D(7,1,6,12)     =      1.624544     0.000003     0.012346     1.636891
	   74 D(8,2,3,9)      =     -1.901996    -0.000000     0.022199    -1.879797
	   75 D(9,3,4,10)     =     -0.808454    -0.000001    -0.131689    -0.940143
	   76 D(10,4,5,11)    =     -0.759411    -0.000000    -0.049693    -0.809104
	   77 D(11,5,6,12)    =     -1.486034    -0.000002    -0.259706    -1.745740
	   78 D(13,7,14,15)   =     10.931632    -0.000012    -0.559304    10.372329
	   79 D(13,7,14,16)   =   -162.640806    -0.000026    -1.973259  -164.614066
	   80 D(14,7,13,17)   =   -156.349954     0.000029     3.295345  -153.054609
	   81 D(14,7,13,18)   =     10.440312    -0.000029    -7.831757     2.608555
	 ---------------------------------------------------------------------------
	Successfully symmetrized geometry.

  ==> Convergence Check <==

  Measures of convergence in internal coordinates in au.
  Criteria marked as inactive (o), active & met (*), and active & unmet ( ).
  ---------------------------------------------------------------------------------------------
   Step     Total Energy     Delta E     MAX Force     RMS Force      MAX Disp      RMS Disp   
  ---------------------------------------------------------------------------------------------
    Convergence Criteria    1.00e-06 *    3.00e-04 *             o    1.20e-03 *             o
  ---------------------------------------------------------------------------------------------
      2    -381.46849264   -1.87e-03      8.44e-03      1.39e-03 o    1.94e-01      2.93e-02 o  ~
  ---------------------------------------------------------------------------------------------

	Writing optimization data to binary file.
	Structure for next step:
	Cartesian Geometry (in Angstrom)
	    C    -0.0131886879  -0.0002705504  -0.1716826251
	    C     0.0393041308   1.2219381989   0.5277056179
	    C     0.0466847809   1.2205057932   1.9180357036
	    C     0.0035051252   0.0081846177   2.6155975867
	    C    -0.0506106697  -1.2070671815   1.9252330125
	    C    -0.0650998374  -1.2184504912   0.5341260049
	    C     0.0016833350  -0.0119281116  -1.6339423395
	    H     0.0297978985   2.1651744152  -0.0118958169
	    H     0.0738059494   2.1609960815   2.4588612068
	    H     0.0126762453   0.0110112896   3.7014039449
	    H    -0.0700994923  -2.1445794151   2.4715565142
	    H    -0.0671721009  -2.1621290343  -0.0026489018
	    N    -0.6354658271  -0.9772411472  -2.3086970169
	    N     0.6998294205   0.9025019885  -2.3016483527
	    H     0.6502011287   0.9962946672  -3.3101961879
	    H     1.3669578566   1.4892367672  -1.8156468287
	    H    -1.4602581765  -1.4044035062  -1.9037647347
	    H    -0.5560690790  -1.0394873815  -3.3323947874
			--------------------------
			 OPTKING Finished Execution 
			--------------------------

    Structure for next step:
    Molecular point group: c1
    Full point group: C1

    Geometry (in Angstrom), charge = 1, multiplicity = 1:

    C           -0.013188687916    -0.000270550364    -0.171682625112
    C            0.039304130810     1.221938198898     0.527705617891
    C            0.046684780946     1.220505793223     1.918035703575
    C            0.003505125164     0.008184617659     2.615597586736
    C           -0.050610669675    -1.207067181541     1.925233012488
    C           -0.065099837430    -1.218450491233     0.534126004895
    C            0.001683334984    -0.011928111578    -1.633942339497
    H            0.029797898488     2.165174415223    -0.011895816895
    H            0.073805949355     2.160996081514     2.458861206810
    H            0.012676245304     0.011011289607     3.701403944918
    H           -0.070099492291    -2.144579415143     2.471556514192
    H           -0.067172100905    -2.162129034317    -0.002648901822
    N           -0.635465827118    -0.977241147250    -2.308697016866
    N            0.699829420496     0.902501988467    -2.301648352676
    H            0.650201128713     0.996294667221    -3.310196187872
    H            1.366957856577     1.489236767250    -1.815646828715
    H           -1.460258176495    -1.404403506168    -1.903764734687
    H           -0.556069079009    -1.039487381468    -3.332394787363

gradient() will perform analytic gradient computation.

*** tstart() called on green.prib.upf.edu
*** at Sat Sep 29 20:32:22 2018

   => Loading Basis Set <=

    Name: 6-31G*
    Role: ORBITAL
    Keyword: BASIS
    atoms 1-7         entry C          line   111 file /shared/joao/test_parameterize/miniconda3/share/psi4/basis/6-31gs.gbs 
    atoms 8-12, 15-18 entry H          line    44 file /shared/joao/test_parameterize/miniconda3/share/psi4/basis/6-31gs.gbs 
    atoms 13-14       entry N          line   128 file /shared/joao/test_parameterize/miniconda3/share/psi4/basis/6-31gs.gbs 


         ---------------------------------------------------------
                                   SCF
            by Justin Turney, Rob Parrish, Andy Simmonett
                             and Daniel Smith
                              RKS Reference
                        4 Threads,   2861 MiB Core
         ---------------------------------------------------------

  ==> Geometry <==

    Molecular point group: c1
    Full point group: C1

    Geometry (in Angstrom), charge = 1, multiplicity = 1:

       Center              X                  Y                   Z               Mass       
[...]
	             0.0000206317        0.0000156422        0.0000393284
	            -0.0051596424        0.0038755730       -0.0006853364
	             0.0000156164       -0.0000047170       -0.0000177588
	             0.0000004074        0.0000007563        0.0000034186
	            -0.0000038774        0.0000061384        0.0000010171
	            -0.0000116318        0.0000000187       -0.0000029227
	            -0.0000010402       -0.0000150165       -0.0000136649
	             0.0051870275       -0.0052709301        0.0027260788
	             0.0000176723        0.0000305502       -0.0000091124
	            -0.0000086520       -0.0000046283       -0.0000021003
	            -0.0000070611        0.0000113328        0.0000160754
	            -0.0027380480        0.0031459373       -0.0020028515
	            -0.0000070680       -0.0000115113        0.0000090242

	---Fragment 1 Intrafragment Coordinates---
	 - Coordinate -           - BOHR/RAD -       - ANG/DEG -
	 R(1,2)           =         2.661926	       1.408631
	 R(1,6)           =         2.661258	       1.408277
	 R(1,7)           =         2.765595	       1.463490
	 R(2,3)           =         2.627832	       1.390589
	 R(2,8)           =         2.053233	       1.086524
	 R(3,4)           =         2.643333	       1.398791
	 R(3,9)           =         2.050600	       1.085131
	 R(4,5)           =         2.642809	       1.398515
	 R(4,10)          =         2.051684	       1.085705
	 R(5,6)           =         2.628582	       1.390986
	 R(5,11)          =         2.050640	       1.085152
	 R(6,12)          =         2.051860	       1.085798
	 R(7,13)          =         2.525464	       1.336418
	 R(7,14)          =         2.512511	       1.329563
	 R(13,17)         =         1.914002	       1.012846
	 R(13,18)         =         1.916628	       1.014236
	 R(14,15)         =         1.915135	       1.013446
	 R(14,16)         =         1.912496	       1.012049
	 B(1,2,3)         =         2.089117	     119.697585
	 B(1,2,8)         =         2.103107	     120.499178
	 B(1,6,5)         =         2.087560	     119.608362
	 B(1,6,12)        =         2.099819	     120.310777
	 B(1,7,13)        =         2.091219	     119.818011
	 B(1,7,14)        =         2.095741	     120.077130
	 B(2,1,6)         =         2.097050	     120.152119
	 B(2,1,7)         =         2.096031	     120.093719
	 B(2,3,4)         =         2.094258	     119.992123
	 B(2,3,9)         =         2.090822	     119.795266
	 B(3,2,8)         =         2.089776	     119.735353
	 B(3,4,5)         =         2.102607	     120.470491
	 B(3,4,10)        =         2.090083	     119.752914
	 B(4,3,9)         =         2.098041	     120.208870
	 B(4,5,6)         =         2.095743	     120.077231
	 B(4,5,11)        =         2.097732	     120.191187
	 B(5,4,10)        =         2.090496	     119.776580
	 B(5,6,12)        =         2.094645	     120.014321
	 B(6,1,7)         =         2.090104	     119.754116
	 B(6,5,11)        =         2.089658	     119.728578
	 B(7,13,17)       =         2.076121	     118.952976
	 B(7,13,18)       =         2.116101	     121.243661
	 B(7,14,15)       =         2.142649	     122.764759
	 B(7,14,16)       =         2.095034	     120.036631
	 B(13,7,14)       =         2.094020	     119.978523
	 B(15,14,16)      =         2.041963	     116.995870
	 B(17,13,18)      =         2.015029	     115.452669
	 D(1,2,3,4)       =         0.003738	       0.214167
	 D(1,2,3,9)       =        -3.125603	    -179.083836
	 D(1,6,5,4)       =         0.008221	       0.471043
	 D(1,6,5,11)      =        -3.122388	    -178.899635
	*D(1,7,13,17)     =         0.523598	      29.999978
	 D(1,7,13,18)     =        -3.045279	    -174.481625
	 D(1,7,14,15)     =        -3.044153	    -174.417111
	 D(1,7,14,16)     =         0.190502	      10.914986
	 D(2,1,6,5)       =        -0.008403	      -0.481449
	 D(2,1,6,12)      =        -3.098234	    -177.515720
	 D(2,1,7,13)      =        -2.594680	    -148.664233
	 D(2,1,7,14)      =         0.618235	      35.422242
	 D(2,3,4,5)       =        -0.003943	      -0.225935
	 D(2,3,4,10)      =         3.138424	     179.818462
	 D(3,2,1,6)       =         0.002413	       0.138265
	 D(3,2,1,7)       =        -3.137832	    -179.784504
	 D(3,4,5,6)       =        -0.002106	      -0.120659
	 D(3,4,5,11)      =         3.128452	     179.247082
	 D(4,3,2,8)       =         3.093306	     177.233379
	 D(4,5,6,12)      =         3.098208	     177.514225
	 D(5,4,3,9)       =         3.125346	     179.069136
	 D(5,6,1,7)       =         3.131846	     179.441582
	 D(6,1,2,8)       =        -3.086751	    -176.857785
	 D(6,1,7,13)      =         0.548255	      31.412689
	 D(6,1,7,14)      =        -2.522015	    -144.500836
	 D(6,5,4,10)      =         3.138712	     179.834933
	 D(7,1,2,8)       =         0.056190	       3.219446
	 D(7,1,6,12)      =         0.042016	       2.407312
	 D(8,2,3,9)       =        -0.036034	      -2.064624
	 D(9,3,4,10)      =        -0.015472	      -0.886467
	 D(10,4,5,11)     =        -0.013916	      -0.797325
	 D(11,5,6,12)     =        -0.032401	      -1.856453
	 D(13,7,14,15)    =         0.168877	       9.675963
	 D(13,7,14,16)    =        -2.879653	    -164.991940
	 D(14,7,13,17)    =        -2.689246	    -154.082427
	 D(14,7,13,18)    =         0.025062	       1.435970

	Current energy   :      -381.4692524808

	Energy change for the previous step:
		Projected    :        -0.0000047881
		Actual       :        -0.0000007073
	Energy ratio indicates iffy step: Trust radius decreased to 1.250e-01.


	Performing BFGS update.
	Previous computed or guess Hessian on step 1.
	Steps to be used in Hessian update: 5 4
	Taking RFO optimization step.
	Going to follow RFO solution 1.
	Rejecting RFO root 1 because normalization gives large value.
	Using RFO vector 2.
	Norm of target step-size    0.00264
	Projected energy change by RFO approximation:        -0.0000003098

	Back-transformation to cartesian coordinates...
	Could not converge backtransformation.
	Using first guess instead.

	Back-transformation to cartesian coordinates to adjust frozen coordinates...
	Successfully converged to displaced geometry.

	--- Internal Coordinate Step in ANG or DEG, aJ/ANG or AJ/DEG ---
	 ---------------------------------------------------------------------------
	   Coordinate                Previous        Force       Change         New 
	   ----------                --------       ------       ------       ------
	    1 R(1,2)          =      1.408631    -0.000142    -0.000035     1.408595
	    2 R(1,6)          =      1.408277     0.000010    -0.000015     1.408262
	    3 R(1,7)          =      1.463490     0.000607     0.000126     1.463616
	    4 R(2,3)          =      1.390589     0.000033     0.000012     1.390601
	    5 R(2,8)          =      1.086524    -0.000035    -0.000002     1.086522
	    6 R(3,4)          =      1.398791    -0.000017    -0.000004     1.398788
	    7 R(3,9)          =      1.085131    -0.000025    -0.000004     1.085127
	    8 R(4,5)          =      1.398515    -0.000262    -0.000034     1.398481
	    9 R(4,10)         =      1.085705    -0.000015    -0.000003     1.085701
	   10 R(5,6)          =      1.390986     0.000125     0.000019     1.391004
	   11 R(5,11)         =      1.085152     0.000009     0.000002     1.085154
	   12 R(6,12)         =      1.085798    -0.000158    -0.000024     1.085774
	   13 R(7,13)         =      1.336418    -0.000076    -0.000007     1.336411
	   14 R(7,14)         =      1.329563    -0.000214    -0.000050     1.329513
	   15 R(13,17)        =      1.012846    -0.000477    -0.000055     1.012791
	   16 R(13,18)        =      1.014236     0.000074     0.000027     1.014263
	   17 R(14,15)        =      1.013446    -0.000007     0.000001     1.013447
	   18 R(14,16)        =      1.012049    -0.000096    -0.000006     1.012043
	   19 B(1,2,3)        =    119.697585    -0.000000    -0.002503   119.695082
	   20 B(1,2,8)        =    120.499178     0.000001     0.007178   120.506356
	   21 B(1,6,5)        =    119.608362     0.000000    -0.000741   119.607621
	   22 B(1,6,12)       =    120.310777     0.000000     0.001572   120.312349
	   23 B(1,7,13)       =    119.818011    -0.000003    -0.011330   119.806681
	   24 B(1,7,14)       =    120.077130     0.000004     0.008716   120.085846
	   25 B(2,1,6)        =    120.152119    -0.000000     0.002339   120.154458
	   26 B(2,1,7)        =    120.093719     0.000003     0.005620   120.099340
	   27 B(2,3,4)        =    119.992123     0.000000     0.001416   119.993539
	   28 B(2,3,9)        =    119.795266    -0.000001    -0.003129   119.792137
	   29 B(3,2,8)        =    119.735353    -0.000001    -0.005052   119.730301
	   30 B(3,4,5)        =    120.470491     0.000000    -0.000162   120.470328
	   31 B(3,4,10)       =    119.752914     0.000000     0.002507   119.755421
	   32 B(4,3,9)        =    120.208870     0.000000     0.001662   120.210533
	   33 B(4,5,6)        =    120.077231    -0.000000    -0.000480   120.076751
	   34 B(4,5,11)       =    120.191187    -0.000000     0.000070   120.191257
	   35 B(5,4,10)       =    119.776580    -0.000001    -0.002344   119.774237
	   36 B(5,6,12)       =    120.014321    -0.000000    -0.001436   120.012885
	   37 B(6,1,7)        =    119.754116    -0.000003    -0.007954   119.746163
	   38 B(6,5,11)       =    119.728578     0.000000     0.000280   119.728858
	   39 B(7,13,17)      =    118.952976     0.000001     0.000413   118.953388
	   40 B(7,13,18)      =    121.243661    -0.000001    -0.001632   121.242028
	   41 B(7,14,15)      =    122.764759     0.000000     0.002388   122.767146
	   42 B(7,14,16)      =    120.036631     0.000001     0.000031   120.036662
	   43 B(13,7,14)      =    119.978523    -0.000002     0.002537   119.981060
	   44 B(15,14,16)     =    116.995870    -0.000001    -0.005225   116.990645
	   45 B(17,13,18)     =    115.452669     0.000000     0.005133   115.457802
	   46 D(1,2,3,4)      =      0.214167    -0.000000    -0.006614     0.207553
	   47 D(1,2,3,9)      =   -179.083836    -0.000000    -0.001838  -179.085674
	   48 D(1,6,5,4)      =      0.471043     0.000000     0.010676     0.481718
	   49 D(1,6,5,11)     =   -178.899635     0.000000     0.024159  -178.875476
	   50 *D(1,7,13,17)   =     29.999978    -0.000000     0.000000    29.999978
	   51 D(1,7,13,18)    =   -174.481625     0.000000     0.011704  -174.469921
	   52 D(1,7,14,15)    =   -174.417111    -0.000000    -0.039516  -174.456626
	   53 D(1,7,14,16)    =     10.914986     0.000000    -0.002552    10.912435
	   54 D(2,1,6,5)      =     -0.481449    -0.000000    -0.023966    -0.505415
	   55 D(2,1,6,12)     =   -177.515720    -0.000000    -0.010477  -177.526197
	   56 D(2,1,7,13)     =   -148.664233     0.000000     0.060118  -148.604116
	   57 D(2,1,7,14)     =     35.422242     0.000000     0.061258    35.483499
	   58 D(2,3,4,5)      =     -0.225935    -0.000000    -0.006671    -0.232606
	   59 D(2,3,4,10)     =    179.818462    -0.000000    -0.008204   179.810258
	   60 D(3,2,1,6)      =      0.138265     0.000000     0.021946     0.160211
	   61 D(3,2,1,7)      =   -179.784504     0.000000     0.017052  -179.767452
	   62 D(3,4,5,6)      =     -0.120659     0.000000     0.004612    -0.116047
	   63 D(3,4,5,11)     =    179.247082    -0.000000    -0.008933   179.238150
	   64 D(4,3,2,8)      =    177.233379    -0.000000    -0.014648   177.218731
	   65 D(4,5,6,12)     =    177.514225    -0.000000    -0.002681   177.511544
	   66 D(5,4,3,9)      =    179.069136    -0.000000    -0.011501   179.057635
	   67 D(5,6,1,7)      =    179.441582    -0.000000    -0.019079   179.422504
	   68 D(6,1,2,8)      =   -176.857785     0.000000     0.030417  -176.827368
	   69 D(6,1,7,13)     =     31.412689     0.000000     0.055236    31.467925
	   70 D(6,1,7,14)     =   -144.500836     0.000000     0.056376  -144.444460
	   71 D(6,5,4,10)     =    179.834933     0.000000     0.006147   179.841081
	   72 D(7,1,2,8)      =      3.219446     0.000000     0.025523     3.244969
	   73 D(7,1,6,12)     =      2.407312     0.000000    -0.005590     2.401722
	   74 D(8,2,3,9)      =     -2.064624    -0.000000    -0.009872    -2.074496
	   75 D(9,3,4,10)     =     -0.886467    -0.000000    -0.013034    -0.899501
	   76 D(10,4,5,11)    =     -0.797325    -0.000000    -0.007398    -0.804723
	   77 D(11,5,6,12)    =     -1.856453     0.000000     0.010802    -1.845650
	   78 D(13,7,14,15)   =      9.675963     0.000000    -0.037804     9.638159
	   79 D(13,7,14,16)   =   -164.991940     0.000000    -0.000840  -164.992780
	   80 D(14,7,13,17)   =   -154.082427    -0.000000    -0.000883  -154.083310
	   81 D(14,7,13,18)   =      1.435970    -0.000000     0.010821     1.446791
	 ---------------------------------------------------------------------------
	Successfully symmetrized geometry.

  ==> Convergence Check <==

  Measures of convergence in internal coordinates in au.
  Criteria marked as inactive (o), active & met (*), and active & unmet ( ).
  ---------------------------------------------------------------------------------------------
   Step     Total Energy     Delta E     MAX Force     RMS Force      MAX Disp      RMS Disp   
  ---------------------------------------------------------------------------------------------
    Convergence Criteria    1.00e-06 *    3.00e-04 *             o    1.20e-03 *             o
  ---------------------------------------------------------------------------------------------
      6    -381.46925248   -7.07e-07 *    7.37e-05 *    1.67e-05 o    1.07e-03 *    2.93e-04 o  ~
  ---------------------------------------------------------------------------------------------


  **** Optimization is complete! (in 6 steps) ****

  ==> Optimization Summary <==

  Measures of convergence in internal coordinates in au.
  --------------------------------------------------------------------------------------------------------------- ~
   Step         Total Energy             Delta E       MAX Force       RMS Force        MAX Disp        RMS Disp  ~
  --------------------------------------------------------------------------------------------------------------- ~
      1    -381.466620321698   -381.466620321698      0.00658177      0.00142160      0.26296393      0.04352722  ~
      2    -381.468492635841     -0.001872314143      0.00844450      0.00138656      0.19420456      0.02933771  ~
      3    -381.469007689817     -0.000515053976      0.01212874      0.00144575      0.02592317      0.00638143  ~
      4    -381.469246414599     -0.000238724782      0.00062113      0.00014336      0.00762597      0.00225015  ~
      5    -381.469251773569     -0.000005358970      0.00028197      0.00005764      0.00283295      0.00081571  ~
      6    -381.469252480823     -0.000000707254      0.00007368      0.00001672      0.00106915      0.00029319  ~
  --------------------------------------------------------------------------------------------------------------- ~

	Writing optimization data to binary file.
	Final energy is   -381.4692524808234
	Final (previous) structure:
	Cartesian Geometry (in Angstrom)
	    C    -0.0055858864   0.0016648946  -0.1752466888
	    C     0.0417244172   1.2223704221   0.5260950802
	    C     0.0414880939   1.2184241594   1.9166782479
	    C    -0.0010642982   0.0057031480   2.6124614591
	    C    -0.0483153282  -1.2081730948   1.9195583759
	    C    -0.0558442497  -1.2170591559   0.5286213230
	    C    -0.0009707424  -0.0044817366  -1.6387162160
	    H     0.0293123488   2.1672699196  -0.0101377856
	    H     0.0628471661   2.1583293504   2.4585552787
	    H     0.0018945393   0.0070451544   3.6981611116
	    H    -0.0688955392  -2.1467514971   2.4638028630
	    H    -0.0517632012  -2.1606762046  -0.0085252364
	    N    -0.6416228593  -0.9723038517  -2.3012103196
	    N     0.7055350506   0.9024193463  -2.3066375540
	    H     0.6734989232   0.9881159015  -3.3159452556
	    H     1.3675120148   1.4904176767  -1.8164451031
	    H    -1.4591392988  -1.3965903452  -1.8798965858
	    H    -0.5841291505  -1.0454370870  -3.3111709943
	Saving final (previous) structure.
	Removing binary optimization data file.
			--------------------------
			 OPTKING Finished Execution 
			--------------------------

    Final optimized geometry and variables:
    Molecular point group: c1
    Full point group: C1

    Geometry (in Angstrom), charge = 1, multiplicity = 1:

    C           -0.005585886427     0.001664894564    -0.175246688774
    C            0.041724417199     1.222370422085     0.526095080197
    C            0.041488093924     1.218424159432     1.916678247858
    C           -0.001064298161     0.005703148000     2.612461459071
    C           -0.048315328158    -1.208173094827     1.919558375859
    C           -0.055844249675    -1.217059155879     0.528621322957
    C           -0.000970742443    -0.004481736577    -1.638716215955
    H            0.029312348770     2.167269919570    -0.010137785603
    H            0.062847166058     2.158329350353     2.458555278651
    H            0.001894539273     0.007045154410     3.698161111637
    H           -0.068895539186    -2.146751497146     2.463802862961
    H           -0.051763201184    -2.160676204630    -0.008525236441
    N           -0.641622859345    -0.972303851684    -2.301210319638
    N            0.705535050650     0.902419346276    -2.306637553976
    H            0.673498923239     0.988115901461    -3.315945255583
    H            1.367512014820     1.490417676749    -1.816445103093
    H           -1.459139298814    -1.396590345171    -1.879896585835
    H           -0.584129150540    -1.045437086987    -3.311170994295

	Removing binary optimization data file.
	Cleaning optimization helper files.


Properties will be evaluated at   0.000000,   0.000000,   0.000000 [a0]
OEProp: No title given, name of density matrix used for the following properties is 'SCF density'
  Nuclear Dipole Moment: [e a0]
     X:     0.4670      Y:    -0.5986      Z:     0.3027

  Electronic Dipole Moment: [e a0]
     X:    -0.5203      Y:     0.6973      Z:    -2.5543

  Dipole Moment: [e a0]
     X:    -0.0533      Y:     0.0986      Z:    -2.2516     Total:     2.2544

  Dipole Moment: [D]
     X:    -0.1355      Y:     0.2507      Z:    -5.7231     Total:     5.7302

  Quadrupole Moment: [D A]
    XX:   -48.8266     YY:   -38.7453     ZZ:   -13.0657
    XY:     6.4657     XZ:     0.2035     YZ:    -0.3536

  Traceless Quadrupole Moment: [D A]
    XX:   -15.2807     YY:    -5.1994     ZZ:    20.4802
    XY:     6.4657     XZ:     0.2035     YZ:    -0.3536

  Mulliken Charges: (a.u.)
   Center  Symbol    Alpha    Beta     Spin     Total
       1     C     2.95811  2.95811  0.00000  0.08379
       2     C     3.08324  3.08324  0.00000 -0.16647
       3     C     3.06258  3.06258  0.00000 -0.12516
       4     C     3.05111  3.05111  0.00000 -0.10222
       5     C     3.06260  3.06260  0.00000 -0.12521
       6     C     3.07901  3.07901  0.00000 -0.15802
       7     C     2.72822  2.72822  0.00000  0.54356
       8     H     0.41455  0.41455  0.00000  0.17090
       9     H     0.40544  0.40544  0.00000  0.18913
      10     H     0.40367  0.40367  0.00000  0.19266
      11     H     0.40527  0.40527  0.00000  0.18946
      12     H     0.41146  0.41146  0.00000  0.17707
      13     N     3.86157  3.86157  0.00000 -0.72314
      14     N     3.85954  3.85954  0.00000 -0.71907
      15     H     0.30559  0.30559  0.00000  0.38883
      16     H     0.29952  0.29952  0.00000  0.40095
      17     H     0.30074  0.30074  0.00000  0.39853
      18     H     0.30778  0.30778  0.00000  0.38443

   Total alpha = 32.00000, Total beta = 32.00000, Total charge =  1.00000


    Psi4 stopped on: Saturday, 29 September 2018 08:34PM
    Psi4 wall time for execution: 0:02:52.21

*** Psi4 exiting successfully. Buy a developer a beer!
