
    -----------------------------------------------------------------------
          Psi4: An Open-Source Ab Initio Electronic Structure Package
                               Psi4 1.2.1 release

                         Git: Rev {HEAD} 406f4de 


    R. M. Parrish, L. A. Burns, D. G. A. Smith, A. C. Simmonett,
    A. E. DePrince III, E. G. Hohenstein, U. Bozkaya, A. Yu. Sokolov,
    R. Di Remigio, R. M. Richard, J. F. Gonthier, A. M. James,
    H. R. McAlexander, A. Kumar, M. Saitow, X. Wang, B. P. Pritchard,
    P. Verma, H. F. Schaefer III, K. Patkowski, R. A. King, E. F. Valeev,
    F. A. Evangelista, J. M. Turney, T. D. Crawford, and C. D. Sherrill,
    J. Chem. Theory Comput. 13(7) pp 3185--3197 (2017).
    (doi: 10.1021/acs.jctc.7b00174)


                         Additional Contributions by
    P. Kraus, H. Kruse, M. H. Lechner, M. C. Schieber, and R. A. Shaw

    -----------------------------------------------------------------------


    Psi4 started on: Saturday, 29 September 2018 04:27PM

    Process ID: 26640
    Host:       loro.prib.upf.edu
    PSIDATADIR: /shared/joao/test_parameterize/miniconda3/share/psi4
    Memory:     500.0 MiB
    Threads:    1
    
  ==> Input File <==

--------------------------------------------------------------------------
set_num_threads(1)
set_memory('5348 MB')

set { scf_mem_safety_factor 0.7 }

set { reference rks }
set { basis cc-pVDZ }

molecule MOL {
    0 1
    noreorient
    nocom
    symmetry c1
    O    1.014300  -0.002300   0.060500
    O    2.462400  -0.107500  -0.002400
    H    0.821200  -0.823600  -0.430600
    H    2.491927  -0.944900  -0.503126
}

set optking { frozen_dihedral = (" 3 1 2 4 ") }

energy, wfn = energy('B3LYP-D3', return_wfn=True)

import os
os.chdir(os.environ['HTMD_PSI4_WORKDIR'])

oeprop(wfn, 'DIPOLE', 'QUADRUPOLE', 'MULLIKEN_CHARGES')

with open('psi4out.xyz', 'w') as f:
    f.write('4 ' )
    f.write('%.12f\n' % energy)
    f.write(MOL.save_string_xyz())
--------------------------------------------------------------------------
  Threads set to 1 by Python driver.

  Memory set to   4.981 GiB by Python driver.

*** tstart() called on loro.prib.upf.edu
*** at Sat Sep 29 16:27:15 2018

   => Loading Basis Set <=

    Name: CC-PVDZ
    Role: ORBITAL
    Keyword: BASIS
    atoms 1-2 entry O          line   198 file /shared/joao/test_parameterize/miniconda3/share/psi4/basis/cc-pvdz.gbs 
    atoms 3-4 entry H          line    22 file /shared/joao/test_parameterize/miniconda3/share/psi4/basis/cc-pvdz.gbs 


         ---------------------------------------------------------
                                   SCF
            by Justin Turney, Rob Parrish, Andy Simmonett
                             and Daniel Smith
                              RKS Reference
                        1 Threads,   5100 MiB Core
         ---------------------------------------------------------

  ==> Geometry <==

    Molecular point group: c1
    Full point group: C1

    Geometry (in Angstrom), charge = 0, multiplicity = 1:

       Center              X                  Y                   Z               Mass       
    ------------   -----------------  -----------------  -----------------  -----------------
         O            1.014300000000    -0.002300000000     0.060500000000    15.994914619560
         O            2.462400000000    -0.107500000000    -0.002400000000    15.994914619560
         H            0.821200000000    -0.823600000000    -0.430600000000     1.007825032070
         H            2.491927000000    -0.944900000000    -0.503126000000     1.007825032070

  Running in c1 symmetry.

  Rotational constants: A =      9.29759  B =      0.13949  C =      0.13747 [cm^-1]
  Rotational constants: A = 278734.85130  B =   4181.95167  C =   4121.10375 [MHz]
  Nuclear repulsion =   36.891996959274529

  Charge       = 0
  Multiplicity = 1
  Electrons    = 18
  Nalpha       = 9
  Nbeta        = 9

  ==> Algorithm <==

  SCF Algorithm Type is DF.
  DIIS enabled.
  MOM disabled.
  Fractional occupation disabled.
  Guess Type is SAD.
  Energy threshold   = 1.00e-06
  Density threshold  = 1.00e-06
  Integral threshold = 0.00e+00

  ==> Primary Basis <==

  Basis Set: CC-PVDZ
    Blend: CC-PVDZ
    Number of shells: 18
    Number of basis function: 38
    Number of Cartesian functions: 40
    Spherical Harmonics?: true
    Max angular momentum: 2

  ==> DFT Potential <==

   => Composite Functional: B3LYP-D3ZERO <= 

    B3LYP-d3zero Hyb-GGA Exchange-Correlation Functional

    P. J. Stephens, F. J. Devlin, C. F. Chabalowski, and M. J. Frisch, J. Phys. Chem. 98, 11623 (1994)

    Deriv               =              1
    GGA                 =           TRUE
    Meta                =          FALSE

    Exchange Hybrid     =           TRUE
    MP2 Hybrid          =          FALSE

   => Exchange Functionals <=

    0.0800   Slater exchange
    0.7200         Becke 88

   => Exact (HF) Exchange <=

    0.2000               HF 

   => Correlation Functionals <=

    0.1900   Vosko, Wilk & Nusair (VWN5_RPA)
    0.8100   Lee, Yang & Parr

   => Molecular Quadrature <=

    Radial Scheme       =       TREUTLER
    Pruning Scheme      =           FLAT
    Nuclear Scheme      =       TREUTLER

    BS radius alpha     =              1
    Pruning alpha       =              1
    Radial Points       =             75
    Spherical Points    =            302
    Total Points        =          88268
    Total Blocks        =            718
    Max Points          =            256
    Max Functions       =             38

   => -D3ZERO: Empirical Dispersion <=

    Grimme's -D3 (zero-damping) Dispersion Correction
    Grimme S.; Antony J.; Ehrlich S.; Krieg H. (2010), J. Chem. Phys., 132: 154104

        S6 =   1.000000E+00
        S8 =   1.703000E+00
       SR6 =   1.261000E+00
       SR8 =   1.000000E+00
    ALPHA6 =   1.400000E+01

   => Loading Basis Set <=

    Name: (CC-PVDZ AUX)
    Role: JKFIT
    Keyword: DF_BASIS_SCF
    atoms 1-2 entry O          line   221 file /shared/joao/test_parameterize/miniconda3/share/psi4/basis/cc-pvdz-jkfit.gbs 
    atoms 3-4 entry H          line    51 file /shared/joao/test_parameterize/miniconda3/share/psi4/basis/cc-pvdz-jkfit.gbs 

  ==> Pre-Iterations <==

   -------------------------------------------------------
    Irrep   Nso     Nmo     Nalpha   Nbeta   Ndocc  Nsocc
   -------------------------------------------------------
     A         38      38       0       0       0       0
   -------------------------------------------------------
    Total      38      38       9       9       9       0
   -------------------------------------------------------

  ==> Integral Setup <==

  DFHelper Memory: AOs need 0.003 [GiB]; user supplied 3.486 [GiB]. Using in-core AOs.

  ==> MemDFJK: Density-Fitted J/K Matrices <==

    J tasked:                   Yes
    K tasked:                   Yes
    wK tasked:                   No
    OpenMP threads:               1
    Memory (MB):               3570
    Algorithm:                 Core
    Schwarz Cutoff:           1E-12
    Mask sparsity (%):       0.0000
    Fitting Condition:        1E-12

   => Auxiliary Basis Set <=

  Basis Set: (CC-PVDZ AUX)
    Blend: CC-PVDZ-JKFIT
    Number of shells: 66
    Number of basis function: 186
    Number of Cartesian functions: 212
    Spherical Harmonics?: true
    Max angular momentum: 3

  Minimum eigenvalue in the overlap matrix is 2.3480058870E-02.
  Using Symmetric Orthogonalization.

  SCF Guess: Superposition of Atomic Densities via on-the-fly atomic UHF.

  ==> Iterations <==

                           Total Energy        Delta E     RMS |[F,P]|

   @DF-RKS iter   0:  -151.59794397734771   -1.51598e+02   4.93496e-02 
   @DF-RKS iter   1:  -151.49731071510774    1.00633e-01   7.85438e-03 
   @DF-RKS iter   2:  -151.49513109501021    2.17962e-03   8.37639e-03 DIIS
   @DF-RKS iter   3:  -151.53301392682044   -3.78828e-02   9.10396e-04 DIIS
   @DF-RKS iter   4:  -151.53342291668633   -4.08990e-04   1.25501e-04 DIIS
   @DF-RKS iter   5:  -151.53342046248025    2.45421e-06   1.50656e-04 DIIS
   @DF-RKS iter   6:  -151.53343239883961   -1.19364e-05   7.21790e-06 DIIS
   @DF-RKS iter   7:  -151.53343244447984   -4.56402e-08   1.27855e-06 DIIS
   @DF-RKS iter   8:  -151.53343244590351   -1.42367e-09   1.82925e-07 DIIS

  ==> Post-Iterations <==

    Orbital Energies [Eh]
    ---------------------

    Doubly Occupied:                                                      

       1A    -19.192010     2A    -19.191982     3A     -1.122363  
       4A     -0.887508     5A     -0.562863     6A     -0.428579  
       7A     -0.394501     8A     -0.382292     9A     -0.246746  

    Virtual:                                                              

      10A      0.007169    11A      0.020302    12A      0.136260  
      13A      0.540825    14A      0.573754    15A      0.860349  
      16A      0.865010    17A      0.923668    18A      0.936774  
      19A      0.982393    20A      1.072825    21A      1.144481  
      22A      1.220315    23A      1.349727    24A      1.511878  
      25A      1.669033    26A      1.813007    27A      2.004607  
      28A      2.115025    29A      2.289742    30A      2.371849  
      31A      2.625687    32A      2.844592    33A      2.929366  
      34A      2.991884    35A      3.206429    36A      3.493252  
      37A      3.542768    38A      3.825182  

    Final Occupation by Irrep:
              A 
    DOCC [     9 ]

  Energy converged.

  @DF-RKS Final Energy:  -151.53343244590351

   => Energetics <=

    Nuclear Repulsion Energy =             36.8919969592745289
    One-Electron Energy =                -281.6482661351519710
    Two-Electron Energy =                 107.6863791290864185
    DFT Exchange-Correlation Energy =     -14.4633656991125115
    Empirical Dispersion Energy =          -0.0001767000000000
    VV10 Nonlocal Energy =                  0.0000000000000000
    Total Energy =                       -151.5334324459035145



Properties will be evaluated at   0.000000,   0.000000,   0.000000 [a0]

Properties computed using the SCF density matrix

  Nuclear Dipole Moment: [e a0]
     X:    58.8210      Y:    -5.0019      Z:    -0.8861

  Electronic Dipole Moment: [e a0]
     X:   -58.9250      Y:     3.9475      Z:     0.2556

  Dipole Moment: [e a0]
     X:    -0.1040      Y:    -1.0545      Z:    -0.6305     Total:     1.2330

  Dipole Moment: [D]
     X:    -0.2643      Y:    -2.6802      Z:    -1.6026     Total:     3.1339


*** tstop() called on loro.prib.upf.edu at Sat Sep 29 16:27:19 2018
Module time:
	user time   =       2.75 seconds =       0.05 minutes
	system time =       0.08 seconds =       0.00 minutes
	total time  =          4 seconds =       0.07 minutes
Total time:
	user time   =       2.75 seconds =       0.05 minutes
	system time =       0.08 seconds =       0.00 minutes
	total time  =          4 seconds =       0.07 minutes


Properties will be evaluated at   0.000000,   0.000000,   0.000000 [a0]
OEProp: No title given, name of density matrix used for the following properties is 'SCF density'
  Nuclear Dipole Moment: [e a0]
     X:    58.8210      Y:    -5.0019      Z:    -0.8861

  Electronic Dipole Moment: [e a0]
     X:   -58.9250      Y:     3.9475      Z:     0.2556

  Dipole Moment: [e a0]
     X:    -0.1040      Y:    -1.0545      Z:    -0.6305     Total:     1.2330

  Dipole Moment: [D]
     X:    -0.2643      Y:    -2.6802      Z:    -1.6026     Total:     3.1339

  Quadrupole Moment: [D A]
    XX:   -12.2289     YY:    -8.8833     ZZ:   -11.2813
    XY:    -4.4067     XZ:    -2.6513     YZ:     1.8815

  Traceless Quadrupole Moment: [D A]
    XX:    -1.4310     YY:     1.9145     ZZ:    -0.4835
    XY:    -4.4067     XZ:    -2.6513     YZ:     1.8815

  Mulliken Charges: (a.u.)
   Center  Symbol    Alpha    Beta     Spin     Total
       1     O     4.07798  4.07798  0.00000 -0.15596
       2     O     4.07796  4.07796  0.00000 -0.15592
       3     H     0.42202  0.42202  0.00000  0.15596
       4     H     0.42204  0.42204  0.00000  0.15593

   Total alpha =  9.00000, Total beta =  9.00000, Total charge =  0.00000


    Psi4 stopped on: Saturday, 29 September 2018 04:27PM
    Psi4 wall time for execution: 0:00:04.17

*** Psi4 exiting successfully. Buy a developer a beer!
