
    -----------------------------------------------------------------------
          Psi4: An Open-Source Ab Initio Electronic Structure Package
                               Psi4 1.2.1 release

                         Git: Rev {HEAD} 406f4de 


    R. M. Parrish, L. A. Burns, D. G. A. Smith, A. C. Simmonett,
    A. E. DePrince III, E. G. Hohenstein, U. Bozkaya, A. Yu. Sokolov,
    R. Di Remigio, R. M. Richard, J. F. Gonthier, A. M. James,
    H. R. McAlexander, A. Kumar, M. Saitow, X. Wang, B. P. Pritchard,
    P. Verma, H. F. Schaefer III, K. Patkowski, R. A. King, E. F. Valeev,
    F. A. Evangelista, J. M. Turney, T. D. Crawford, and C. D. Sherrill,
    J. Chem. Theory Comput. 13(7) pp 3185--3197 (2017).
    (doi: 10.1021/acs.jctc.7b00174)


                         Additional Contributions by
    P. Kraus, H. Kruse, M. H. Lechner, M. C. Schieber, and R. A. Shaw

    -----------------------------------------------------------------------


    Psi4 started on: Saturday, 29 September 2018 05:10PM

    Process ID: 13865
    Host:       loro.prib.upf.edu
    PSIDATADIR: /shared/joao/test_parameterize/miniconda3/share/psi4
    Memory:     500.0 MiB
    Threads:    1
    
  ==> Input File <==

--------------------------------------------------------------------------
set_num_threads(1)
set_memory('5348 MB')

set { scf_mem_safety_factor 0.7 }

set { reference rks }
set { basis cc-pVDZ }

molecule MOL {
    0 1
    noreorient
    nocom
    symmetry c1
    O    1.050400   0.042900  -0.048100
    C    2.474100   0.047400  -0.029000
    C    3.002600  -1.068900  -0.932000
    N    4.462700  -1.072400  -1.006800
    H    0.764139   0.922114   0.253643
    H    2.809900  -0.097900   1.003200
    H    2.817400   1.026800  -0.378600
    H    2.581000  -0.963300  -1.938400
    H    2.653800  -2.036400  -0.553400
    H    4.779000  -0.221000  -1.470000
    H    4.758600  -1.842500  -1.606500
}

set optking { frozen_dihedral = (" 3 2 1 5 ") }

energy, wfn = energy('B3LYP-D3', return_wfn=True)

import os
os.chdir(os.environ['HTMD_PSI4_WORKDIR'])

oeprop(wfn, 'DIPOLE', 'QUADRUPOLE', 'MULLIKEN_CHARGES')

with open('psi4out.xyz', 'w') as f:
    f.write('11 ' )
    f.write('%.12f\n' % energy)
    f.write(MOL.save_string_xyz())
--------------------------------------------------------------------------
  Threads set to 1 by Python driver.

  Memory set to   4.981 GiB by Python driver.

*** tstart() called on loro.prib.upf.edu
*** at Sat Sep 29 17:10:23 2018

   => Loading Basis Set <=

    Name: CC-PVDZ
    Role: ORBITAL
    Keyword: BASIS
    atoms 1    entry O          line   198 file /shared/joao/test_parameterize/miniconda3/share/psi4/basis/cc-pvdz.gbs 
    atoms 2-3  entry C          line   138 file /shared/joao/test_parameterize/miniconda3/share/psi4/basis/cc-pvdz.gbs 
    atoms 4    entry N          line   168 file /shared/joao/test_parameterize/miniconda3/share/psi4/basis/cc-pvdz.gbs 
    atoms 5-11 entry H          line    22 file /shared/joao/test_parameterize/miniconda3/share/psi4/basis/cc-pvdz.gbs 


         ---------------------------------------------------------
                                   SCF
            by Justin Turney, Rob Parrish, Andy Simmonett
                             and Daniel Smith
                              RKS Reference
                        1 Threads,   5100 MiB Core
         ---------------------------------------------------------

  ==> Geometry <==

    Molecular point group: c1
    Full point group: C1

    Geometry (in Angstrom), charge = 0, multiplicity = 1:

       Center              X                  Y                   Z               Mass       
    ------------   -----------------  -----------------  -----------------  -----------------
         O            1.050400000000     0.042900000000    -0.048100000000    15.994914619560
         C            2.474100000000     0.047400000000    -0.029000000000    12.000000000000
         C            3.002600000000    -1.068900000000    -0.932000000000    12.000000000000
         N            4.462700000000    -1.072400000000    -1.006800000000    14.003074004780
         H            0.764139000000     0.922114000000     0.253643000000     1.007825032070
         H            2.809900000000    -0.097900000000     1.003200000000     1.007825032070
         H            2.817400000000     1.026800000000    -0.378600000000     1.007825032070
         H            2.581000000000    -0.963300000000    -1.938400000000     1.007825032070
         H            2.653800000000    -2.036400000000    -0.553400000000     1.007825032070
         H            4.779000000000    -0.221000000000    -1.470000000000     1.007825032070
         H            4.758600000000    -1.842500000000    -1.606500000000     1.007825032070

  Running in c1 symmetry.

  Rotational constants: A =      0.72062  B =      0.02763  C =      0.02695 [cm^-1]
  Rotational constants: A =  21603.62090  B =    828.29823  C =    807.96793 [MHz]
  Nuclear repulsion =  130.428728164940964

  Charge       = 0
  Multiplicity = 1
  Electrons    = 34
  Nalpha       = 17
  Nbeta        = 17

  ==> Algorithm <==

  SCF Algorithm Type is DF.
  DIIS enabled.
  MOM disabled.
  Fractional occupation disabled.
  Guess Type is SAD.
  Energy threshold   = 1.00e-06
  Density threshold  = 1.00e-06
  Integral threshold = 0.00e+00

  ==> Primary Basis <==

  Basis Set: CC-PVDZ
    Blend: CC-PVDZ
    Number of shells: 45
    Number of basis function: 91
    Number of Cartesian functions: 95
    Spherical Harmonics?: true
    Max angular momentum: 2

  ==> DFT Potential <==

   => Composite Functional: B3LYP-D3ZERO <= 

    B3LYP-d3zero Hyb-GGA Exchange-Correlation Functional

    P. J. Stephens, F. J. Devlin, C. F. Chabalowski, and M. J. Frisch, J. Phys. Chem. 98, 11623 (1994)

    Deriv               =              1
    GGA                 =           TRUE
    Meta                =          FALSE

    Exchange Hybrid     =           TRUE
    MP2 Hybrid          =          FALSE

   => Exchange Functionals <=

    0.0800   Slater exchange
    0.7200         Becke 88

   => Exact (HF) Exchange <=

    0.2000               HF 

   => Correlation Functionals <=

    0.1900   Vosko, Wilk & Nusair (VWN5_RPA)
    0.8100   Lee, Yang & Parr

   => Molecular Quadrature <=

    Radial Scheme       =       TREUTLER
    Pruning Scheme      =           FLAT
    Nuclear Scheme      =       TREUTLER

    BS radius alpha     =              1
    Pruning alpha       =              1
    Radial Points       =             75
    Spherical Points    =            302
    Total Points        =         245085
    Total Blocks        =           1894
    Max Points          =            256
    Max Functions       =             91

   => -D3ZERO: Empirical Dispersion <=

    Grimme's -D3 (zero-damping) Dispersion Correction
    Grimme S.; Antony J.; Ehrlich S.; Krieg H. (2010), J. Chem. Phys., 132: 154104

        S6 =   1.000000E+00
        S8 =   1.703000E+00
       SR6 =   1.261000E+00
       SR8 =   1.000000E+00
    ALPHA6 =   1.400000E+01

   => Loading Basis Set <=

    Name: (CC-PVDZ AUX)
    Role: JKFIT
    Keyword: DF_BASIS_SCF
    atoms 1    entry O          line   221 file /shared/joao/test_parameterize/miniconda3/share/psi4/basis/cc-pvdz-jkfit.gbs 
    atoms 2-3  entry C          line   121 file /shared/joao/test_parameterize/miniconda3/share/psi4/basis/cc-pvdz-jkfit.gbs 
    atoms 4    entry N          line   171 file /shared/joao/test_parameterize/miniconda3/share/psi4/basis/cc-pvdz-jkfit.gbs 
    atoms 5-11 entry H          line    51 file /shared/joao/test_parameterize/miniconda3/share/psi4/basis/cc-pvdz-jkfit.gbs 

  ==> Pre-Iterations <==

   -------------------------------------------------------
    Irrep   Nso     Nmo     Nalpha   Nbeta   Ndocc  Nsocc
   -------------------------------------------------------
     A         91      91       0       0       0       0
   -------------------------------------------------------
    Total      91      91      17      17      17       0
   -------------------------------------------------------

  ==> Integral Setup <==

  DFHelper Memory: AOs need 0.036 [GiB]; user supplied 3.486 [GiB]. Using in-core AOs.

  ==> MemDFJK: Density-Fitted J/K Matrices <==

    J tasked:                   Yes
    K tasked:                   Yes
    wK tasked:                   No
    OpenMP threads:               1
    Memory (MB):               3570
    Algorithm:                 Core
    Schwarz Cutoff:           1E-12
    Mask sparsity (%):       0.4830
    Fitting Condition:        1E-12

   => Auxiliary Basis Set <=

  Basis Set: (CC-PVDZ AUX)
    Blend: CC-PVDZ-JKFIT
    Number of shells: 159
    Number of basis function: 441
    Number of Cartesian functions: 499
    Spherical Harmonics?: true
    Max angular momentum: 3

  Minimum eigenvalue in the overlap matrix is 4.5333538560E-03.
  Using Symmetric Orthogonalization.

  SCF Guess: Superposition of Atomic Densities via on-the-fly atomic UHF.

  ==> Iterations <==

                           Total Energy        Delta E     RMS |[F,P]|

   @DF-RKS iter   0:  -210.80872235417777   -2.10809e+02   3.66536e-02 
   @DF-RKS iter   1:  -210.21964579356381    5.89077e-01   6.94988e-03 
   @DF-RKS iter   2:  -210.08266495953001    1.36981e-01   9.45870e-03 DIIS
   @DF-RKS iter   3:  -210.38977529821466   -3.07110e-01   5.58718e-04 DIIS
   @DF-RKS iter   4:  -210.39042395440404   -6.48656e-04   3.51024e-04 DIIS
   @DF-RKS iter   5:  -210.39086104051023   -4.37086e-04   4.75084e-05 DIIS
   @DF-RKS iter   6:  -210.39086699798858   -5.95748e-06   2.29791e-05 DIIS
   @DF-RKS iter   7:  -210.39086892861982   -1.93063e-06   1.96492e-06 DIIS
   @DF-RKS iter   8:  -210.39086894229933   -1.36795e-08   6.06914e-07 DIIS

  ==> Post-Iterations <==

    Orbital Energies [Eh]
    ---------------------

    Doubly Occupied:                                                      

       1A    -19.127100     2A    -14.304720     3A    -10.223896  
       4A    -10.201332     5A     -1.009599     6A     -0.876593  
       7A     -0.711964     8A     -0.597235     9A     -0.507596  
      10A     -0.483449    11A     -0.457590    12A     -0.410454  
      13A     -0.389994    14A     -0.366061    15A     -0.321894  
      16A     -0.260918    17A     -0.230988  

    Virtual:                                                              

      18A      0.050402    19A      0.056833    20A      0.102350  
      21A      0.116027    22A      0.127385    23A      0.156302  
      24A      0.168598    25A      0.203782    26A      0.244091  
      27A      0.257819    28A      0.437374    29A      0.451924  
      30A      0.488350    31A      0.496766    32A      0.568961  
      33A      0.580144    34A      0.605647    35A      0.611855  
      36A      0.639954    37A      0.653257    38A      0.659320  
      39A      0.679813    40A      0.698740    41A      0.818018  
      42A      0.834027    43A      0.844778    44A      0.916033  
      45A      0.961391    46A      0.998768    47A      1.017494  
      48A      1.063038    49A      1.179772    50A      1.213407  
      51A      1.221298    52A      1.251862    53A      1.318337  
      54A      1.375634    55A      1.418892    56A      1.481562  
      57A      1.519892    58A      1.606953    59A      1.612460  
      60A      1.642049    61A      1.651972    62A      1.655881  
      63A      1.711797    64A      1.739568    65A      1.754792  
      66A      1.770830    67A      1.817884    68A      1.855823  
      69A      1.897810    70A      1.943833    71A      2.007103  
      72A      2.018436    73A      2.044904    74A      2.136945  
      75A      2.155418    76A      2.245390    77A      2.287065  
      78A      2.370060    79A      2.397465    80A      2.440255  
      81A      2.488395    82A      2.531890    83A      2.611999  
      84A      2.680246    85A      2.825710    86A      2.957516  
      87A      3.008383    88A      3.044663    89A      3.124710  
      90A      3.204569    91A      3.693606  

    Final Occupation by Irrep:
              A 
    DOCC [    17 ]

  Energy converged.

  @DF-RKS Final Energy:  -210.39086894229933

   => Energetics <=

    Nuclear Repulsion Energy =            130.4287281649409636
    One-Electron Energy =                -543.7942471042973693
    Two-Electron Energy =                 226.4661773503829920
    DFT Exchange-Correlation Energy =     -23.4866085933258866
    Empirical Dispersion Energy =          -0.0049187600000000
    VV10 Nonlocal Energy =                  0.0000000000000000
    Total Energy =                       -210.3908689422993348



Properties will be evaluated at   0.000000,   0.000000,   0.000000 [a0]

Properties computed using the SCF density matrix

  Nuclear Dipole Moment: [e a0]
     X:   177.0034      Y:   -31.1895      Z:   -33.8043

  Electronic Dipole Moment: [e a0]
     X:  -176.8225      Y:    31.6956      Z:    33.4712

  Dipole Moment: [e a0]
     X:     0.1808      Y:     0.5061      Z:    -0.3331     Total:     0.6322

  Dipole Moment: [D]
     X:     0.4596      Y:     1.2863      Z:    -0.8466     Total:     1.6070


*** tstop() called on loro.prib.upf.edu at Sat Sep 29 17:10:39 2018
Module time:
	user time   =      14.58 seconds =       0.24 minutes
	system time =       0.22 seconds =       0.00 minutes
	total time  =         16 seconds =       0.27 minutes
Total time:
	user time   =      14.58 seconds =       0.24 minutes
	system time =       0.22 seconds =       0.00 minutes
	total time  =         16 seconds =       0.27 minutes


Properties will be evaluated at   0.000000,   0.000000,   0.000000 [a0]
OEProp: No title given, name of density matrix used for the following properties is 'SCF density'
  Nuclear Dipole Moment: [e a0]
     X:   177.0034      Y:   -31.1895      Z:   -33.8043

  Electronic Dipole Moment: [e a0]
     X:  -176.8225      Y:    31.6956      Z:    33.4712

  Dipole Moment: [e a0]
     X:     0.1808      Y:     0.5061      Z:    -0.3331     Total:     0.6322

  Dipole Moment: [D]
     X:     0.4596      Y:     1.2863      Z:    -0.8466     Total:     1.6070

  Quadrupole Moment: [D A]
    XX:   -25.2780     YY:   -22.5859     ZZ:   -23.2132
    XY:     1.1054     XZ:    -6.3675     YZ:     1.9696

  Traceless Quadrupole Moment: [D A]
    XX:    -1.5857     YY:     1.1065     ZZ:     0.4792
    XY:     1.1054     XZ:    -6.3675     YZ:     1.9696

  Mulliken Charges: (a.u.)
   Center  Symbol    Alpha    Beta     Spin     Total
       1     O     4.13944  4.13944  0.00000 -0.27888
       2     C     2.92972  2.92972  0.00000  0.14056
       3     C     2.98433  2.98433  0.00000  0.03135
       4     N     3.59341  3.59341  0.00000 -0.18681
       5     H     0.42958  0.42958  0.00000  0.14083
       6     H     0.49689  0.49689  0.00000  0.00623
       7     H     0.50513  0.50513  0.00000 -0.01025
       8     H     0.50246  0.50246  0.00000 -0.00492
       9     H     0.48927  0.48927  0.00000  0.02146
      10     H     0.46633  0.46633  0.00000  0.06734
      11     H     0.46345  0.46345  0.00000  0.07309

   Total alpha = 17.00000, Total beta = 17.00000, Total charge =  0.00000


    Psi4 stopped on: Saturday, 29 September 2018 05:10PM
    Psi4 wall time for execution: 0:00:16.12

*** Psi4 exiting successfully. Buy a developer a beer!
