
    -----------------------------------------------------------------------
          Psi4: An Open-Source Ab Initio Electronic Structure Package
                               Psi4 1.2.1 release

                         Git: Rev {HEAD} 406f4de 


    R. M. Parrish, L. A. Burns, D. G. A. Smith, A. C. Simmonett,
    A. E. DePrince III, E. G. Hohenstein, U. Bozkaya, A. Yu. Sokolov,
    R. Di Remigio, R. M. Richard, J. F. Gonthier, A. M. James,
    H. R. McAlexander, A. Kumar, M. Saitow, X. Wang, B. P. Pritchard,
    P. Verma, H. F. Schaefer III, K. Patkowski, R. A. King, E. F. Valeev,
    F. A. Evangelista, J. M. Turney, T. D. Crawford, and C. D. Sherrill,
    J. Chem. Theory Comput. 13(7) pp 3185--3197 (2017).
    (doi: 10.1021/acs.jctc.7b00174)


                         Additional Contributions by
    P. Kraus, H. Kruse, M. H. Lechner, M. C. Schieber, and R. A. Shaw

    -----------------------------------------------------------------------


    Psi4 started on: Saturday, 29 September 2018 05:09PM

    Process ID: 13060
    Host:       loro.prib.upf.edu
    PSIDATADIR: /shared/joao/test_parameterize/miniconda3/share/psi4
    Memory:     500.0 MiB
    Threads:    1
    
  ==> Input File <==

--------------------------------------------------------------------------
set_num_threads(1)
set_memory('5348 MB')

set { scf_mem_safety_factor 0.7 }

set { reference rks }
set { basis cc-pVDZ }

molecule MOL {
    0 1
    noreorient
    nocom
    symmetry c1
    O    1.050400   0.042900  -0.048100
    C    2.474100   0.047400  -0.029000
    C    3.002600  -1.068900  -0.932000
    N    4.446405  -0.971883  -1.140597
    H    0.760400   0.728400   0.578000
    H    2.809900  -0.097900   1.003200
    H    2.817400   1.026800  -0.378600
    H    2.486520  -1.040118  -1.898733
    H    2.762446  -2.040283  -0.485013
    H    4.655480  -0.122398  -1.664185
    H    4.744838  -1.745802  -1.734095
}

set optking { frozen_dihedral = (" 1 2 3 4 ") }

energy, wfn = energy('B3LYP-D3', return_wfn=True)

import os
os.chdir(os.environ['HTMD_PSI4_WORKDIR'])

oeprop(wfn, 'DIPOLE', 'QUADRUPOLE', 'MULLIKEN_CHARGES')

with open('psi4out.xyz', 'w') as f:
    f.write('11 ' )
    f.write('%.12f\n' % energy)
    f.write(MOL.save_string_xyz())
--------------------------------------------------------------------------
  Threads set to 1 by Python driver.

  Memory set to   4.981 GiB by Python driver.

*** tstart() called on loro.prib.upf.edu
*** at Sat Sep 29 17:09:10 2018

   => Loading Basis Set <=

    Name: CC-PVDZ
    Role: ORBITAL
    Keyword: BASIS
    atoms 1    entry O          line   198 file /shared/joao/test_parameterize/miniconda3/share/psi4/basis/cc-pvdz.gbs 
    atoms 2-3  entry C          line   138 file /shared/joao/test_parameterize/miniconda3/share/psi4/basis/cc-pvdz.gbs 
    atoms 4    entry N          line   168 file /shared/joao/test_parameterize/miniconda3/share/psi4/basis/cc-pvdz.gbs 
    atoms 5-11 entry H          line    22 file /shared/joao/test_parameterize/miniconda3/share/psi4/basis/cc-pvdz.gbs 


         ---------------------------------------------------------
                                   SCF
            by Justin Turney, Rob Parrish, Andy Simmonett
                             and Daniel Smith
                              RKS Reference
                        1 Threads,   5100 MiB Core
         ---------------------------------------------------------

  ==> Geometry <==

    Molecular point group: c1
    Full point group: C1

    Geometry (in Angstrom), charge = 0, multiplicity = 1:

       Center              X                  Y                   Z               Mass       
    ------------   -----------------  -----------------  -----------------  -----------------
         O            1.050400000000     0.042900000000    -0.048100000000    15.994914619560
         C            2.474100000000     0.047400000000    -0.029000000000    12.000000000000
         C            3.002600000000    -1.068900000000    -0.932000000000    12.000000000000
         N            4.446405000000    -0.971883000000    -1.140597000000    14.003074004780
         H            0.760400000000     0.728400000000     0.578000000000     1.007825032070
         H            2.809900000000    -0.097900000000     1.003200000000     1.007825032070
         H            2.817400000000     1.026800000000    -0.378600000000     1.007825032070
         H            2.486520000000    -1.040118000000    -1.898733000000     1.007825032070
         H            2.762446000000    -2.040283000000    -0.485013000000     1.007825032070
         H            4.655480000000    -0.122398000000    -1.664185000000     1.007825032070
         H            4.744838000000    -1.745802000000    -1.734095000000     1.007825032070

  Running in c1 symmetry.

  Rotational constants: A =      0.70885  B =      0.02770  C =      0.02703 [cm^-1]
  Rotational constants: A =  21250.74017  B =    830.41762  C =    810.42781 [MHz]
  Nuclear repulsion =  130.438961561006039

  Charge       = 0
  Multiplicity = 1
  Electrons    = 34
  Nalpha       = 17
  Nbeta        = 17

  ==> Algorithm <==

  SCF Algorithm Type is DF.
  DIIS enabled.
  MOM disabled.
  Fractional occupation disabled.
  Guess Type is SAD.
  Energy threshold   = 1.00e-06
  Density threshold  = 1.00e-06
  Integral threshold = 0.00e+00

  ==> Primary Basis <==

  Basis Set: CC-PVDZ
    Blend: CC-PVDZ
    Number of shells: 45
    Number of basis function: 91
    Number of Cartesian functions: 95
    Spherical Harmonics?: true
    Max angular momentum: 2

  ==> DFT Potential <==

   => Composite Functional: B3LYP-D3ZERO <= 

    B3LYP-d3zero Hyb-GGA Exchange-Correlation Functional

    P. J. Stephens, F. J. Devlin, C. F. Chabalowski, and M. J. Frisch, J. Phys. Chem. 98, 11623 (1994)

    Deriv               =              1
    GGA                 =           TRUE
    Meta                =          FALSE

    Exchange Hybrid     =           TRUE
    MP2 Hybrid          =          FALSE

   => Exchange Functionals <=

    0.0800   Slater exchange
    0.7200         Becke 88

   => Exact (HF) Exchange <=

    0.2000               HF 

   => Correlation Functionals <=

    0.1900   Vosko, Wilk & Nusair (VWN5_RPA)
    0.8100   Lee, Yang & Parr

   => Molecular Quadrature <=

    Radial Scheme       =       TREUTLER
    Pruning Scheme      =           FLAT
    Nuclear Scheme      =       TREUTLER

    BS radius alpha     =              1
    Pruning alpha       =              1
    Radial Points       =             75
    Spherical Points    =            302
    Total Points        =         245092
    Total Blocks        =           1904
    Max Points          =            256
    Max Functions       =             91

   => -D3ZERO: Empirical Dispersion <=

    Grimme's -D3 (zero-damping) Dispersion Correction
    Grimme S.; Antony J.; Ehrlich S.; Krieg H. (2010), J. Chem. Phys., 132: 154104

        S6 =   1.000000E+00
        S8 =   1.703000E+00
       SR6 =   1.261000E+00
       SR8 =   1.000000E+00
    ALPHA6 =   1.400000E+01

   => Loading Basis Set <=

    Name: (CC-PVDZ AUX)
    Role: JKFIT
    Keyword: DF_BASIS_SCF
    atoms 1    entry O          line   221 file /shared/joao/test_parameterize/miniconda3/share/psi4/basis/cc-pvdz-jkfit.gbs 
    atoms 2-3  entry C          line   121 file /shared/joao/test_parameterize/miniconda3/share/psi4/basis/cc-pvdz-jkfit.gbs 
    atoms 4    entry N          line   171 file /shared/joao/test_parameterize/miniconda3/share/psi4/basis/cc-pvdz-jkfit.gbs 
    atoms 5-11 entry H          line    51 file /shared/joao/test_parameterize/miniconda3/share/psi4/basis/cc-pvdz-jkfit.gbs 

  ==> Pre-Iterations <==

   -------------------------------------------------------
    Irrep   Nso     Nmo     Nalpha   Nbeta   Ndocc  Nsocc
   -------------------------------------------------------
     A         91      91       0       0       0       0
   -------------------------------------------------------
    Total      91      91      17      17      17       0
   -------------------------------------------------------

  ==> Integral Setup <==

  DFHelper Memory: AOs need 0.036 [GiB]; user supplied 3.486 [GiB]. Using in-core AOs.

  ==> MemDFJK: Density-Fitted J/K Matrices <==

    J tasked:                   Yes
    K tasked:                   Yes
    wK tasked:                   No
    OpenMP threads:               1
    Memory (MB):               3570
    Algorithm:                 Core
    Schwarz Cutoff:           1E-12
    Mask sparsity (%):       0.4830
    Fitting Condition:        1E-12

   => Auxiliary Basis Set <=

  Basis Set: (CC-PVDZ AUX)
    Blend: CC-PVDZ-JKFIT
    Number of shells: 159
    Number of basis function: 441
    Number of Cartesian functions: 499
    Spherical Harmonics?: true
    Max angular momentum: 3

  Minimum eigenvalue in the overlap matrix is 4.4898621005E-03.
  Using Symmetric Orthogonalization.

  SCF Guess: Superposition of Atomic Densities via on-the-fly atomic UHF.

  ==> Iterations <==

                           Total Energy        Delta E     RMS |[F,P]|

   @DF-RKS iter   0:  -210.85413674768202   -2.10854e+02   3.68046e-02 
   @DF-RKS iter   1:  -210.21779478224877    6.36342e-01   6.98984e-03 
   @DF-RKS iter   2:  -210.08127521725348    1.36520e-01   9.51243e-03 DIIS
   @DF-RKS iter   3:  -210.38983708922100   -3.08562e-01   5.84847e-04 DIIS
   @DF-RKS iter   4:  -210.39055447554165   -7.17386e-04   3.63235e-04 DIIS
   @DF-RKS iter   5:  -210.39102007916452   -4.65604e-04   4.93193e-05 DIIS
   @DF-RKS iter   6:  -210.39102665886236   -6.57970e-06   2.28579e-05 DIIS
   @DF-RKS iter   7:  -210.39102857160924   -1.91275e-06   2.26887e-06 DIIS
   @DF-RKS iter   8:  -210.39102859038675   -1.87775e-08   6.78468e-07 DIIS

  ==> Post-Iterations <==

    Orbital Energies [Eh]
    ---------------------

    Doubly Occupied:                                                      

       1A    -19.127081     2A    -14.304557     3A    -10.223974  
       4A    -10.201693     5A     -1.009486     6A     -0.876494  
       7A     -0.712145     8A     -0.597014     9A     -0.506139  
      10A     -0.486935    11A     -0.451037    12A     -0.418147  
      13A     -0.388339    14A     -0.363187    15A     -0.323474  
      16A     -0.260698    17A     -0.230695  

    Virtual:                                                              

      18A      0.051618    19A      0.058770    20A      0.100253  
      21A      0.116662    22A      0.128170    23A      0.153527  
      24A      0.169241    25A      0.203828    26A      0.244215  
      27A      0.259262    28A      0.439156    29A      0.452954  
      30A      0.485804    31A      0.496730    32A      0.558886  
      33A      0.583271    34A      0.610317    35A      0.615439  
      36A      0.641068    37A      0.653272    38A      0.660004  
      39A      0.680986    40A      0.699713    41A      0.812778  
      42A      0.836550    43A      0.842933    44A      0.917054  
      45A      0.962631    46A      0.993059    47A      1.016656  
      48A      1.063215    49A      1.180870    50A      1.213953  
      51A      1.229204    52A      1.252329    53A      1.333728  
      54A      1.356006    55A      1.422164    56A      1.488243  
      57A      1.517620    58A      1.601884    59A      1.610495  
      60A      1.635027    61A      1.644030    62A      1.665774  
      63A      1.708585    64A      1.742513    65A      1.758476  
      66A      1.785919    67A      1.806550    68A      1.865212  
      69A      1.920148    70A      1.943768    71A      1.989154  
      72A      2.013355    73A      2.048100    74A      2.144031  
      75A      2.160893    76A      2.238911    77A      2.287480  
      78A      2.369916    79A      2.392482    80A      2.443483  
      81A      2.483776    82A      2.530461    83A      2.610158  
      84A      2.678486    85A      2.823460    86A      2.960452  
      87A      3.015780    88A      3.035052    89A      3.126015  
      90A      3.201534    91A      3.695441  

    Final Occupation by Irrep:
              A 
    DOCC [    17 ]

  Energy converged.

  @DF-RKS Final Energy:  -210.39102859038675

   => Energetics <=

    Nuclear Repulsion Energy =            130.4389615610060389
    One-Electron Energy =                -543.8155111117330307
    Two-Electron Energy =                 226.4771246745527264
    DFT Exchange-Correlation Energy =     -23.4867018242124885
    Empirical Dispersion Energy =          -0.0049018900000000
    VV10 Nonlocal Energy =                  0.0000000000000000
    Total Energy =                       -210.3910285903867532



Properties will be evaluated at   0.000000,   0.000000,   0.000000 [a0]

Properties computed using the SCF density matrix

  Nuclear Dipole Moment: [e a0]
     X:   176.5481      Y:   -30.0094      Z:   -35.3651

  Electronic Dipole Moment: [e a0]
     X:  -176.4121      Y:    30.3621      Z:    35.2400

  Dipole Moment: [e a0]
     X:     0.1359      Y:     0.3527      Z:    -0.1251     Total:     0.3982

  Dipole Moment: [D]
     X:     0.3455      Y:     0.8965      Z:    -0.3179     Total:     1.0120


*** tstop() called on loro.prib.upf.edu at Sat Sep 29 17:09:28 2018
Module time:
	user time   =      15.15 seconds =       0.25 minutes
	system time =       0.25 seconds =       0.00 minutes
	total time  =         18 seconds =       0.30 minutes
Total time:
	user time   =      15.15 seconds =       0.25 minutes
	system time =       0.25 seconds =       0.00 minutes
	total time  =         18 seconds =       0.30 minutes


Properties will be evaluated at   0.000000,   0.000000,   0.000000 [a0]
OEProp: No title given, name of density matrix used for the following properties is 'SCF density'
  Nuclear Dipole Moment: [e a0]
     X:   176.5481      Y:   -30.0094      Z:   -35.3651

  Electronic Dipole Moment: [e a0]
     X:  -176.4121      Y:    30.3621      Z:    35.2400

  Dipole Moment: [e a0]
     X:     0.1359      Y:     0.3527      Z:    -0.1251     Total:     0.3982

  Dipole Moment: [D]
     X:     0.3455      Y:     0.8965      Z:    -0.3179     Total:     1.0120

  Quadrupole Moment: [D A]
    XX:   -26.4716     YY:   -23.1499     ZZ:   -22.0709
    XY:     0.5044     XZ:    -5.8140     YZ:     2.1556

  Traceless Quadrupole Moment: [D A]
    XX:    -2.5741     YY:     0.7476     ZZ:     1.8265
    XY:     0.5044     XZ:    -5.8140     YZ:     2.1556

  Mulliken Charges: (a.u.)
   Center  Symbol    Alpha    Beta     Spin     Total
       1     O     4.13956  4.13956  0.00000 -0.27912
       2     C     2.92904  2.92904  0.00000  0.14193
       3     C     2.98458  2.98458  0.00000  0.03085
       4     N     3.59416  3.59416  0.00000 -0.18832
       5     H     0.42987  0.42987  0.00000  0.14026
       6     H     0.49790  0.49790  0.00000  0.00421
       7     H     0.50484  0.50484  0.00000 -0.00969
       8     H     0.50051  0.50051  0.00000 -0.00102
       9     H     0.49035  0.49035  0.00000  0.01931
      10     H     0.46572  0.46572  0.00000  0.06857
      11     H     0.46349  0.46349  0.00000  0.07303

   Total alpha = 17.00000, Total beta = 17.00000, Total charge =  0.00000


    Psi4 stopped on: Saturday, 29 September 2018 05:09PM
    Psi4 wall time for execution: 0:00:17.75

*** Psi4 exiting successfully. Buy a developer a beer!
