
    -----------------------------------------------------------------------
          Psi4: An Open-Source Ab Initio Electronic Structure Package
                               Psi4 1.2.1 release

                         Git: Rev {HEAD} 406f4de 


    R. M. Parrish, L. A. Burns, D. G. A. Smith, A. C. Simmonett,
    A. E. DePrince III, E. G. Hohenstein, U. Bozkaya, A. Yu. Sokolov,
    R. Di Remigio, R. M. Richard, J. F. Gonthier, A. M. James,
    H. R. McAlexander, A. Kumar, M. Saitow, X. Wang, B. P. Pritchard,
    P. Verma, H. F. Schaefer III, K. Patkowski, R. A. King, E. F. Valeev,
    F. A. Evangelista, J. M. Turney, T. D. Crawford, and C. D. Sherrill,
    J. Chem. Theory Comput. 13(7) pp 3185--3197 (2017).
    (doi: 10.1021/acs.jctc.7b00174)


                         Additional Contributions by
    P. Kraus, H. Kruse, M. H. Lechner, M. C. Schieber, and R. A. Shaw

    -----------------------------------------------------------------------


    Psi4 started on: Saturday, 29 September 2018 08:41PM

    Process ID: 3609
    Host:       rosa.prib.upf.edu
    PSIDATADIR: /shared/joao/test_parameterize/miniconda3/share/psi4
    Memory:     500.0 MiB
    Threads:    1
    
  ==> Input File <==

--------------------------------------------------------------------------
set_num_threads(4)
set_memory('3000 MB')

set { scf_mem_safety_factor 0.7 }

set { reference rks }
set { basis 6-31G* }

molecule MOL {
    1 1
    noreorient
    nocom
    symmetry c1
    C   -0.000000  -0.000000  -0.177864
    C    0.036678   1.219374   0.524165
    C    0.031765   1.213120   1.915444
    C    0.000000   0.000000   2.610107
    C   -0.031765  -1.213120   1.915444
    C   -0.036678  -1.219375   0.524165
    C   -0.000000   0.000000  -1.644734
    H    0.018170   2.164705  -0.010854
    H    0.042402   2.152895   2.457886
    H    0.000000   0.000000   3.695756
    H   -0.042402  -2.152895   2.457886
    H   -0.018170  -2.164705  -0.010853
    N   -0.606060  -0.980419  -2.308461
    N    0.606060   0.980419  -2.308460
    H    0.555834   1.075890  -3.315997
    H    1.201131   1.631576  -1.813316
    H   -1.201131  -1.631576  -1.813317
    H   -0.555834  -1.075890  -3.315997
}

set optking { frozen_dihedral = (" 2 1 7 13 ") }

set optking { dynamic_level = 1 
 geom_maxiter = 250
 print_trajectory_xyz_file = True }

energy, wfn = optimize('B3LYP-D3', return_wfn=True)

import os
os.chdir(os.environ['HTMD_PSI4_WORKDIR'])

oeprop(wfn, 'DIPOLE', 'QUADRUPOLE', 'MULLIKEN_CHARGES')

with open('psi4out.xyz', 'w') as f:
    f.write('18 ' )
    f.write('%.12f\n' % energy)
    f.write(MOL.save_string_xyz())
--------------------------------------------------------------------------
  Threads set to 4 by Python driver.

  Memory set to   2.794 GiB by Python driver.
gradient() will perform analytic gradient computation.

*** tstart() called on rosa.prib.upf.edu
*** at Sat Sep 29 20:41:05 2018

   => Loading Basis Set <=

    Name: 6-31G*
    Role: ORBITAL
    Keyword: BASIS
    atoms 1-7         entry C          line   111 file /shared/joao/test_parameterize/miniconda3/share/psi4/basis/6-31gs.gbs 
    atoms 8-12, 15-18 entry H          line    44 file /shared/joao/test_parameterize/miniconda3/share/psi4/basis/6-31gs.gbs 
    atoms 13-14       entry N          line   128 file /shared/joao/test_parameterize/miniconda3/share/psi4/basis/6-31gs.gbs 


         ---------------------------------------------------------
                                   SCF
            by Justin Turney, Rob Parrish, Andy Simmonett
                             and Daniel Smith
                              RKS Reference
                        4 Threads,   2861 MiB Core
         ---------------------------------------------------------

  ==> Geometry <==

    Molecular point group: c1
    Full point group: C1

    Geometry (in Angstrom), charge = 1, multiplicity = 1:

       Center              X                  Y                   Z               Mass       
    ------------   -----------------  -----------------  -----------------  -----------------
         C            0.000000000000     0.000000000000    -0.177864000000    12.000000000000
         C            0.036678000000     1.219374000000     0.524165000000    12.000000000000
         C            0.031765000000     1.213120000000     1.915444000000    12.000000000000
         C            0.000000000000     0.000000000000     2.610107000000    12.000000000000
         C           -0.031765000000    -1.213120000000     1.915444000000    12.000000000000
         C           -0.036678000000    -1.219375000000     0.524165000000    12.000000000000
         C            0.000000000000     0.000000000000    -1.644734000000    12.000000000000
         H            0.018170000000     2.164705000000    -0.010854000000     1.007825032070
         H            0.042402000000     2.152895000000     2.457886000000     1.007825032070
         H            0.000000000000     0.000000000000     3.695756000000     1.007825032070
         H           -0.042402000000    -2.152895000000     2.457886000000     1.007825032070
         H           -0.018170000000    -2.164705000000    -0.010853000000     1.007825032070
         N           -0.606060000000    -0.980419000000    -2.308461000000    14.003074004780
         N            0.606060000000     0.980419000000    -2.308460000000    14.003074004780
         H            0.555834000000     1.075890000000    -3.315997000000     1.007825032070
         H            1.201131000000     1.631576000000    -1.813316000000     1.007825032070
         H           -1.201131000000    -1.631576000000    -1.813317000000     1.007825032070
         H           -0.555834000000    -1.075890000000    -3.315997000000     1.007825032070

  Running in c1 symmetry.

  Rotational constants: A =      0.12190  B =      0.03994  C =      0.03107 [cm^-1]
  Rotational constants: A =   3654.48716  B =   1197.32740  C =    931.33210 [MHz]
  Nuclear repulsion =  417.130768307017775

  Charge       = 1
  Multiplicity = 1
  Electrons    = 64
  Nalpha       = 32
  Nbeta        = 32

  ==> Algorithm <==

  SCF Algorithm Type is DF.
  DIIS enabled.
  MOM disabled.
  Fractional occupation disabled.
  Guess Type is SAD.
  Energy threshold   = 1.00e-08
  Density threshold  = 1.00e-08
  Integral threshold = 0.00e+00

  ==> Primary Basis <==

  Basis Set: 6-31G*
    Blend: 6-31G*
    Number of shells: 72
    Number of basis function: 153
    Number of Cartesian functions: 153
    Spherical Harmonics?: false
    Max angular momentum: 2

  ==> DFT Potential <==

   => Composite Functional: B3LYP-D3ZERO <= 

    B3LYP-d3zero Hyb-GGA Exchange-Correlation Functional

    P. J. Stephens, F. J. Devlin, C. F. Chabalowski, and M. J. Frisch, J. Phys. Chem. 98, 11623 (1994)

    Deriv               =              1
    GGA                 =           TRUE
    Meta                =          FALSE

    Exchange Hybrid     =           TRUE
    MP2 Hybrid          =          FALSE

   => Exchange Functionals <=

    0.0800   Slater exchange
    0.7200         Becke 88

   => Exact (HF) Exchange <=

    0.2000               HF 

   => Correlation Functionals <=

    0.1900   Vosko, Wilk & Nusair (VWN5_RPA)
    0.8100   Lee, Yang & Parr

   => Molecular Quadrature <=

    Radial Scheme       =       TREUTLER
    Pruning Scheme      =           FLAT
    Nuclear Scheme      =       TREUTLER

    BS radius alpha     =              1
    Pruning alpha       =              1
    Radial Points       =             75
    Spherical Points    =            302
    Total Points        =         396846
    Total Blocks        =           3017
    Max Points          =            256
    Max Functions       =            149

   => -D3ZERO: Empirical Dispersion <=

    Grimme's -D3 (zero-damping) Dispersion Correction
    Grimme S.; Antony J.; Ehrlich S.; Krieg H. (2010), J. Chem. Phys., 132: 154104

        S6 =   1.000000E+00
        S8 =   1.703000E+00
       SR6 =   1.261000E+00
       SR8 =   1.000000E+00
    ALPHA6 =   1.400000E+01

   => Loading Basis Set <=

    Name: (6-31G* AUX)
    Role: JKFIT
    Keyword: DF_BASIS_SCF
    atoms 1-7         entry C          line   121 file /shared/joao/test_parameterize/miniconda3/share/psi4/basis/cc-pvdz-jkfit.gbs 
    atoms 8-12, 15-18 entry H          line    51 file /shared/joao/test_parameterize/miniconda3/share/psi4/basis/cc-pvdz-jkfit.gbs 
    atoms 13-14       entry N          line   171 file /shared/joao/test_parameterize/miniconda3/share/psi4/basis/cc-pvdz-jkfit.gbs 

  ==> Pre-Iterations <==

   -------------------------------------------------------
    Irrep   Nso     Nmo     Nalpha   Nbeta   Ndocc  Nsocc
   -------------------------------------------------------
     A        153     153       0       0       0       0
   -------------------------------------------------------
    Total     153     153      32      32      32       0
   -------------------------------------------------------

  ==> Integral Setup <==

  ==> DiskDFJK: Density-Fitted J/K Matrices <==

    J tasked:                  Yes
    K tasked:                  Yes
    wK tasked:                  No
    OpenMP threads:              4
    Integrals threads:           4
    Memory (MB):              2002
    Algorithm:                Core
    Integral Cache:           NONE
    Schwarz Cutoff:          1E-12
    Fitting Condition:       1E-12

   => Auxiliary Basis Set <=

  Basis Set: (6-31G* AUX)
    Blend: CC-PVDZ-JKFIT
    Number of shells: 297
    Number of basis function: 954
    Number of Cartesian functions: 954
    Spherical Harmonics?: false
    Max angular momentum: 3

  Minimum eigenvalue in the overlap matrix is 4.8626748606E-04.
  Using Symmetric Orthogonalization.

  SCF Guess: Superposition of Atomic Densities via on-the-fly atomic UHF.

  ==> Iterations <==

                           Total Energy        Delta E     RMS |[F,P]|

   @DF-RKS iter   0:  -379.59671292207497   -3.79597e+02   6.81209e-02 
   @DF-RKS iter   1:  -381.03856701497546   -1.44185e+00   1.18723e-02 
   @DF-RKS iter   2:  -380.95355539120123    8.50116e-02   1.32091e-02 DIIS
   @DF-RKS iter   3:  -381.46235660528737   -5.08801e-01   1.69949e-03 DIIS
   @DF-RKS iter   4:  -381.46838015420940   -6.02355e-03   8.20126e-04 DIIS
   @DF-RKS iter   5:  -381.47003402902209   -1.65387e-03   2.43161e-04 DIIS
   @DF-RKS iter   6:  -381.47017542155379   -1.41393e-04   8.46062e-05 DIIS
   @DF-RKS iter   7:  -381.47019436034617   -1.89388e-05   1.81755e-05 DIIS
   @DF-RKS iter   8:  -381.47019524942220   -8.89076e-07   6.72121e-06 DIIS
   @DF-RKS iter   9:  -381.47019539369415   -1.44272e-07   2.07084e-06 DIIS
   @DF-RKS iter  10:  -381.47019540667293   -1.29788e-08   6.07894e-07 DIIS
   @DF-RKS iter  11:  -381.47019540767826   -1.00533e-09   1.03300e-07 DIIS
   @DF-RKS iter  12:  -381.47019540769168   -1.34150e-11   8.27969e-08 DIIS
   @DF-RKS iter  13:  -381.47019540771481   -2.31353e-11   1.48179e-08 DIIS
   @DF-RKS iter  14:  -381.47019540771521   -3.97904e-13   4.59321e-09 DIIS

  ==> Post-Iterations <==

    Orbital Energies [Eh]
    ---------------------

    Doubly Occupied:                                                      

       1A    -14.567220     2A    -14.567213     3A    -10.496748  
       4A    -10.373969     5A    -10.357473     6A    -10.357463  
       7A    -10.344227     8A    -10.341515     9A    -10.341462  
      10A     -1.183432    11A     -1.091676    12A     -1.015172  
      13A     -0.927157    14A     -0.903420    15A     -0.845848  
      16A     -0.785596    17A     -0.775066    18A     -0.740206  
      19A     -0.734149    20A     -0.688901    21A     -0.669054  
      22A     -0.627355    23A     -0.616115    24A     -0.589968  
      25A     -0.579672    26A     -0.574409    27A     -0.518463  
      28A     -0.506832    29A     -0.499372    30A     -0.472373  
      31A     -0.412377    32A     -0.406718  

    Virtual:                                                              

      33A     -0.219012    34A     -0.158357    35A     -0.123656  
      36A     -0.108209    37A     -0.069015    38A     -0.062244  
      39A     -0.037197    40A     -0.036598    41A      0.008080  
      42A      0.021259    43A      0.022472    44A      0.058351  
      45A      0.062031    46A      0.085242    47A      0.124110  
      48A      0.142997    49A      0.156061    50A      0.164717  
      51A      0.201814    52A      0.244495    53A      0.299541  
      54A      0.349860    55A      0.354165    56A      0.379503  
      57A      0.388776    58A      0.396907    59A      0.420977  
      60A      0.425063    61A      0.440602    62A      0.448438  
      63A      0.453556    64A      0.470681    65A      0.471908  
      66A      0.474367    67A      0.484586    68A      0.509104  
      69A      0.523616    70A      0.539060    71A      0.540522  
      72A      0.595815    73A      0.606347    74A      0.654149  
      75A      0.662637    76A      0.683339    77A      0.689867  
      78A      0.703737    79A      0.716946    80A      0.724638  
      81A      0.747490    82A      0.774395    83A      0.784975  
      84A      0.801625    85A      0.816024    86A      0.832626  
      87A      0.850168    88A      0.939686    89A      0.958858  
      90A      1.004338    91A      1.004485    92A      1.028680  
      93A      1.073189    94A      1.074104    95A      1.136527  
      96A      1.173282    97A      1.209474    98A      1.274359  
      99A      1.281056   100A      1.307359   101A      1.322263  
     102A      1.342580   103A      1.360968   104A      1.380613  
     105A      1.444270   106A      1.453972   107A      1.476072  
     108A      1.606823   109A      1.621057   110A      1.652236  
     111A      1.666685   112A      1.737002   113A      1.754119  
     114A      1.794434   115A      1.822879   116A      1.857923  
     117A      1.904611   118A      1.906680   119A      1.952442  
     120A      1.974627   121A      1.995801   122A      2.017877  
     123A      2.043801   124A      2.064056   125A      2.124582  
     126A      2.125937   127A      2.150363   128A      2.213564  
     129A      2.241292   130A      2.269213   131A      2.341142  
     132A      2.363802   133A      2.451602   134A      2.454650  
     135A      2.488381   136A      2.505333   137A      2.544601  
     138A      2.588577   139A      2.600818   140A      2.632535  
     141A      2.739417   142A      2.884179   143A      2.992429  
     144A      3.259111   145A      3.639235   146A      3.666087  
     147A      3.906477   148A      3.945877   149A      3.961788  
     150A      4.047982   151A      4.171053   152A      4.257285  
     153A      4.546076  

    Final Occupation by Irrep:
              A 
    DOCC [    32 ]

  Energy converged.

  @DF-RKS Final Energy:  -381.47019540771521

   => Energetics <=

    Nuclear Repulsion Energy =            417.1307683070177745
    One-Electron Energy =               -1329.4322602535553415
    Two-Electron Energy =                 575.2501809117306948
    DFT Exchange-Correlation Energy =     -44.4070681429083010
    Empirical Dispersion Energy =          -0.0118162300000000
    VV10 Nonlocal Energy =                  0.0000000000000000
    Total Energy =                       -381.4701954077152095



Properties will be evaluated at   0.000000,   0.000000,   0.000000 [a0]

Properties computed using the SCF density matrix

  Nuclear Dipole Moment: [e a0]
     X:    -0.0000      Y:    -0.0000      Z:     0.0248

  Electronic Dipole Moment: [e a0]
     X:     0.0000      Y:     0.0000      Z:    -2.2442

  Dipole Moment: [e a0]
     X:     0.0000      Y:     0.0000      Z:    -2.2195     Total:     2.2195

  Dipole Moment: [D]
     X:     0.0000      Y:     0.0000      Z:    -5.6413     Total:     5.6413


*** tstop() called on rosa.prib.upf.edu at Sat Sep 29 20:41:34 2018
Module time:
	user time   =     101.77 seconds =       1.70 minutes
	system time =       1.55 seconds =       0.03 minutes
	total time  =         29 seconds =       0.48 minutes
Total time:
	user time   =     101.77 seconds =       1.70 minutes
	system time =       1.55 seconds =       0.03 minutes
	total time  =         29 seconds =       0.48 minutes

*** tstart() called on rosa.prib.upf.edu
*** at Sat Sep 29 20:41:34 2018


         ------------------------------------------------------------
                                   SCF GRAD                          
                          Rob Parrish, Justin Turney,                
                       Andy Simmonett, and Alex Sokolov              
         ------------------------------------------------------------

  ==> Geometry <==

    Molecular point group: c1
    Full point group: C1

    Geometry (in Angstrom), charge = 1, multiplicity = 1:

       Center              X                  Y                   Z               Mass       
    ------------   -----------------  -----------------  -----------------  -----------------
         C            0.000000000000     0.000000000000    -0.177864000000    12.000000000000
         C            0.036678000000     1.219374000000     0.524165000000    12.000000000000
         C            0.031765000000     1.213120000000     1.915444000000    12.000000000000
         C            0.000000000000     0.000000000000     2.610107000000    12.000000000000
         C           -0.031765000000    -1.213120000000     1.915444000000    12.000000000000
         C           -0.036678000000    -1.219375000000     0.524165000000    12.000000000000
         C            0.000000000000     0.000000000000    -1.644734000000    12.000000000000
         H            0.018170000000     2.164705000000    -0.010854000000     1.007825032070
         H            0.042402000000     2.152895000000     2.457886000000     1.007825032070
         H            0.000000000000     0.000000000000     3.695756000000     1.007825032070
         H           -0.042402000000    -2.152895000000     2.457886000000     1.007825032070
         H           -0.018170000000    -2.164705000000    -0.010853000000     1.007825032070
         N           -0.606060000000    -0.980419000000    -2.308461000000    14.003074004780
         N            0.606060000000     0.980419000000    -2.308460000000    14.003074004780
         H            0.555834000000     1.075890000000    -3.315997000000     1.007825032070
         H            1.201131000000     1.631576000000    -1.813316000000     1.007825032070
         H           -1.201131000000    -1.631576000000    -1.813317000000     1.007825032070
         H           -0.555834000000    -1.075890000000    -3.315997000000     1.007825032070

  Nuclear repulsion =  417.130768307017775

  ==> Basis Set <==

  Basis Set: 6-31G*
    Blend: 6-31G*
    Number of shells: 72
    Number of basis function: 153
    Number of Cartesian functions: 153
    Spherical Harmonics?: false
    Max angular momentum: 2

  ==> DFJKGrad: Density-Fitted SCF Gradients <==

    Gradient:                    1
    J tasked:                  Yes
    K tasked:                  Yes
    wK tasked:                  No
    OpenMP threads:              4
    Integrals threads:           4
    Memory (MB):              2002
    Schwarz Cutoff:          0E+00
    Fitting Condition:       1E-12

   => Auxiliary Basis Set <=

  Basis Set: (6-31G* AUX)
    Blend: CC-PVDZ-JKFIT
    Number of shells: 297
    Number of basis function: 954
    Number of Cartesian functions: 954
    Spherical Harmonics?: false
    Max angular momentum: 3

  ==> DFT Potential <==

   => Composite Functional: B3LYP-D3ZERO <= 

    B3LYP-d3zero Hyb-GGA Exchange-Correlation Functional

    P. J. Stephens, F. J. Devlin, C. F. Chabalowski, and M. J. Frisch, J. Phys. Chem. 98, 11623 (1994)

    Deriv               =              1
    GGA                 =           TRUE
    Meta                =          FALSE

    Exchange Hybrid     =           TRUE
    MP2 Hybrid          =          FALSE

   => Exchange Functionals <=

    0.0800   Slater exchange
    0.7200         Becke 88

   => Exact (HF) Exchange <=

    0.2000               HF 

   => Correlation Functionals <=

    0.1900   Vosko, Wilk & Nusair (VWN5_RPA)
    0.8100   Lee, Yang & Parr

   => Molecular Quadrature <=

    Radial Scheme       =       TREUTLER
    Pruning Scheme      =           FLAT
    Nuclear Scheme      =       TREUTLER

    BS radius alpha     =              1
    Pruning alpha       =              1
    Radial Points       =             75
    Spherical Points    =            302
    Total Points        =         396846
    Total Blocks        =           3017
    Max Points          =            256
    Max Functions       =            149


  -Total Gradient:
     Atom            X                  Y                   Z
    ------   -----------------  -----------------  -----------------
       1        0.000000050997     0.000000667116     0.001128818330
       2        0.000625074760     0.000681193314    -0.000769403646
       3       -0.000158595450    -0.000419869789     0.000313471532
       4       -0.000000000640    -0.000000073434     0.000068672154
       5        0.000158592050     0.000420109589     0.000313620544
       6       -0.000625070424    -0.000682662741    -0.000769783711
       7        0.000000134632     0.000000188571    -0.001376375205
       8        0.000469562248    -0.000204720812    -0.000742432901
       9       -0.000048284921     0.000022841581    -0.000023955169
      10        0.000000001620     0.000000005268     0.000011364287
      11        0.000048283976    -0.000022856026    -0.000024005996
      12       -0.000469567810     0.000205466563    -0.000741955500
      13        0.000591710221    -0.000189231200     0.000782050977
      14       -0.000591814957     0.000188909278     0.000783317232
      15       -0.000071658378     0.000107356767    -0.000198444777
      16       -0.000192246954     0.000261474308     0.000712064037
      17        0.000192256524    -0.000261463251     0.000712069325
      18        0.000071572498    -0.000107335120    -0.000197578236


*** tstop() called on rosa.prib.upf.edu at Sat Sep 29 20:41:42 2018
Module time:
	user time   =      29.03 seconds =       0.48 minutes
	system time =       0.80 seconds =       0.01 minutes
	total time  =          8 seconds =       0.13 minutes
Total time:
	user time   =     130.86 seconds =       2.18 minutes
	system time =       2.35 seconds =       0.04 minutes
	total time  =         37 seconds =       0.62 minutes

			-----------------------------------------
			 OPTKING 2.0: for geometry optimizations 
			  - R.A. King,  Bethel University        
			-----------------------------------------
	At level 1: Red. Int., RFO, no backsteps, dynamic trust

	Internal coordinates to be generated automatically.
	Detected frag 1 with atoms:  1 2 3 4 5 6 7 8 9 10 11 12 13 14 15 16 17 18
	---Fragment 1 Bond Connectivity---
	 1 : 2 6 7
	 2 : 1 3 8
	 3 : 2 4 9
	 4 : 3 5 10
	 5 : 4 6 11
	 6 : 1 5 12
	 7 : 1 13 14
	 8 : 2
	 9 : 3
	 10 : 4
	 11 : 5
	 12 : 6
	 13 : 7 17 18
	 14 : 7 15 16
	 15 : 14
	 16 : 14
	 17 : 13
	 18 : 13

	Assuming in current code that numbering for constraints corresponds to unified fragment.
	Frozen dihedral atom list: 
	     2     1     7    13
	---Fragment 1 Geometry and Gradient---
	 C           0.0000000000        0.0000000000       -0.3361142489
	 C           0.0693113751        2.3042829136        0.9905282984
	 C           0.0600271506        2.2924645663        3.6196645829
	 C           0.0000000000        0.0000000000        4.9323874075
	 C          -0.0600271506       -2.2924645663        3.6196645829
	 C          -0.0693113751       -2.3042848033        0.9905282984
	 C           0.0000000000        0.0000000000       -3.1080968214
	 H           0.0343363238        4.0906996085       -0.0205110874
	 H           0.0801281675        4.0683819429        4.6447314059
	 H           0.0000000000        0.0000000000        6.9839666940
	 H          -0.0801281675       -4.0683819429        4.6447314059
	 H          -0.0343363238       -4.0906996085       -0.0205091977
	 N          -1.1452874201       -1.8527234055       -4.3623590784
	 N           1.1452874201        1.8527234055       -4.3623571887
	 H           1.0503740353        2.0331374491       -6.2663261875
	 H           2.2698086397        3.0832318050       -3.4266706324
	 H          -2.2698086397       -3.0832318050       -3.4266725221
	 H          -1.0503740353       -2.0331374491       -6.2663261875
	             0.0000000510        0.0000006671        0.0011288183
	             0.0006250748        0.0006811933       -0.0007694036
	            -0.0001585955       -0.0004198698        0.0003134715
	            -0.0000000006       -0.0000000734        0.0000686722
	             0.0001585921        0.0004201096        0.0003136205
	            -0.0006250704       -0.0006826627       -0.0007697837
	             0.0000001346        0.0000001886       -0.0013763752
	             0.0004695622       -0.0002047208       -0.0007424329
	            -0.0000482849        0.0000228416       -0.0000239552
	             0.0000000016        0.0000000053        0.0000113643
	             0.0000482840       -0.0000228560       -0.0000240060
	            -0.0004695678        0.0002054666       -0.0007419555
	             0.0005917102       -0.0001892312        0.0007820510
	            -0.0005918150        0.0001889093        0.0007833172
	            -0.0000716584        0.0001073568       -0.0001984448
	            -0.0001922470        0.0002614743        0.0007120640
	             0.0001922565       -0.0002614633        0.0007120693
	             0.0000715725       -0.0001073351       -0.0001975782

	Previous optimization step data not found.  Starting new optimization.

	---Fragment 1 Intrafragment Coordinates---
	 - Coordinate -           - BOHR/RAD -       - ANG/DEG -
	 R(1,2)           =         2.659794	       1.407502
	 R(1,6)           =         2.659796	       1.407503
	 R(1,7)           =         2.771983	       1.466870
	 R(2,3)           =         2.629179	       1.391302
	 R(2,8)           =         2.052976	       1.086388
	 R(3,4)           =         2.642393	       1.398294
	 R(3,9)           =         2.050622	       1.085142
	 R(4,5)           =         2.642393	       1.398294
	 R(4,10)          =         2.051579	       1.085649
	 R(5,6)           =         2.629179	       1.391302
	 R(5,11)          =         2.050622	       1.085142
	 R(6,12)          =         2.052973	       1.086386
	 R(7,13)          =         2.513452	       1.330062
	 R(7,14)          =         2.513451	       1.330061
	 R(13,17)         =         1.911598	       1.011574
	 R(13,18)         =         1.914849	       1.013295
	 R(14,15)         =         1.914851	       1.013296
	 R(14,16)         =         1.911598	       1.011574
	 B(1,2,3)         =         2.088380	     119.655376
	 B(1,2,8)         =         2.103396	     120.515689
	 B(1,6,5)         =         2.088379	     119.655315
	 B(1,6,12)        =         2.103396	     120.515729
	 B(1,7,13)        =         2.093264	     119.935170
	 B(1,7,14)        =         2.093263	     119.935132
	 B(2,1,6)         =         2.097220	     120.161857
	 B(2,1,7)         =         2.092983	     119.919082
	 B(2,3,4)         =         2.095279	     120.050636
	 B(2,3,9)         =         2.089719	     119.732108
	 B(3,2,8)         =         2.090149	     119.756722
	 B(3,4,5)         =         2.101793	     120.423859
	 B(3,4,10)        =         2.090696	     119.788070
	 B(4,3,9)         =         2.098135	     120.214297
	 B(4,5,6)         =         2.095280	     120.050677
	 B(4,5,11)        =         2.098135	     120.214297
	 B(5,4,10)        =         2.090696	     119.788070
	 B(5,6,12)        =         2.090149	     119.756743
	 B(6,1,7)         =         2.092982	     119.919061
	 B(6,5,11)        =         2.089719	     119.732067
	 B(7,13,17)       =         2.092411	     119.886328
	 B(7,13,18)       =         2.144860	     122.891402
	 B(7,14,15)       =         2.144859	     122.891363
	 B(7,14,16)       =         2.092412	     119.886364
	 B(13,7,14)       =         2.096659	     120.129698
	 B(15,14,16)      =         2.043400	     117.078209
	 B(17,13,18)      =         2.043400	     117.078207
	 D(1,2,3,4)       =         0.007799	       0.446825
	 D(1,2,3,9)       =        -3.122896	    -178.928735
	 D(1,6,5,4)       =         0.007799	       0.446822
	 D(1,6,5,11)      =        -3.122896	    -178.928737
	 D(1,7,13,17)     =         0.187845	      10.762726
	 D(1,7,13,18)     =        -3.032165	    -173.730286
	 D(1,7,14,15)     =        -3.032166	    -173.730295
	 D(1,7,14,16)     =         0.187845	      10.762730
	 D(2,1,6,5)       =        -0.003906	      -0.223802
	 D(2,1,6,12)      =        -3.091437	    -177.126283
	*D(2,1,7,13)      =        -2.617994	    -150.000026
	 D(2,1,7,14)      =         0.523598	      29.999974
	 D(2,3,4,5)       =        -0.003942	      -0.225875
	 D(2,3,4,10)      =         3.137650	     179.774125
	 D(3,2,1,6)       =        -0.003906	      -0.223806
	 D(3,2,1,7)       =         3.137687	     179.776196
	 D(3,4,5,6)       =        -0.003942	      -0.225874
	 D(3,4,5,11)      =         3.126699	     179.146646
	 D(4,3,2,8)       =         3.095744	     177.373058
	 D(4,5,6,12)      =         3.095744	     177.373055
	 D(5,4,3,9)       =         3.126699	     179.146646
	 D(5,6,1,7)       =         3.137687	     179.776197
	 D(6,1,2,8)       =        -3.091437	    -177.126287
	 D(6,1,7,13)      =         0.523598	      29.999976
	 D(6,1,7,14)      =        -2.617994	    -150.000024
	 D(6,5,4,10)      =         3.137650	     179.774126
	 D(7,1,2,8)       =         0.050156	       2.873714
	 D(7,1,6,12)      =         0.050156	       2.873716
	 D(8,2,3,9)       =        -0.034950	      -2.002503
	 D(9,3,4,10)      =        -0.014894	      -0.853354
	 D(10,4,5,11)     =        -0.014894	      -0.853354
	 D(11,5,6,12)     =        -0.034950	      -2.002504
	 D(13,7,14,15)    =         0.109427	       6.269705
	 D(13,7,14,16)    =        -2.953748	    -169.237270
	 D(14,7,13,17)    =        -2.953748	    -169.237274
	 D(14,7,13,18)    =         0.109427	       6.269714

	Current energy   :      -381.4701954077

	Generating empirical Hessian (Schlegel '84) for each fragment.
	Taking RFO optimization step.
	Going to follow RFO solution 1.
	Using RFO vector 1.
	Norm of target step-size    0.13625
	Projected energy change by RFO approximation:        -0.0003066632

	Back-transformation to cartesian coordinates...
	Could not converge backtransformation.
	Using first guess instead.

	Back-transformation to cartesian coordinates to adjust frozen coordinates...
	Successfully converged to displaced geometry.

	--- Internal Coordinate Step in ANG or DEG, aJ/ANG or AJ/DEG ---
	 ---------------------------------------------------------------------------
	   Coordinate                Previous        Force       Change         New 
	   ----------                --------       ------       ------       ------
	    1 R(1,2)          =      1.407502     0.006082     0.000925     1.408428
	    2 R(1,6)          =      1.407503     0.006075     0.001416     1.408919
	    3 R(1,7)          =      1.466870     0.010087     0.001832     1.468702
	    4 R(2,3)          =      1.391302    -0.002764    -0.000252     1.391050
	    5 R(2,8)          =      1.086388    -0.001475     0.000040     1.086428
	    6 R(3,4)          =      1.398294    -0.002175    -0.000175     1.398119
	    7 R(3,9)          =      1.085142    -0.000065    -0.000004     1.085138
	    8 R(4,5)          =      1.398294    -0.002177    -0.000299     1.397995
	    9 R(4,10)         =      1.085649    -0.000102     0.000068     1.085717
	   10 R(5,6)          =      1.391302    -0.002770    -0.000312     1.390990
	   11 R(5,11)         =      1.085142    -0.000065     0.000266     1.085408
	   12 R(6,12)         =      1.086386    -0.001468     0.000029     1.086416
	   13 R(7,13)         =      1.330062     0.005166     0.000628     1.330690
	   14 R(7,14)         =      1.330061     0.005170     0.001655     1.331716
	   15 R(13,17)        =      1.011574    -0.003329     0.000390     1.011964
	   16 R(13,18)        =      1.013295    -0.001723     0.000005     1.013299
	   17 R(14,15)        =      1.013296    -0.001730     0.000117     1.013412
	   18 R(14,16)        =      1.011574    -0.003329     0.000050     1.011624
	   19 B(1,2,3)        =    119.655376     0.000055     0.181629   119.837005
	   20 B(1,2,8)        =    120.515689     0.000030     0.152665   120.668354
	   21 B(1,6,5)        =    119.655315     0.000055     0.191020   119.846334
	   22 B(1,6,12)       =    120.515729     0.000030     0.190625   120.706354
	   23 B(1,7,13)       =    119.935170     0.000101     0.303832   120.239001
	   24 B(1,7,14)       =    119.935132     0.000101     0.291719   120.226851
	   25 B(2,1,6)        =    120.161857    -0.000110    -0.334619   119.827238
	   26 B(2,1,7)        =    119.919082     0.000055     0.159329   120.078411
	   27 B(2,3,4)        =    120.050636     0.000004     0.007469   120.058105
	   28 B(2,3,9)        =    119.732108     0.000000     0.004070   119.736177
	   29 B(3,2,8)        =    119.756722    -0.000085    -0.369153   119.387569
	   30 B(3,4,5)        =    120.423859    -0.000008    -0.046168   120.377692
	   31 B(3,4,10)       =    119.788070     0.000004     0.030480   119.818551
	   32 B(4,3,9)        =    120.214297    -0.000004    -0.012616   120.201680
	   33 B(4,5,6)        =    120.050677     0.000004    -0.006512   120.044165
	   34 B(4,5,11)       =    120.214297    -0.000004    -0.012543   120.201754
	   35 B(5,4,10)       =    119.788070     0.000004     0.015039   119.803109
	   36 B(5,6,12)       =    119.756743    -0.000086    -0.400021   119.356722
	   37 B(6,1,7)        =    119.919061     0.000055     0.134948   120.054009
	   38 B(6,5,11)       =    119.732067     0.000000     0.014184   119.746251
	   39 B(7,13,17)      =    119.886328     0.000052     0.206869   120.093197
	   40 B(7,13,18)      =    122.891402    -0.000029    -0.169048   122.722355
	   41 B(7,14,15)      =    122.891363    -0.000029    -0.128569   122.762794
	   42 B(7,14,16)      =    119.886364     0.000052     0.262872   120.149236
	   43 B(13,7,14)      =    120.129698    -0.000203    -0.631862   119.497835
	   44 B(15,14,16)     =    117.078209    -0.000024    -0.213697   116.864512
	   45 B(17,13,18)     =    117.078207    -0.000024    -0.117876   116.960331
	   46 D(1,2,3,4)      =      0.446825     0.000000     0.181539     0.628364
	   47 D(1,2,3,9)      =   -178.928735     0.000001     0.286541  -178.642194
	   48 D(1,6,5,4)      =      0.446822    -0.000003    -0.666600    -0.219778
	   49 D(1,6,5,11)     =   -178.928737    -0.000001    -0.275242  -179.203979
	   50 D(1,7,13,17)    =     10.762726     0.000011     2.023506    12.786232
	   51 D(1,7,13,18)    =   -173.730286     0.000004     0.909251  -172.821034
	   52 D(1,7,14,15)    =   -173.730295    -0.000006    -1.307804  -175.038099
	   53 D(1,7,14,16)    =     10.762730     0.000001    -0.196557    10.566173
	   54 D(2,1,6,5)      =     -0.223802     0.000005     1.187147     0.963345
	   55 D(2,1,6,12)     =   -177.126283     0.000008     1.572538  -175.553744
	   56 *D(2,1,7,13)    =   -150.000026    -0.000000     0.000000  -150.000026
	   57 D(2,1,7,14)     =     29.999974     0.000010     2.202608    32.202582
	   58 D(2,3,4,5)      =     -0.225875     0.000002     0.344356     0.118481
	   59 D(2,3,4,10)     =    179.774125     0.000001     0.050917   179.825041
	   60 D(3,2,1,6)      =     -0.223806    -0.000003    -0.944030    -1.167836
	   61 D(3,2,1,7)      =    179.776196     0.000006     1.364581   181.140776
	   62 D(3,4,5,6)      =     -0.225874    -0.000000    -0.098577    -0.324451
	   63 D(3,4,5,11)     =    179.146646    -0.000002    -0.491564   178.655082
	   64 D(4,3,2,8)      =    177.373058    -0.000003    -0.481016   176.892041
	   65 D(4,5,6,12)     =    177.373055    -0.000005    -1.028578   176.344477
	   66 D(5,4,3,9)      =    179.146646     0.000001     0.238967   179.385614
	   67 D(5,6,1,7)      =    179.776197    -0.000004    -1.120895   178.655302
	   68 D(6,1,2,8)      =   -177.126287     0.000000    -0.256564  -177.382851
	   69 D(6,1,7,13)     =     29.999976     0.000009     2.313883    32.313858
	   70 D(6,1,7,14)     =   -150.000024     0.000019     4.516490  -145.483534
	   71 D(6,5,4,10)     =    179.774126     0.000001     0.194818   179.968944
	   72 D(7,1,2,8)      =      2.873714     0.000009     2.052047     4.925761
	   73 D(7,1,6,12)     =      2.873716    -0.000001    -0.735503     2.138213
	   74 D(8,2,3,9)      =     -2.002503    -0.000002    -0.376015    -2.378517
	   75 D(9,3,4,10)     =     -0.853354    -0.000000    -0.054472    -0.907826
	   76 D(10,4,5,11)    =     -0.853354    -0.000001    -0.198170    -1.051524
	   77 D(11,5,6,12)    =     -2.002504    -0.000003    -0.637220    -2.639724
	   78 D(13,7,14,15)   =      6.269705     0.000004     0.878493     7.148199
	   79 D(13,7,14,16)   =   -169.237270     0.000011     1.989741  -167.247530
	   80 D(14,7,13,17)   =   -169.237274     0.000001    -0.163062  -169.400336
	   81 D(14,7,13,18)   =      6.269714    -0.000006    -1.277316     4.992398
	 ---------------------------------------------------------------------------
	Successfully symmetrized geometry.

  ==> Convergence Check <==

  Measures of convergence in internal coordinates in au.
  Criteria marked as inactive (o), active & met (*), and active & unmet ( ).
  --------------------------------------------------------------------------------------------- ~
   Step     Total Energy     Delta E     MAX Force     RMS Force      MAX Disp      RMS Disp    ~
  --------------------------------------------------------------------------------------------- ~
    Convergence Criteria    1.00e-06 *    3.00e-04 *             o    1.20e-03 *             o  ~
  --------------------------------------------------------------------------------------------- ~
      1    -381.47019541   -3.81e+02      2.67e-03      5.80e-04 o    7.88e-02      1.51e-02 o  ~
  ---------------------------------------------------------------------------------------------

	Writing optimization data to binary file.
	Structure for next step:
	Cartesian Geometry (in Angstrom)
	    C    -0.0327530027   0.0058678630  -0.1765253321
	    C     0.0051510667   1.2230324398   0.5311061515
	    C     0.0187764354   1.2147864041   1.9220648382
	    C     0.0081589188   0.0006847234   2.6153041447
	    C    -0.0136655471  -1.2110945782   1.9185224280
	    C    -0.0317745167  -1.2144530664   0.5276547917
	    C    -0.0220036228   0.0076201431  -1.6451873216
	    H    -0.0377352885   2.1720509873   0.0039912236
	    H     0.0256620394   2.1538233408   2.4658356535
	    H     0.0217349158  -0.0012559957   3.7009345537
	    H     0.0001520732  -2.1521525615   2.4591978873
	    H     0.0117288032  -2.1612962521  -0.0032824039
	    N    -0.6267208612  -0.9662438978  -2.3209400103
	    N     0.6301119638   0.9597830528  -2.3097156861
	    H     0.6026850845   1.0408513019  -3.3195079487
	    H     1.2496013460   1.5898839036  -1.8171818320
	    H    -1.2550084653  -1.6002737513  -1.8441470190
	    H    -0.5541013426  -1.0616150567  -3.3271241182
			--------------------------
			 OPTKING Finished Execution 
			--------------------------

    Structure for next step:
    Molecular point group: c1
    Full point group: C1

    Geometry (in Angstrom), charge = 1, multiplicity = 1:

    C           -0.032753002715     0.005867863004    -0.176525332135
    C            0.005151066670     1.223032439762     0.531106151454
    C            0.018776435355     1.214786404113     1.922064838168
    C            0.008158918830     0.000684723356     2.615304144704
    C           -0.013665547054    -1.211094578183     1.918522427975
    C           -0.031774516685    -1.214453066390     0.527654791677
    C           -0.022003622752     0.007620143064    -1.645187321633
    H           -0.037735288491     2.172050987257     0.003991223581
    H            0.025662039415     2.153823340817     2.465835653477
    H            0.021734915825    -0.001255995704     3.700934553691
    H            0.000152073230    -2.152152561533     2.459197887268
    H            0.011728803173    -2.161296252132    -0.003282403880
    N           -0.626720861203    -0.966243897775    -2.320940010275
    N            0.630111963794     0.959783052849    -2.309715686128
    H            0.602685084466     1.040851301854    -3.319507948683
    H            1.249601345966     1.589883903609    -1.817181832016
    H           -1.255008465251    -1.600273751310    -1.844147018994
    H           -0.554101342573    -1.061615056658    -3.327124118250

gradient() will perform analytic gradient computation.

*** tstart() called on rosa.prib.upf.edu
*** at Sat Sep 29 20:41:42 2018

   => Loading Basis Set <=

    Name: 6-31G*
    Role: ORBITAL
    Keyword: BASIS
    atoms 1-7         entry C          line   111 file /shared/joao/test_parameterize/miniconda3/share/psi4/basis/6-31gs.gbs 
    atoms 8-12, 15-18 entry H          line    44 file /shared/joao/test_parameterize/miniconda3/share/psi4/basis/6-31gs.gbs 
    atoms 13-14       entry N          line   128 file /shared/joao/test_parameterize/miniconda3/share/psi4/basis/6-31gs.gbs 


         ---------------------------------------------------------
                                   SCF
            by Justin Turney, Rob Parrish, Andy Simmonett
                             and Daniel Smith
                              RKS Reference
                        4 Threads,   2861 MiB Core
         ---------------------------------------------------------

  ==> Geometry <==

    Molecular point group: c1
    Full point group: C1

    Geometry (in Angstrom), charge = 1, multiplicity = 1:

       Center              X                  Y                   Z               Mass       
    ------------   -----------------  -----------------  -----------------  -----------------
         C           -0.032753002715     0.005867863004    -0.176525332135    12.000000000000
         C            0.005151066670     1.223032439762     0.531106151454    12.000000000000
         C            0.018776435355     1.214786404113     1.922064838168    12.000000000000
         C            0.008158918830     0.000684723356     2.615304144704    12.000000000000
         C           -0.013665547054    -1.211094578183     1.918522427975    12.000000000000
         C           -0.031774516685    -1.214453066390     0.527654791677    12.000000000000
         C           -0.022003622752     0.007620143064    -1.645187321633    12.000000000000
         H           -0.037735288491     2.172050987257     0.003991223581     1.007825032070
         H            0.025662039415     2.153823340817     2.465835653477     1.007825032070
         H            0.021734915825    -0.001255995704     3.700934553691     1.007825032070
         H            0.000152073230    -2.152152561533     2.459197887268     1.007825032070
         H            0.011728803173    -2.161296252132    -0.003282403880     1.007825032070
         N           -0.626720861203    -0.966243897775    -2.320940010275    14.003074004780
         N            0.630111963794     0.959783052849    -2.309715686128    14.003074004780
         H            0.602685084466     1.040851301854    -3.319507948683     1.007825032070
         H            1.249601345966     1.589883903609    -1.817181832016     1.007825032070
         H           -1.255008465251    -1.600273751310    -1.844147018994     1.007825032070
         H           -0.554101342573    -1.061615056658    -3.327124118250     1.007825032070

  Running in c1 symmetry.

  Rotational constants: A =      0.12213  B =      0.03962  C =      0.03104 [cm^-1]
  Rotational constants: A =   3661.40596  B =   1187.65053  C =    930.40800 [MHz]
  Nuclear repulsion =  416.662372102514041

  Charge       = 1
  Multiplicity = 1
  Electrons    = 64
  Nalpha       = 32
  Nbeta        = 32

  ==> Algorithm <==

  SCF Algorithm Type is DF.
  DIIS enabled.
  MOM disabled.
  Fractional occupation disabled.
  Guess Type is READ.
  Energy threshold   = 1.00e-08
  Density threshold  = 1.00e-08
  Integral threshold = 0.00e+00

  ==> Primary Basis <==

  Basis Set: 6-31G*
    Blend: 6-31G*
    Number of shells: 72
    Number of basis function: 153
    Number of Cartesian functions: 153
    Spherical Harmonics?: false
    Max angular momentum: 2

  ==> DFT Potential <==

   => Composite Functional: B3LYP-D3ZERO <= 

    B3LYP-d3zero Hyb-GGA Exchange-Correlation Functional

    P. J. Stephens, F. J. Devlin, C. F. Chabalowski, and M. J. Frisch, J. Phys. Chem. 98, 11623 (1994)

    Deriv               =              1
    GGA                 =           TRUE
    Meta                =          FALSE

    Exchange Hybrid     =           TRUE
    MP2 Hybrid          =          FALSE

   => Exchange Functionals <=

    0.0800   Slater exchange
    0.7200         Becke 88

   => Exact (HF) Exchange <=

    0.2000               HF 

   => Correlation Functionals <=

    0.1900   Vosko, Wilk & Nusair (VWN5_RPA)
    0.8100   Lee, Yang & Parr

   => Molecular Quadrature <=

    Radial Scheme       =       TREUTLER
    Pruning Scheme      =           FLAT
    Nuclear Scheme      =       TREUTLER

    BS radius alpha     =              1
    Pruning alpha       =              1
    Radial Points       =             75
    Spherical Points    =            302
    Total Points        =         396898
    Total Blocks        =           3006
    Max Points          =            256
    Max Functions       =            149

   => -D3ZERO: Empirical Dispersion <=

    Grimme's -D3 (zero-damping) Dispersion Correction
    Grimme S.; Antony J.; Ehrlich S.; Krieg H. (2010), J. Chem. Phys., 132: 154104

        S6 =   1.000000E+00
        S8 =   1.703000E+00
       SR6 =   1.261000E+00
       SR8 =   1.000000E+00
    ALPHA6 =   1.400000E+01

   => Loading Basis Set <=

    Name: (6-31G* AUX)
    Role: JKFIT
    Keyword: DF_BASIS_SCF
    atoms 1-7         entry C          line   121 file /shared/joao/test_parameterize/miniconda3/share/psi4/basis/cc-pvdz-jkfit.gbs 
    atoms 8-12, 15-18 entry H          line    51 file /shared/joao/test_parameterize/miniconda3/share/psi4/basis/cc-pvdz-jkfit.gbs 
    atoms 13-14       entry N          line   171 file /shared/joao/test_parameterize/miniconda3/share/psi4/basis/cc-pvdz-jkfit.gbs 

  Reading orbitals from file 180, no projection.

  ==> Pre-Iterations <==

   -------------------------------------------------------
    Irrep   Nso     Nmo     Nalpha   Nbeta   Ndocc  Nsocc
   -------------------------------------------------------
     A        153     153       0       0       0       0
   -------------------------------------------------------
    Total     153     153      32      32      32       0
   -------------------------------------------------------

  ==> Integral Setup <==

  ==> DiskDFJK: Density-Fitted J/K Matrices <==

    J tasked:                  Yes
    K tasked:                  Yes
    wK tasked:                  No
    OpenMP threads:              4
    Integrals threads:           4
    Memory (MB):              2002
    Algorithm:                Core
    Integral Cache:           NONE
    Schwarz Cutoff:          1E-12
    Fitting Condition:       1E-12

   => Auxiliary Basis Set <=

  Basis Set: (6-31G* AUX)
    Blend: CC-PVDZ-JKFIT
    Number of shells: 297
    Number of basis function: 954
    Number of Cartesian functions: 954
    Spherical Harmonics?: false
    Max angular momentum: 3

  Minimum eigenvalue in the overlap matrix is 4.8817463664E-04.
  Using Symmetric Orthogonalization.

  SCF Guess: Orbitals guess was supplied from a previous computation.

  ==> Iterations <==

                           Total Energy        Delta E     RMS |[F,P]|

   @DF-RKS iter   0:  -381.46220373294244   -3.81462e+02   1.06710e-03 
   @DF-RKS iter   1:  -381.47022430159291   -8.02057e-03   7.76895e-05 
   @DF-RKS iter   2:  -381.47023958544037   -1.52838e-05   7.83499e-05 DIIS
   @DF-RKS iter   3:  -381.47025611145671   -1.65260e-05   3.40798e-05 DIIS
   @DF-RKS iter   4:  -381.47025966647891   -3.55502e-06   1.17144e-05 DIIS
   @DF-RKS iter   5:  -381.47026006748007   -4.01001e-07   2.66212e-06 DIIS
   @DF-RKS iter   6:  -381.47026008432397   -1.68439e-08   1.08460e-06 DIIS
   @DF-RKS iter   7:  -381.47026008742688   -3.10291e-09   2.17787e-07 DIIS
   @DF-RKS iter   8:  -381.47026008752499   -9.81117e-11   1.22109e-07 DIIS
   @DF-RKS iter   9:  -381.47026008756927   -4.42810e-11   2.47313e-08 DIIS
   @DF-RKS iter  10:  -381.47026008757086   -1.59162e-12   1.08036e-08 DIIS
   @DF-RKS iter  11:  -381.47026008757160   -7.38964e-13   2.64931e-09 DIIS

  ==> Post-Iterations <==

    Orbital Energies [Eh]
    ---------------------

    Doubly Occupied:                                                      

       1A    -14.567495     2A    -14.567273     3A    -10.497371  
       4A    -10.374319     5A    -10.357084     6A    -10.356736  
       7A    -10.343705     8A    -10.340885     9A    -10.340821  
      10A     -1.183268    11A     -1.090732    12A     -1.014547  
      13A     -0.926783    14A     -0.902678    15A     -0.845617  
      16A     -0.785489    17A     -0.773588    18A     -0.740136  
      19A     -0.733714    20A     -0.688214    21A     -0.669150  
      22A     -0.626416    23A     -0.615933    24A     -0.588546  
      25A     -0.579681    26A     -0.573228    27A     -0.518295  
      28A     -0.506218    29A     -0.498446    30A     -0.472231  
      31A     -0.412143    32A     -0.406144  

    Virtual:                                                              

      33A     -0.218787    34A     -0.157690    35A     -0.125937  
      36A     -0.108232    37A     -0.067984    38A     -0.062025  
      39A     -0.038030    40A     -0.034685    41A      0.007253  
      42A      0.020899    43A      0.021108    44A      0.056955  
      45A      0.062310    46A      0.083824    47A      0.125022  
      48A      0.143082    49A      0.157284    50A      0.161921  
      51A      0.201599    52A      0.243634    53A      0.299186  
      54A      0.350214    55A      0.354347    56A      0.380637  
      57A      0.387881    58A      0.397106    59A      0.420824  
      60A      0.422907    61A      0.441786    62A      0.449184  
      63A      0.454140    64A      0.471116    65A      0.472208  
      66A      0.474614    67A      0.484632    68A      0.511489  
      69A      0.527030    70A      0.535024    71A      0.539130  
      72A      0.594491    73A      0.605650    74A      0.655792  
      75A      0.660262    76A      0.683064    77A      0.688616  
      78A      0.703874    79A      0.716462    80A      0.722113  
      81A      0.744066    82A      0.774619    83A      0.780505  
      84A      0.800922    85A      0.813304    86A      0.830581  
      87A      0.850191    88A      0.940397    89A      0.958249  
      90A      0.992510    91A      1.005773    92A      1.028169  
      93A      1.069308    94A      1.079568    95A      1.136136  
      96A      1.170928    97A      1.209188    98A      1.271264  
      99A      1.280603   100A      1.306598   101A      1.322939  
     102A      1.345112   103A      1.363883   104A      1.374528  
     105A      1.443945   106A      1.453660   107A      1.474894  
     108A      1.612402   109A      1.620591   110A      1.652943  
     111A      1.664364   112A      1.735519   113A      1.751909  
     114A      1.795231   115A      1.823216   116A      1.853427  
     117A      1.902655   118A      1.906016   119A      1.956256  
     120A      1.973859   121A      1.996594   122A      2.017508  
     123A      2.040105   124A      2.061615   125A      2.125982  
     126A      2.127048   127A      2.151913   128A      2.209947  
     129A      2.240089   130A      2.262990   131A      2.344014  
     132A      2.361953   133A      2.447451   134A      2.453704  
     135A      2.488662   136A      2.507620   137A      2.544929  
     138A      2.588124   139A      2.604652   140A      2.631007  
     141A      2.738480   142A      2.881477   143A      2.987748  
     144A      3.257684   145A      3.637561   146A      3.659169  
     147A      3.906846   148A      3.946881   149A      3.962521  
     150A      4.050265   151A      4.172188   152A      4.257165  
     153A      4.545303  

    Final Occupation by Irrep:
              A 
    DOCC [    32 ]

  Energy converged.

  @DF-RKS Final Energy:  -381.47026008757160

   => Energetics <=

    Nuclear Repulsion Energy =            416.6623721025140412
    One-Electron Energy =               -1328.5253054141626308
    Two-Electron Energy =                 574.8081267875954836
    DFT Exchange-Correlation Energy =     -44.4035767535185713
    Empirical Dispersion Energy =          -0.0118768100000000
    VV10 Nonlocal Energy =                  0.0000000000000000
    Total Energy =                       -381.4702600875716598



Properties will be evaluated at   0.000000,   0.000000,   0.000000 [a0]

Properties computed using the SCF density matrix

  Nuclear Dipole Moment: [e a0]
     X:    -0.6051      Y:     0.1766      Z:     0.1167

  Electronic Dipole Moment: [e a0]
     X:     0.6228      Y:    -0.1877      Z:    -2.3529

  Dipole Moment: [e a0]
     X:     0.0177      Y:    -0.0111      Z:    -2.2362     Total:     2.2363

  Dipole Moment: [D]
     X:     0.0450      Y:    -0.0282      Z:    -5.6839     Total:     5.6841


*** tstop() called on rosa.prib.upf.edu at Sat Sep 29 20:42:05 2018
Module time:
	user time   =      81.96 seconds =       1.37 minutes
	system time =       1.12 seconds =       0.02 minutes
	total time  =         23 seconds =       0.38 minutes
Total time:
	user time   =     213.72 seconds =       3.56 minutes
	system time =       3.53 seconds =       0.06 minutes
	total time  =         60 seconds =       1.00 minutes

*** tstart() called on rosa.prib.upf.edu
*** at Sat Sep 29 20:42:05 2018


         ------------------------------------------------------------
                                   SCF GRAD                          
                          Rob Parrish, Justin Turney,                
                       Andy Simmonett, and Alex Sokolov              
         ------------------------------------------------------------

  ==> Geometry <==

    Molecular point group: c1
    Full point group: C1

    Geometry (in Angstrom), charge = 1, multiplicity = 1:

       Center              X                  Y                   Z               Mass       
    ------------   -----------------  -----------------  -----------------  -----------------
         C           -0.032753002715     0.005867863004    -0.176525332135    12.000000000000
         C            0.005151066670     1.223032439762     0.531106151454    12.000000000000
         C            0.018776435355     1.214786404113     1.922064838168    12.000000000000
         C            0.008158918830     0.000684723356     2.615304144704    12.000000000000
         C           -0.013665547054    -1.211094578183     1.918522427975    12.000000000000
         C           -0.031774516685    -1.214453066390     0.527654791677    12.000000000000
         C           -0.022003622752     0.007620143064    -1.645187321633    12.000000000000
         H           -0.037735288491     2.172050987257     0.003991223581     1.007825032070
         H            0.025662039415     2.153823340817     2.465835653477     1.007825032070
         H            0.021734915825    -0.001255995704     3.700934553691     1.007825032070
         H            0.000152073230    -2.152152561533     2.459197887268     1.007825032070
         H            0.011728803173    -2.161296252132    -0.003282403880     1.007825032070
         N           -0.626720861203    -0.966243897775    -2.320940010275    14.003074004780
         N            0.630111963794     0.959783052849    -2.309715686128    14.003074004780
         H            0.602685084466     1.040851301854    -3.319507948683     1.007825032070
         H            1.249601345966     1.589883903609    -1.817181832016     1.007825032070
         H           -1.255008465251    -1.600273751310    -1.844147018994     1.007825032070
         H           -0.554101342573    -1.061615056658    -3.327124118250     1.007825032070

  Nuclear repulsion =  416.662372102514041

  ==> Basis Set <==

  Basis Set: 6-31G*
    Blend: 6-31G*
    Number of shells: 72
    Number of basis function: 153
    Number of Cartesian functions: 153
    Spherical Harmonics?: false
    Max angular momentum: 2

  ==> DFJKGrad: Density-Fitted SCF Gradients <==

    Gradient:                    1
    J tasked:                  Yes
    K tasked:                  Yes
    wK tasked:                  No
    OpenMP threads:              4
    Integrals threads:           4
    Memory (MB):              2002
    Schwarz Cutoff:          0E+00
    Fitting Condition:       1E-12

   => Auxiliary Basis Set <=

  Basis Set: (6-31G* AUX)
    Blend: CC-PVDZ-JKFIT
    Number of shells: 297
    Number of basis function: 954
    Number of Cartesian functions: 954
    Spherical Harmonics?: false
    Max angular momentum: 3

  ==> DFT Potential <==

   => Composite Functional: B3LYP-D3ZERO <= 

    B3LYP-d3zero Hyb-GGA Exchange-Correlation Functional

    P. J. Stephens, F. J. Devlin, C. F. Chabalowski, and M. J. Frisch, J. Phys. Chem. 98, 11623 (1994)

    Deriv               =              1
    GGA                 =           TRUE
    Meta                =          FALSE

    Exchange Hybrid     =           TRUE
    MP2 Hybrid          =          FALSE

   => Exchange Functionals <=

    0.0800   Slater exchange
    0.7200         Becke 88

   => Exact (HF) Exchange <=

    0.2000               HF 

   => Correlation Functionals <=

    0.1900   Vosko, Wilk & Nusair (VWN5_RPA)
    0.8100   Lee, Yang & Parr

   => Molecular Quadrature <=

    Radial Scheme       =       TREUTLER
    Pruning Scheme      =           FLAT
    Nuclear Scheme      =       TREUTLER

    BS radius alpha     =              1
    Pruning alpha       =              1
    Radial Points       =             75
    Spherical Points    =            302
    Total Points        =         396898
    Total Blocks        =           3006
    Max Points          =            256
    Max Functions       =            149


  -Total Gradient:
     Atom            X                  Y                   Z
    ------   -----------------  -----------------  -----------------
       1       -0.002009283253    -0.000662426045     0.000511393456
       2        0.002073809607    -0.000177473324     0.000229616166
       3        0.000144512062     0.000068812297     0.000083039273
       4       -0.000112705947     0.000004327214    -0.000242500405
       5       -0.000239586668    -0.000110054236    -0.000033220652
       6        0.000185480575     0.000134581442     0.000775186091
       7       -0.003752229793     0.002148299401     0.000006335580
       8       -0.000103664971     0.000117277804     0.000299835562
       9       -0.000092442005    -0.000014559129     0.000054814549
      10        0.000052061453    -0.000027354270     0.000032508647
      11        0.000046644269    -0.000130369495     0.000181179312
      12        0.000440164805    -0.000197870680     0.000272572186
      13        0.002147294822    -0.000303523900    -0.000853279701
      14        0.000559806473    -0.000505498872    -0.001022651378
      15        0.000198403923     0.000054466365    -0.000234491339
      16        0.000396702763     0.000057521532    -0.000138529734
      17       -0.000060266385    -0.000439427374     0.000208463776
      18        0.000125532568    -0.000016724413    -0.000154414001


*** tstop() called on rosa.prib.upf.edu at Sat Sep 29 20:42:13 2018
Module time:
	user time   =      28.82 seconds =       0.48 minutes
	system time =       0.70 seconds =       0.01 minutes
	total time  =          8 seconds =       0.13 minutes
Total time:
	user time   =     242.61 seconds =       4.04 minutes
	system time =       4.23 seconds =       0.07 minutes
	total time  =         68 seconds =       1.13 minutes

			-----------------------------------------
			 OPTKING 2.0: for geometry optimizations 
			  - R.A. King,  Bethel University        
			-----------------------------------------
	At level 1: Red. Int., RFO, no backsteps, dynamic trust

	Previous internal coordinate definitions found.
	---Fragment 1 Geometry and Gradient---
	 C          -0.0618942052        0.0110886541       -0.3335845333
	 C           0.0097341053        2.3111963628        1.0036451737
	 C           0.0354823206        2.2956136137        3.6321761538
	 C           0.0154181221        0.0012939396        4.9422085877
	 C          -0.0258241414       -2.2886370738        3.6254819687
	 C          -0.0600451345       -2.2949836967        0.9971230490
	 C          -0.0415808209        0.0143999835       -3.1089534752
	 H          -0.0713093608        4.1045815126        0.0075423195
	 H           0.0484942265        4.0701362528        4.6597540738
	 H           0.0410730384       -0.0023734879        6.9937527422
	 H           0.0002873768       -4.0669789375        4.6472105135
	 H           0.0221642259       -4.0842580086       -0.0062028444
	 N          -1.1843307894       -1.8259363444       -4.3859409903
	 N           1.1907390446        1.8137271169       -4.3647300916
	 H           1.1389097540        1.9669239056       -6.2729609189
	 H           2.3614043192        3.0044451609       -3.4339759962
	 H          -2.3716222938       -3.0240791276       -3.4849328147
	 H          -1.0470997873       -2.0061617156       -6.2873533936
	            -0.0020092833       -0.0006624260        0.0005113935
	             0.0020738096       -0.0001774733        0.0002296162
	             0.0001445121        0.0000688123        0.0000830393
	            -0.0001127059        0.0000043272       -0.0002425004
	            -0.0002395867       -0.0001100542       -0.0000332207
	             0.0001854806        0.0001345814        0.0007751861
	            -0.0037522298        0.0021482994        0.0000063356
	            -0.0001036650        0.0001172778        0.0002998356
	            -0.0000924420       -0.0000145591        0.0000548145
	             0.0000520615       -0.0000273543        0.0000325086
	             0.0000466443       -0.0001303695        0.0001811793
	             0.0004401648       -0.0001978707        0.0002725722
	             0.0021472948       -0.0003035239       -0.0008532797
	             0.0005598065       -0.0005054989       -0.0010226514
	             0.0001984039        0.0000544664       -0.0002344913
	             0.0003967028        0.0000575215       -0.0001385297
	            -0.0000602664       -0.0004394274        0.0002084638
	             0.0001255326       -0.0000167244       -0.0001544140

	---Fragment 1 Intrafragment Coordinates---
	 - Coordinate -           - BOHR/RAD -       - ANG/DEG -
	 R(1,2)           =         2.661543	       1.408428
	 R(1,6)           =         2.662472	       1.408919
	 R(1,7)           =         2.775445	       1.468702
	 R(2,3)           =         2.628703	       1.391050
	 R(2,8)           =         2.053051	       1.086428
	 R(3,4)           =         2.642062	       1.398119
	 R(3,9)           =         2.050614	       1.085138
	 R(4,5)           =         2.641828	       1.397995
	 R(4,10)          =         2.051708	       1.085717
	 R(5,6)           =         2.628589	       1.390990
	 R(5,11)          =         2.051124	       1.085408
	 R(6,12)          =         2.053028	       1.086416
	 R(7,13)          =         2.514640	       1.330690
	 R(7,14)          =         2.516578	       1.331716
	 R(13,17)         =         1.912334	       1.011964
	 R(13,18)         =         1.914858	       1.013299
	 R(14,15)         =         1.915072	       1.013412
	 R(14,16)         =         1.911693	       1.011624
	 B(1,2,3)         =         2.091550	     119.837005
	 B(1,2,8)         =         2.106060	     120.668354
	 B(1,6,5)         =         2.091713	     119.846334
	 B(1,6,12)        =         2.106723	     120.706354
	 B(1,7,13)        =         2.098566	     120.239001
	 B(1,7,14)        =         2.098354	     120.226851
	 B(2,1,6)         =         2.091380	     119.827238
	 B(2,1,7)         =         2.095764	     120.078411
	 B(2,3,4)         =         2.095409	     120.058105
	 B(2,3,9)         =         2.089791	     119.736177
	 B(3,2,8)         =         2.083706	     119.387569
	 B(3,4,5)         =         2.100987	     120.377692
	 B(3,4,10)        =         2.091228	     119.818551
	 B(4,3,9)         =         2.097915	     120.201680
	 B(4,5,6)         =         2.095166	     120.044165
	 B(4,5,11)        =         2.097916	     120.201754
	 B(5,4,10)        =         2.090959	     119.803109
	 B(5,6,12)        =         2.083168	     119.356722
	 B(6,1,7)         =         2.095338	     120.054009
	 B(6,5,11)        =         2.089966	     119.746251
	 B(7,13,17)       =         2.096022	     120.093197
	 B(7,13,18)       =         2.141909	     122.722355
	 B(7,14,15)       =         2.142615	     122.762794
	 B(7,14,16)       =         2.097000	     120.149236
	 B(13,7,14)       =         2.085631	     119.497835
	 B(15,14,16)      =         2.039671	     116.864512
	 B(17,13,18)      =         2.041343	     116.960331
	 D(1,2,3,4)       =         0.010967	       0.628364
	 D(1,2,3,9)       =        -3.117894	    -178.642194
	 D(1,6,5,4)       =        -0.003836	      -0.219778
	 D(1,6,5,11)      =        -3.127699	    -179.203979
	 D(1,7,13,17)     =         0.223162	      12.786232
	 D(1,7,13,18)     =        -3.016296	    -172.821034
	 D(1,7,14,15)     =        -3.054991	    -175.038099
	 D(1,7,14,16)     =         0.184415	      10.566173
	 D(2,1,6,5)       =         0.016814	       0.963345
	 D(2,1,6,12)      =        -3.063991	    -175.553744
	*D(2,1,7,13)      =        -2.617994	    -150.000026
	 D(2,1,7,14)      =         0.562041	      32.202582
	 D(2,3,4,5)       =         0.002068	       0.118481
	 D(2,3,4,10)      =         3.138539	     179.825041
	 D(3,2,1,6)       =        -0.020383	      -1.167836
	 D(3,2,1,7)       =        -3.121682	    -178.859224
	 D(3,4,5,6)       =        -0.005663	      -0.324451
	 D(3,4,5,11)      =         3.118119	     178.655082
	 D(4,3,2,8)       =         3.087349	     176.892041
	 D(4,5,6,12)      =         3.077792	     176.344477
	 D(5,4,3,9)       =         3.130870	     179.385614
	 D(5,6,1,7)       =         3.118123	     178.655302
	 D(6,1,2,8)       =        -3.095915	    -177.382851
	 D(6,1,7,13)      =         0.563983	      32.313858
	 D(6,1,7,14)      =        -2.539167	    -145.483534
	 D(6,5,4,10)      =         3.141051	     179.968944
	 D(7,1,2,8)       =         0.085971	       4.925761
	 D(7,1,6,12)      =         0.037319	       2.138213
	 D(8,2,3,9)       =        -0.041513	      -2.378517
	 D(9,3,4,10)      =        -0.015845	      -0.907826
	 D(10,4,5,11)     =        -0.018353	      -1.051524
	 D(11,5,6,12)     =        -0.046072	      -2.639724
	 D(13,7,14,15)    =         0.124760	       7.148199
	 D(13,7,14,16)    =        -2.919020	    -167.247530
	 D(14,7,13,17)    =        -2.956594	    -169.400336
	 D(14,7,13,18)    =         0.087134	       4.992398

	Current energy   :      -381.4702600876

	Energy change for the previous step:
		Projected    :        -0.0003066632
		Actual       :        -0.0000646799
	Energy ratio indicates iffy step: Trust radius decreased to 1.250e-01.


	Performing BFGS update.
	Previous computed or guess Hessian on step 1.
	Steps to be used in Hessian update: 1
	Taking RFO optimization step.
	Going to follow RFO solution 1.
	Using RFO vector 1.
	Norm of target step-size    0.05486
	Projected energy change by RFO approximation:        -0.0001188666

	Back-transformation to cartesian coordinates...
	Successfully converged to displaced geometry.

	Back-transformation to cartesian coordinates to adjust frozen coordinates...
	Successfully converged to displaced geometry.

	--- Internal Coordinate Step in ANG or DEG, aJ/ANG or AJ/DEG ---
	 ---------------------------------------------------------------------------
	   Coordinate                Previous        Force       Change         New 
	   ----------                --------       ------       ------       ------
	    1 R(1,2)          =      1.408428    -0.004256    -0.000350     1.408078
	    2 R(1,6)          =      1.408919    -0.007803    -0.000826     1.408093
	    3 R(1,7)          =      1.468702    -0.017940    -0.001866     1.466836
	    4 R(2,3)          =      1.391050    -0.000869    -0.000136     1.390914
	    5 R(2,8)          =      1.086428     0.000326    -0.000080     1.086348
	    6 R(3,4)          =      1.398119     0.001367     0.000067     1.398185
	    7 R(3,9)          =      1.085138    -0.000123    -0.000017     1.085121
	    8 R(4,5)          =      1.397995     0.002111     0.000171     1.398166
	    9 R(4,10)         =      1.085717    -0.000285    -0.000061     1.085656
	   10 R(5,6)          =      1.390990     0.000217    -0.000026     1.390964
	   11 R(5,11)         =      1.085408    -0.001686    -0.000279     1.085129
	   12 R(6,12)         =      1.086416    -0.000464    -0.000164     1.086251
	   13 R(7,13)         =      1.330690     0.000379     0.000035     1.330725
	   14 R(7,14)         =      1.331716    -0.008066    -0.000859     1.330857
	   15 R(13,17)        =      1.011964    -0.003388    -0.000600     1.011364
	   16 R(13,18)        =      1.013299    -0.001341    -0.000212     1.013087
	   17 R(14,15)        =      1.013412    -0.001905    -0.000298     1.013115
	   18 R(14,16)        =      1.011624    -0.001748    -0.000347     1.011277
	   19 B(1,2,3)        =    119.837005    -0.000020    -0.030007   119.806998
	   20 B(1,2,8)        =    120.668354    -0.000015    -0.030795   120.637560
	   21 B(1,6,5)        =    119.846334    -0.000032    -0.059559   119.786775
	   22 B(1,6,12)       =    120.706354    -0.000010    -0.031589   120.674766
	   23 B(1,7,13)       =    120.239001    -0.000059    -0.077094   120.161907
	   24 B(1,7,14)       =    120.226851    -0.000080    -0.124646   120.102205
	   25 B(2,1,6)        =    119.827238     0.000064     0.094820   119.922058
	   26 B(2,1,7)        =    120.078411    -0.000019    -0.022172   120.056239
	   27 B(2,3,4)        =    120.058105    -0.000009    -0.014374   120.043730
	   28 B(2,3,9)        =    119.736177     0.000000    -0.003571   119.732606
	   29 B(3,2,8)        =    119.387569     0.000035     0.074165   119.461734
	   30 B(3,4,5)        =    120.377692    -0.000006    -0.004204   120.373488
	   31 B(3,4,10)       =    119.818551     0.000001    -0.005739   119.812812
	   32 B(4,3,9)        =    120.201680     0.000009     0.018976   120.220657
	   33 B(4,5,6)        =    120.044165     0.000004     0.018609   120.062774
	   34 B(4,5,11)       =    120.201754     0.000005     0.013921   120.215675
	   35 B(5,4,10)       =    119.803109     0.000005     0.010470   119.813580
	   36 B(5,6,12)       =    119.356722     0.000043     0.099491   119.456213
	   37 B(6,1,7)        =    120.054009    -0.000045    -0.062344   119.991665
	   38 B(6,5,11)       =    119.746251    -0.000009    -0.030281   119.715970
	   39 B(7,13,17)      =    120.093197    -0.000008    -0.016061   120.077136
	   40 B(7,13,18)      =    122.722355     0.000008     0.001572   122.723927
	   41 B(7,14,15)      =    122.762794    -0.000003    -0.011353   122.751440
	   42 B(7,14,16)      =    120.149236    -0.000014    -0.022833   120.126404
	   43 B(13,7,14)      =    119.497835     0.000140     0.232184   119.730019
	   44 B(15,14,16)     =    116.864512     0.000019     0.070636   116.935148
	   45 B(17,13,18)     =    116.960331    -0.000002    -0.032527   116.927804
	   46 D(1,2,3,4)      =      0.628364    -0.000001    -0.118054     0.510310
	   47 D(1,2,3,9)      =   -178.642194    -0.000002    -0.218159  -178.860354
	   48 D(1,6,5,4)      =     -0.219778     0.000002     0.162499    -0.057279
	   49 D(1,6,5,11)     =   -179.203979     0.000000     0.004180  -179.199799
	   50 D(1,7,13,17)    =     12.786232    -0.000001    -0.231176    12.555056
	   51 D(1,7,13,18)    =   -172.821034    -0.000007    -0.791666  -173.612701
	   52 D(1,7,14,15)    =   -175.038099     0.000007     0.822037  -174.216062
	   53 D(1,7,14,16)    =     10.566173     0.000001     0.342178    10.908351
	   54 D(2,1,6,5)      =      0.963345    -0.000003    -0.397777     0.565569
	   55 D(2,1,6,12)     =   -175.553744    -0.000005    -0.565163  -176.118907
	   56 *D(2,1,7,13)    =   -150.000026    -0.000000    -0.000000  -150.000026
	   57 D(2,1,7,14)     =     32.202582    -0.000012    -1.319008    30.883574
	   58 D(2,3,4,5)      =      0.118481    -0.000001    -0.119847    -0.001366
	   59 D(2,3,4,10)     =    179.825041     0.000000     0.046816   179.871857
	   60 D(3,2,1,6)      =     -1.167836     0.000003     0.375247    -0.792590
	   61 D(3,2,1,7)      =   -178.859224     0.000001     0.060067  -178.799157
	   62 D(3,4,5,6)      =     -0.324451     0.000001     0.097238    -0.227213
	   63 D(3,4,5,11)     =    178.655082     0.000002     0.255902   178.910984
	   64 D(4,3,2,8)      =    176.892041     0.000001     0.121521   177.013562
	   65 D(4,5,6,12)     =    176.344477     0.000003     0.323335   176.667812
	   66 D(5,4,3,9)      =    179.385614    -0.000000    -0.019416   179.366198
	   67 D(5,6,1,7)      =    178.655302    -0.000001    -0.081868   178.573434
	   68 D(6,1,2,8)      =   -177.382851     0.000000     0.128826  -177.254026
	   69 D(6,1,7,13)     =     32.313858    -0.000002    -0.319055    31.994804
	   70 D(6,1,7,14)     =   -145.483534    -0.000014    -1.638062  -147.121596
	   71 D(6,5,4,10)     =    179.968944    -0.000001    -0.069378   179.899565
	   72 D(7,1,2,8)      =      4.925761    -0.000002    -0.186354     4.739407
	   73 D(7,1,6,12)     =      2.138213    -0.000003    -0.249254     1.888958
	   74 D(8,2,3,9)      =     -2.378517     0.000000     0.021416    -2.357102
	   75 D(9,3,4,10)     =     -0.907826     0.000001     0.147247    -0.760579
	   76 D(10,4,5,11)    =     -1.051524     0.000001     0.089286    -0.962237
	   77 D(11,5,6,12)    =     -2.639724     0.000002     0.165016    -2.474708
	   78 D(13,7,14,15)   =      7.148199    -0.000003    -0.484490     6.663709
	   79 D(13,7,14,16)   =   -167.247530    -0.000009    -0.964348  -168.211878
	   80 D(14,7,13,17)   =   -169.400336     0.000009     1.075088  -168.325247
	   81 D(14,7,13,18)   =      4.992398     0.000004     0.514598     5.506996
	 ---------------------------------------------------------------------------
	Successfully symmetrized geometry.

  ==> Convergence Check <==

  Measures of convergence in internal coordinates in au.
  Criteria marked as inactive (o), active & met (*), and active & unmet ( ).
  ---------------------------------------------------------------------------------------------
   Step     Total Energy     Delta E     MAX Force     RMS Force      MAX Disp      RMS Disp   
  ---------------------------------------------------------------------------------------------
    Convergence Criteria    1.00e-06 *    3.00e-04 *             o    1.20e-03 *             o
  ---------------------------------------------------------------------------------------------
      2    -381.47026009   -6.47e-05      2.18e-03      4.57e-04 o    2.86e-02      6.09e-03 o  ~
  ---------------------------------------------------------------------------------------------

	Writing optimization data to binary file.
	Structure for next step:
	Cartesian Geometry (in Angstrom)
	    C    -0.0257103899   0.0021932831  -0.1772886401
	    C     0.0137428035   1.2204392263   0.5276954197
	    C     0.0273529646   1.2142711806   1.9185291813
	    C     0.0126809473   0.0010390847   2.6133494334
	    C    -0.0157227545  -1.2116016062   1.9179625769
	    C    -0.0343419630  -1.2170036554   0.5271339567
	    C    -0.0136385680   0.0014709149  -1.6440748352
	    H    -0.0239582766   2.1681064172  -0.0020754735
	    H     0.0390255335   2.1541181724   2.4607830183
	    H     0.0254881288   0.0005609767   3.6989297088
	    H    -0.0092395601  -2.1519325447   2.4594796150
	    H    -0.0013753871  -2.1640552246  -0.0038538327
	    N    -0.6199989910  -0.9732220725  -2.3172245492
	    N     0.6191113673   0.9666332245  -2.3068484949
	    H     0.5821031122   1.0540103459  -3.3155094144
	    H     1.2277886121   1.6061393610  -1.8136701598
	    H    -1.2463974680  -1.6064232405  -1.8381224347
	    H    -0.5569101112  -1.0647448434  -3.3241950756
			--------------------------
			 OPTKING Finished Execution 
			--------------------------

    Structure for next step:
    Molecular point group: c1
    Full point group: C1

    Geometry (in Angstrom), charge = 1, multiplicity = 1:

    C           -0.025710389868     0.002193283123    -0.177288640105
    C            0.013742803533     1.220439226257     0.527695419660
    C            0.027352964592     1.214271180552     1.918529181287
    C            0.012680947274     0.001039084685     2.613349433446
    C           -0.015722754463    -1.211601606154     1.917962576910
    C           -0.034341962972    -1.217003655401     0.527133956746
    C           -0.013638567972     0.001470914872    -1.644074835161
    H           -0.023958276629     2.168106417233    -0.002075473524
    H            0.039025533491     2.154118172403     2.460783018340
    H            0.025488128818     0.000560976668     3.698929708776
    H           -0.009239560064    -2.151932544704     2.459479615029
    H           -0.001375387091    -2.164055224610    -0.003853832705
    N           -0.619998990993    -0.973222072508    -2.317224549221
    N            0.619111367335     0.966633224506    -2.306848494944
    H            0.582103112179     1.054010345919    -3.315509414443
    H            1.227788612099     1.606139361049    -1.813670159796
    H           -1.246397468025    -1.606423240455    -1.838122434726
    H           -0.556910111246    -1.064744843435    -3.324195075570

gradient() will perform analytic gradient computation.

*** tstart() called on rosa.prib.upf.edu
*** at Sat Sep 29 20:42:13 2018

   => Loading Basis Set <=

    Name: 6-31G*
    Role: ORBITAL
    Keyword: BASIS
    atoms 1-7         entry C          line   111 file /shared/joao/test_parameterize/miniconda3/share/psi4/basis/6-31gs.gbs 
    atoms 8-12, 15-18 entry H          line    44 file /shared/joao/test_parameterize/miniconda3/share/psi4/basis/6-31gs.gbs 
    atoms 13-14       entry N          line   128 file /shared/joao/test_parameterize/miniconda3/share/psi4/basis/6-31gs.gbs 


         ---------------------------------------------------------
                                   SCF
            by Justin Turney, Rob Parrish, Andy Simmonett
                             and Daniel Smith
                              RKS Reference
                        4 Threads,   2861 MiB Core
         ---------------------------------------------------------

  ==> Geometry <==

    Molecular point group: c1
    Full point group: C1

    Geometry (in Angstrom), charge = 1, multiplicity = 1:

[...]
	             0.0015219217       -0.0000802097       -0.0000158262
	            -0.0000165709        0.0000011780        0.0000017107
	            -0.0000121793       -0.0000048199        0.0000147375
	            -0.0000042403       -0.0000087747        0.0000111219
	             0.0000162512        0.0000148167       -0.0000308997
	            -0.0012479676        0.0011956820       -0.0000255257
	            -0.0000042810        0.0000067566       -0.0000052852
	             0.0000035678        0.0000013596       -0.0000057294
	             0.0000116855       -0.0000041580       -0.0000017679
	            -0.0000020137        0.0000020974       -0.0000019702
	            -0.0000097763       -0.0000043363        0.0000076760
	             0.0013043628       -0.0008009829        0.0000195610
	             0.0000095308       -0.0000302279        0.0000382845
	            -0.0000017415       -0.0000037835       -0.0000029687
	            -0.0000129445        0.0000046058        0.0000001549
	             0.0000208470       -0.0000056536       -0.0000091807
	             0.0000129710       -0.0000156131        0.0000001939

	---Fragment 1 Intrafragment Coordinates---
	 - Coordinate -           - BOHR/RAD -       - ANG/DEG -
	 R(1,2)           =         2.660910	       1.408093
	 R(1,6)           =         2.660898	       1.408086
	 R(1,7)           =         2.770934	       1.466315
	 R(2,3)           =         2.628362	       1.390869
	 R(2,8)           =         2.052996	       1.086399
	 R(3,4)           =         2.642475	       1.398338
	 R(3,9)           =         2.050578	       1.085119
	 R(4,5)           =         2.642121	       1.398150
	 R(4,10)          =         2.051577	       1.085648
	 R(5,6)           =         2.628703	       1.391050
	 R(5,11)          =         2.050584	       1.085122
	 R(6,12)          =         2.052679	       1.086231
	 R(7,13)          =         2.515118	       1.330943
	 R(7,14)          =         2.514678	       1.330710
	 R(13,17)         =         1.911233	       1.011381
	 R(13,18)         =         1.914541	       1.013131
	 R(14,15)         =         1.914558	       1.013140
	 R(14,16)         =         1.911097	       1.011309
	 B(1,2,3)         =         2.090883	     119.798775
	 B(1,2,8)         =         2.105104	     120.613598
	 B(1,6,5)         =         2.090620	     119.783729
	 B(1,6,12)        =         2.105769	     120.651700
	 B(1,7,13)        =         2.096584	     120.125402
	 B(1,7,14)        =         2.096245	     120.106016
	 B(2,1,6)         =         2.093215	     119.932363
	 B(2,1,7)         =         2.095792	     120.080048
	 B(2,3,4)         =         2.095253	     120.049174
	 B(2,3,9)         =         2.089616	     119.726163
	 B(3,2,8)         =         2.085529	     119.492034
	 B(3,4,5)         =         2.100874	     120.371210
	 B(3,4,10)        =         2.091151	     119.814120
	 B(4,3,9)         =         2.098265	     120.221732
	 B(4,5,6)         =         2.095466	     120.061361
	 B(4,5,11)        =         2.098221	     120.219213
	 B(5,4,10)        =         2.091159	     119.814563
	 B(5,6,12)        =         2.085434	     119.486553
	 B(6,1,7)         =         2.093792	     119.965438
	 B(6,5,11)        =         2.089407	     119.714193
	 B(7,13,17)       =         2.095425	     120.059009
	 B(7,13,18)       =         2.141892	     122.721388
	 B(7,14,15)       =         2.142197	     122.738855
	 B(7,14,16)       =         2.096130	     120.099411
	 B(13,7,14)       =         2.090192	     119.759153
	 B(15,14,16)      =         2.041373	     116.962048
	 B(17,13,18)      =         2.040479	     116.910842
	 D(1,2,3,4)       =         0.009098	       0.521273
	 D(1,2,3,9)       =        -3.121649	    -178.857297
	 D(1,6,5,4)       =        -0.000146	      -0.008391
	 D(1,6,5,11)      =        -3.127249	    -179.178186
	 D(1,7,13,17)     =         0.225869	      12.941339
	 D(1,7,13,18)     =        -3.030593	    -173.640196
	 D(1,7,14,15)     =        -3.042344	    -174.313460
	 D(1,7,14,16)     =         0.191638	      10.980036
	 D(2,1,6,5)       =         0.008004	       0.458592
	 D(2,1,6,12)      =        -3.077245	    -176.313170
	*D(2,1,7,13)      =        -2.617994	    -150.000026
	 D(2,1,7,14)      =         0.543139	      31.119554
	 D(2,3,4,5)       =        -0.001240	      -0.071060
	 D(2,3,4,10)      =         3.138279	     179.810129
	 D(3,2,1,6)       =        -0.012489	      -0.715556
	 D(3,2,1,7)       =        -3.124194	    -179.003153
	 D(3,4,5,6)       =        -0.003277	      -0.187743
	 D(3,4,5,11)      =         3.123752	     178.977822
	 D(4,3,2,8)       =         3.089036	     176.988721
	 D(4,5,6,12)      =         3.085763	     176.801197
	 D(5,4,3,9)       =         3.129452	     179.304401
	 D(5,6,1,7)       =         3.119744	     178.748168
	 D(6,1,2,8)       =        -3.091724	    -177.142715
	 D(6,1,7,13)      =         0.553495	      31.712947
	 D(6,1,7,14)      =        -2.568557	    -147.167473
	 D(6,5,4,10)      =         3.140390	     179.931069
	 D(7,1,2,8)       =         0.079756	       4.569689
	 D(7,1,6,12)      =         0.034495	       1.976406
	 D(8,2,3,9)       =        -0.041711	      -2.389848
	 D(9,3,4,10)      =        -0.014214	      -0.814410
	 D(10,4,5,11)     =        -0.015767	      -0.903367
	 D(11,5,6,12)     =        -0.041340	      -2.368598
	 D(13,7,14,15)    =         0.118717	       6.802004
	 D(13,7,14,16)    =        -2.930486	    -167.904500
	 D(14,7,13,17)    =        -2.935196	    -168.174345
	 D(14,7,13,18)    =         0.091527	       5.244121

	Current energy   :      -381.4703167398

	Energy change for the previous step:
		Projected    :        -0.0000016212
		Actual       :        -0.0000008534

	Performing BFGS update.
	Previous computed or guess Hessian on step 1.
	Steps to be used in Hessian update: 4 3
	Taking RFO optimization step.
	Going to follow RFO solution 1.
	Using RFO vector 1.
	Norm of target step-size    0.00295
	Projected energy change by RFO approximation:        -0.0000000534

	Back-transformation to cartesian coordinates...
	Successfully converged to displaced geometry.

	Back-transformation to cartesian coordinates to adjust frozen coordinates...
	Successfully converged to displaced geometry.

	--- Internal Coordinate Step in ANG or DEG, aJ/ANG or AJ/DEG ---
	 ---------------------------------------------------------------------------
	   Coordinate                Previous        Force       Change         New 
	   ----------                --------       ------       ------       ------
	    1 R(1,2)          =      1.408093     0.000253     0.000043     1.408136
	    2 R(1,6)          =      1.408086     0.000045     0.000011     1.408097
	    3 R(1,7)          =      1.466315     0.000238     0.000000     1.466315
	    4 R(2,3)          =      1.390869    -0.000101    -0.000020     1.390850
	    5 R(2,8)          =      1.086399    -0.000066    -0.000008     1.086391
	    6 R(3,4)          =      1.398338    -0.000108    -0.000005     1.398332
	    7 R(3,9)          =      1.085119     0.000008     0.000001     1.085121
	    8 R(4,5)          =      1.398150     0.000007    -0.000001     1.398149
	    9 R(4,10)         =      1.085648     0.000003     0.000000     1.085648
	   10 R(5,6)          =      1.391050    -0.000108    -0.000010     1.391040
	   11 R(5,11)         =      1.085122     0.000018     0.000004     1.085126
	   12 R(6,12)         =      1.086231     0.000007    -0.000000     1.086231
	   13 R(7,13)         =      1.330943     0.000103     0.000033     1.330976
	   14 R(7,14)         =      1.330710     0.000355     0.000035     1.330745
	   15 R(13,17)        =      1.011381     0.000111     0.000021     1.011402
	   16 R(13,18)        =      1.013131    -0.000007     0.000003     1.013134
	   17 R(14,15)        =      1.013140    -0.000012     0.000001     1.013141
	   18 R(14,16)        =      1.011309     0.000035     0.000010     1.011318
	   19 B(1,2,3)        =    119.798775     0.000000     0.000239   119.799014
	   20 B(1,2,8)        =    120.613598     0.000000    -0.002069   120.611529
	   21 B(1,6,5)        =    119.783729    -0.000000    -0.001591   119.782138
	   22 B(1,6,12)       =    120.651700    -0.000001    -0.005438   120.646262
	   23 B(1,7,13)       =    120.125402    -0.000001    -0.005825   120.119578
	   24 B(1,7,14)       =    120.106016     0.000002     0.007801   120.113818
	   25 B(2,1,6)        =    119.932363    -0.000000     0.000222   119.932584
	   26 B(2,1,7)        =    120.080048    -0.000000    -0.000230   120.079818
	   27 B(2,3,4)        =    120.049174    -0.000000    -0.001385   120.047789
	   28 B(2,3,9)        =    119.726163     0.000001     0.002139   119.728302
	   29 B(3,2,8)        =    119.492034    -0.000000     0.002918   119.494952
	   30 B(3,4,5)        =    120.371210     0.000001     0.002073   120.373284
	   31 B(3,4,10)       =    119.814120    -0.000001    -0.002673   119.811448
	   32 B(4,3,9)        =    120.221732    -0.000000    -0.000875   120.220857
	   33 B(4,5,6)        =    120.061361     0.000000     0.000595   120.061956
	   34 B(4,5,11)       =    120.219213    -0.000000     0.000117   120.219331
	   35 B(5,4,10)       =    119.814563    -0.000000     0.000622   119.815185
	   36 B(5,6,12)       =    119.486553     0.000001     0.006350   119.492903
	   37 B(6,1,7)        =    119.965438     0.000001     0.000136   119.965574
	   38 B(6,5,11)       =    119.714193    -0.000000    -0.000695   119.713498
	   39 B(7,13,17)      =    120.059009    -0.000000    -0.006681   120.052328
	   40 B(7,13,18)      =    122.721388    -0.000000    -0.004786   122.716602
	   41 B(7,14,15)      =    122.738855     0.000000     0.000035   122.738890
	   42 B(7,14,16)      =    120.099411    -0.000000    -0.003096   120.096316
	   43 B(13,7,14)      =    119.759153    -0.000001    -0.001925   119.757227
	   44 B(15,14,16)     =    116.962048    -0.000000    -0.000464   116.961584
	   45 B(17,13,18)     =    116.910842     0.000000    -0.002164   116.908678
	   46 D(1,2,3,4)      =      0.521273    -0.000000    -0.013790     0.507483
	   47 D(1,2,3,9)      =   -178.857297    -0.000000    -0.001138  -178.858434
	   48 D(1,6,5,4)      =     -0.008391     0.000000     0.004777    -0.003614
	   49 D(1,6,5,11)     =   -179.178186     0.000000     0.003484  -179.174702
	   50 D(1,7,13,17)    =     12.941339     0.000000     0.076522    13.017861
	   51 D(1,7,13,18)    =   -173.640196    -0.000000    -0.066801  -173.706997
	   52 D(1,7,14,15)    =   -174.313460     0.000000     0.004827  -174.308633
	   53 D(1,7,14,16)    =     10.980036     0.000000     0.051258    11.031294
	   54 D(2,1,6,5)      =      0.458592    -0.000000    -0.012544     0.446048
	   55 D(2,1,6,12)     =   -176.313170     0.000000     0.001257  -176.311913
	   56 *D(2,1,7,13)    =   -150.000026     0.000000     0.000000  -150.000026
	   57 D(2,1,7,14)     =     31.119554    -0.000000    -0.003002    31.116552
	   58 D(2,3,4,5)      =     -0.071060     0.000000     0.006047    -0.065013
	   59 D(2,3,4,10)     =    179.810129     0.000000     0.019468   179.829597
	   60 D(3,2,1,6)      =     -0.715556     0.000000     0.017047    -0.698509
	   61 D(3,2,1,7)      =   -179.003153     0.000000     0.012114  -178.991038
	   62 D(3,4,5,6)      =     -0.187743    -0.000000    -0.001508    -0.189251
	   63 D(3,4,5,11)     =    178.977822    -0.000000    -0.000214   178.977607
	   64 D(4,3,2,8)      =    176.988721     0.000000     0.006283   176.995004
	   65 D(4,5,6,12)     =    176.801197    -0.000000    -0.009244   176.791953
	   66 D(5,4,3,9)      =    179.304401    -0.000000    -0.006649   179.297752
	   67 D(5,6,1,7)      =    178.748168    -0.000000    -0.007623   178.740545
	   68 D(6,1,2,8)      =   -177.142715    -0.000000    -0.003434  -177.146148
	   69 D(6,1,7,13)     =     31.712947     0.000000    -0.004936    31.708012
	   70 D(6,1,7,14)     =   -147.167473     0.000000    -0.007938  -147.175411
	   71 D(6,5,4,10)     =    179.931069    -0.000000    -0.014926   179.916143
	   72 D(7,1,2,8)      =      4.569689     0.000000    -0.008366     4.561322
	   73 D(7,1,6,12)     =      1.976406     0.000000     0.006178     1.982584
	   74 D(8,2,3,9)      =     -2.389848     0.000000     0.018935    -2.370913
	   75 D(9,3,4,10)     =     -0.814410     0.000000     0.006772    -0.807638
	   76 D(10,4,5,11)    =     -0.903367    -0.000000    -0.013632    -0.916999
	   77 D(11,5,6,12)    =     -2.368598    -0.000000    -0.010537    -2.379135
	   78 D(13,7,14,15)   =      6.802004    -0.000000     0.001880     6.803884
	   79 D(13,7,14,16)   =   -167.904500     0.000000     0.048311  -167.856189
	   80 D(14,7,13,17)   =   -168.174345     0.000000     0.079623  -168.094721
	   81 D(14,7,13,18)   =      5.244121    -0.000000    -0.063700     5.180421
	 ---------------------------------------------------------------------------
	Successfully symmetrized geometry.

  ==> Convergence Check <==

  Measures of convergence in internal coordinates in au.
  Criteria marked as inactive (o), active & met (*), and active & unmet ( ).
  ---------------------------------------------------------------------------------------------
   Step     Total Energy     Delta E     MAX Force     RMS Force      MAX Disp      RMS Disp   
  ---------------------------------------------------------------------------------------------
    Convergence Criteria    1.00e-06 *    3.00e-04 *             o    1.20e-03 *             o
  ---------------------------------------------------------------------------------------------
      5    -381.47031674   -8.53e-07 *    4.31e-05 *    1.03e-05 o    1.39e-03      3.28e-04 o  ~
  ---------------------------------------------------------------------------------------------


  **** Optimization is complete! (in 5 steps) ****

  ==> Optimization Summary <==

  Measures of convergence in internal coordinates in au.
  --------------------------------------------------------------------------------------------------------------- ~
   Step         Total Energy             Delta E       MAX Force       RMS Force        MAX Disp        RMS Disp  ~
  --------------------------------------------------------------------------------------------------------------- ~
      1    -381.470195407715   -381.470195407715      0.00266544      0.00057954      0.07882763      0.01512727  ~
      2    -381.470260087572     -0.000064679856      0.00217750      0.00045652      0.02858958      0.00609385  ~
      3    -381.470313769342     -0.000053681770      0.00032856      0.00008222      0.00636920      0.00187637  ~
      4    -381.470315886325     -0.000002116983      0.00019104      0.00005082      0.00324818      0.00069869  ~
      5    -381.470316739775     -0.000000853450      0.00004310      0.00001032      0.00138969      0.00032831  ~
  --------------------------------------------------------------------------------------------------------------- ~

	Writing optimization data to binary file.
	Final energy is   -381.4703167397746
	Final (previous) structure:
	Cartesian Geometry (in Angstrom)
	    C    -0.0230151024   0.0031590635  -0.1774817808
	    C     0.0144262582   1.2211645798   0.5280583575
	    C     0.0263805947   1.2142357959   1.9188590274
	    C     0.0122770794   0.0005336180   2.6131762099
	    C    -0.0153643778  -1.2117509352   1.9171686522
	    C    -0.0329587727  -1.2164256437   0.5262379933
	    C    -0.0137374996   0.0026046989  -1.6437673311
	    H    -0.0241396358   2.1688330738  -0.0017522470
	    H     0.0364510443   2.1538514125   2.4615421780
	    H     0.0248029316  -0.0004758082   3.6987512206
	    H    -0.0095357596  -2.1523758539   2.4581690727
	    H    -0.0016243011  -2.1629836185  -0.0056867713
	    N    -0.6190322574  -0.9742066160  -2.3152340283
	    N     0.6189848034   0.9668356230  -2.3076283246
	    H     0.5811782313   1.0533091980  -3.3163632645
	    H     1.2302653184   1.6045902712  -1.8153371806
	    H    -1.2471045682  -1.6051589429  -1.8353221360
	    H    -0.5582539868  -1.0657409162  -3.3223896476
	Saving final (previous) structure.
	Removing binary optimization data file.
			--------------------------
			 OPTKING Finished Execution 
			--------------------------

    Final optimized geometry and variables:
    Molecular point group: c1
    Full point group: C1

    Geometry (in Angstrom), charge = 1, multiplicity = 1:

    C           -0.023015102413     0.003159063456    -0.177481780792
    C            0.014426258249     1.221164579835     0.528058357534
    C            0.026380594738     1.214235795930     1.918859027439
    C            0.012277079410     0.000533617952     2.613176209899
    C           -0.015364377753    -1.211750935210     1.917168652233
    C           -0.032958772721    -1.216425643701     0.526237993267
    C           -0.013737499596     0.002604698858    -1.643767331065
    H           -0.024139635839     2.168833073767    -0.001752247038
    H            0.036451044299     2.153851412463     2.461542177954
    H            0.024802931567    -0.000475808158     3.698751220638
    H           -0.009535759553    -2.152375853859     2.458169072732
    H           -0.001624301133    -2.162983618458    -0.005686771337
    N           -0.619032257428    -0.974206616006    -2.315234028284
    N            0.618984803404     0.966835623003    -2.307628324593
    H            0.581178231277     1.053309198038    -3.316363264477
    H            1.230265318433     1.604590271202    -1.815337180569
    H           -1.247104568183    -1.605158942880    -1.835322135980
    H           -0.558253986758    -1.065740916233    -3.322389647561

	Removing binary optimization data file.
	Cleaning optimization helper files.


Properties will be evaluated at   0.000000,   0.000000,   0.000000 [a0]
OEProp: No title given, name of density matrix used for the following properties is 'SCF density'
  Nuclear Dipole Moment: [e a0]
     X:    -0.3028      Y:     0.0442      Z:     0.1041

  Electronic Dipole Moment: [e a0]
     X:     0.3052      Y:    -0.0449      Z:    -2.3331

  Dipole Moment: [e a0]
     X:     0.0024      Y:    -0.0007      Z:    -2.2290     Total:     2.2290

  Dipole Moment: [D]
     X:     0.0061      Y:    -0.0018      Z:    -5.6656     Total:     5.6656

  Quadrupole Moment: [D A]
    XX:   -50.5329     YY:   -36.9477     ZZ:   -13.1195
    XY:     6.1202     XZ:     0.0879     YZ:     0.0741

  Traceless Quadrupole Moment: [D A]
    XX:   -16.9996     YY:    -3.4143     ZZ:    20.4139
    XY:     6.1202     XZ:     0.0879     YZ:     0.0741

  Mulliken Charges: (a.u.)
   Center  Symbol    Alpha    Beta     Spin     Total
       1     C     2.95189  2.95189  0.00000  0.09621
       2     C     3.08423  3.08423  0.00000 -0.16846
       3     C     3.06252  3.06252  0.00000 -0.12504
       4     C     3.05133  3.05133  0.00000 -0.10266
       5     C     3.06215  3.06215  0.00000 -0.12429
       6     C     3.08277  3.08277  0.00000 -0.16555
       7     C     2.71799  2.71799  0.00000  0.56402
       8     H     0.41468  0.41468  0.00000  0.17063
       9     H     0.40530  0.40530  0.00000  0.18941
      10     H     0.40358  0.40358  0.00000  0.19284
      11     H     0.40529  0.40529  0.00000  0.18943
      12     H     0.41486  0.41486  0.00000  0.17029
      13     N     3.86605  3.86605  0.00000 -0.73209
      14     N     3.86553  3.86553  0.00000 -0.73107
      15     H     0.30576  0.30576  0.00000  0.38847
      16     H     0.30011  0.30011  0.00000  0.39978
      17     H     0.30019  0.30019  0.00000  0.39962
      18     H     0.30577  0.30577  0.00000  0.38847

   Total alpha = 32.00000, Total beta = 32.00000, Total charge =  1.00000


    Psi4 stopped on: Saturday, 29 September 2018 08:43PM
    Psi4 wall time for execution: 0:02:27.97

*** Psi4 exiting successfully. Buy a developer a beer!
