
    -----------------------------------------------------------------------
          Psi4: An Open-Source Ab Initio Electronic Structure Package
                               Psi4 1.2.1 release

                         Git: Rev {HEAD} 406f4de 


    R. M. Parrish, L. A. Burns, D. G. A. Smith, A. C. Simmonett,
    A. E. DePrince III, E. G. Hohenstein, U. Bozkaya, A. Yu. Sokolov,
    R. Di Remigio, R. M. Richard, J. F. Gonthier, A. M. James,
    H. R. McAlexander, A. Kumar, M. Saitow, X. Wang, B. P. Pritchard,
    P. Verma, H. F. Schaefer III, K. Patkowski, R. A. King, E. F. Valeev,
    F. A. Evangelista, J. M. Turney, T. D. Crawford, and C. D. Sherrill,
    J. Chem. Theory Comput. 13(7) pp 3185--3197 (2017).
    (doi: 10.1021/acs.jctc.7b00174)


                         Additional Contributions by
    P. Kraus, H. Kruse, M. H. Lechner, M. C. Schieber, and R. A. Shaw

    -----------------------------------------------------------------------


    Psi4 started on: Saturday, 29 September 2018 04:50PM

    Process ID: 5819
    Host:       loro.prib.upf.edu
    PSIDATADIR: /shared/joao/test_parameterize/miniconda3/share/psi4
    Memory:     500.0 MiB
    Threads:    1
    
  ==> Input File <==

--------------------------------------------------------------------------
set_num_threads(1)
set_memory('5348 MB')

set { scf_mem_safety_factor 0.7 }

set { reference rks }
set { basis cc-pVDZ }

molecule MOL {
    0 1
    noreorient
    nocom
    symmetry c1
    O    1.141000   0.017000   0.083000
    C    2.558000   0.086000  -0.005000
    C    3.192000  -0.789000   1.067000
    O    4.610000  -0.719000   0.979000
    H    0.789000   0.590000  -0.620000
    H    2.874000   1.128000   0.115000
    H    2.871000  -0.243000  -1.001000
    H    2.876000  -1.830000   0.947000
    H    2.879000  -0.459000   2.064000
    H    4.951575  -0.852801   1.880283
}

set optking { frozen_dihedral = (" 2 3 4 10 ") }

energy, wfn = energy('B3LYP-D3', return_wfn=True)

import os
os.chdir(os.environ['HTMD_PSI4_WORKDIR'])

oeprop(wfn, 'DIPOLE', 'QUADRUPOLE', 'MULLIKEN_CHARGES')

with open('psi4out.xyz', 'w') as f:
    f.write('10 ' )
    f.write('%.12f\n' % energy)
    f.write(MOL.save_string_xyz())
--------------------------------------------------------------------------
  Threads set to 1 by Python driver.

  Memory set to   4.981 GiB by Python driver.

*** tstart() called on loro.prib.upf.edu
*** at Sat Sep 29 16:50:41 2018

   => Loading Basis Set <=

    Name: CC-PVDZ
    Role: ORBITAL
    Keyword: BASIS
    atoms 1, 4 entry O          line   198 file /shared/joao/test_parameterize/miniconda3/share/psi4/basis/cc-pvdz.gbs 
    atoms 2-3  entry C          line   138 file /shared/joao/test_parameterize/miniconda3/share/psi4/basis/cc-pvdz.gbs 
    atoms 5-10 entry H          line    22 file /shared/joao/test_parameterize/miniconda3/share/psi4/basis/cc-pvdz.gbs 


         ---------------------------------------------------------
                                   SCF
            by Justin Turney, Rob Parrish, Andy Simmonett
                             and Daniel Smith
                              RKS Reference
                        1 Threads,   5100 MiB Core
         ---------------------------------------------------------

  ==> Geometry <==

    Molecular point group: c1
    Full point group: C1

    Geometry (in Angstrom), charge = 0, multiplicity = 1:

       Center              X                  Y                   Z               Mass       
    ------------   -----------------  -----------------  -----------------  -----------------
         O            1.141000000000     0.017000000000     0.083000000000    15.994914619560
         C            2.558000000000     0.086000000000    -0.005000000000    12.000000000000
         C            3.192000000000    -0.789000000000     1.067000000000    12.000000000000
         O            4.610000000000    -0.719000000000     0.979000000000    15.994914619560
         H            0.789000000000     0.590000000000    -0.620000000000     1.007825032070
         H            2.874000000000     1.128000000000     0.115000000000     1.007825032070
         H            2.871000000000    -0.243000000000    -1.001000000000     1.007825032070
         H            2.876000000000    -1.830000000000     0.947000000000     1.007825032070
         H            2.879000000000    -0.459000000000     2.064000000000     1.007825032070
         H            4.951575000000    -0.852801000000     1.880283000000     1.007825032070

  Running in c1 symmetry.

  Rotational constants: A =      0.82446  B =      0.02538  C =      0.02487 [cm^-1]
  Rotational constants: A =  24716.54622  B =    760.83018  C =    745.47068 [MHz]
  Nuclear repulsion =  129.473496965713764

  Charge       = 0
  Multiplicity = 1
  Electrons    = 34
  Nalpha       = 17
  Nbeta        = 17

  ==> Algorithm <==

  SCF Algorithm Type is DF.
  DIIS enabled.
  MOM disabled.
  Fractional occupation disabled.
  Guess Type is SAD.
  Energy threshold   = 1.00e-06
  Density threshold  = 1.00e-06
  Integral threshold = 0.00e+00

  ==> Primary Basis <==

  Basis Set: CC-PVDZ
    Blend: CC-PVDZ
    Number of shells: 42
    Number of basis function: 86
    Number of Cartesian functions: 90
    Spherical Harmonics?: true
    Max angular momentum: 2

  ==> DFT Potential <==

   => Composite Functional: B3LYP-D3ZERO <= 

    B3LYP-d3zero Hyb-GGA Exchange-Correlation Functional

    P. J. Stephens, F. J. Devlin, C. F. Chabalowski, and M. J. Frisch, J. Phys. Chem. 98, 11623 (1994)

    Deriv               =              1
    GGA                 =           TRUE
    Meta                =          FALSE

    Exchange Hybrid     =           TRUE
    MP2 Hybrid          =          FALSE

   => Exchange Functionals <=

    0.0800   Slater exchange
    0.7200         Becke 88

   => Exact (HF) Exchange <=

    0.2000               HF 

   => Correlation Functionals <=

    0.1900   Vosko, Wilk & Nusair (VWN5_RPA)
    0.8100   Lee, Yang & Parr

   => Molecular Quadrature <=

    Radial Scheme       =       TREUTLER
    Pruning Scheme      =           FLAT
    Nuclear Scheme      =       TREUTLER

    BS radius alpha     =              1
    Pruning alpha       =              1
    Radial Points       =             75
    Spherical Points    =            302
    Total Points        =         222569
    Total Blocks        =           1728
    Max Points          =            256
    Max Functions       =             86

   => -D3ZERO: Empirical Dispersion <=

    Grimme's -D3 (zero-damping) Dispersion Correction
    Grimme S.; Antony J.; Ehrlich S.; Krieg H. (2010), J. Chem. Phys., 132: 154104

        S6 =   1.000000E+00
        S8 =   1.703000E+00
       SR6 =   1.261000E+00
       SR8 =   1.000000E+00
    ALPHA6 =   1.400000E+01

   => Loading Basis Set <=

    Name: (CC-PVDZ AUX)
    Role: JKFIT
    Keyword: DF_BASIS_SCF
    atoms 1, 4 entry O          line   221 file /shared/joao/test_parameterize/miniconda3/share/psi4/basis/cc-pvdz-jkfit.gbs 
    atoms 2-3  entry C          line   121 file /shared/joao/test_parameterize/miniconda3/share/psi4/basis/cc-pvdz-jkfit.gbs 
    atoms 5-10 entry H          line    51 file /shared/joao/test_parameterize/miniconda3/share/psi4/basis/cc-pvdz-jkfit.gbs 

  ==> Pre-Iterations <==

   -------------------------------------------------------
    Irrep   Nso     Nmo     Nalpha   Nbeta   Ndocc  Nsocc
   -------------------------------------------------------
     A         86      86       0       0       0       0
   -------------------------------------------------------
    Total      86      86      17      17      17       0
   -------------------------------------------------------

  ==> Integral Setup <==

  DFHelper Memory: AOs need 0.030 [GiB]; user supplied 3.486 [GiB]. Using in-core AOs.

  ==> MemDFJK: Density-Fitted J/K Matrices <==

    J tasked:                   Yes
    K tasked:                   Yes
    wK tasked:                   No
    OpenMP threads:               1
    Memory (MB):               3570
    Algorithm:                 Core
    Schwarz Cutoff:           1E-12
    Mask sparsity (%):       0.5949
    Fitting Condition:        1E-12

   => Auxiliary Basis Set <=

  Basis Set: (CC-PVDZ AUX)
    Blend: CC-PVDZ-JKFIT
    Number of shells: 150
    Number of basis function: 418
    Number of Cartesian functions: 474
    Spherical Harmonics?: true
    Max angular momentum: 3

  Minimum eigenvalue in the overlap matrix is 5.0990946395E-03.
  Using Symmetric Orthogonalization.

  SCF Guess: Superposition of Atomic Densities via on-the-fly atomic UHF.

  ==> Iterations <==

                           Total Energy        Delta E     RMS |[F,P]|

   @DF-RKS iter   0:  -231.05380404792544   -2.31054e+02   4.13954e-02 
   @DF-RKS iter   1:  -230.19034365927385    8.63460e-01   4.70440e-03 
   @DF-RKS iter   2:  -230.16360738924996    2.67363e-02   5.90029e-03 DIIS
   @DF-RKS iter   3:  -230.25549474916954   -9.18874e-02   6.90850e-04 DIIS
   @DF-RKS iter   4:  -230.25676663022460   -1.27188e-03   2.06127e-04 DIIS
   @DF-RKS iter   5:  -230.25691307345181   -1.46443e-04   5.01619e-05 DIIS
   @DF-RKS iter   6:  -230.25692198889962   -8.91545e-06   4.16883e-06 DIIS
   @DF-RKS iter   7:  -230.25692203620224   -4.73026e-08   1.97191e-06 DIIS
   @DF-RKS iter   8:  -230.25692204543117   -9.22893e-09   7.28429e-07 DIIS

  ==> Post-Iterations <==

    Orbital Energies [Eh]
    ---------------------

    Doubly Occupied:                                                      

       1A    -19.132079     2A    -19.131157     3A    -10.226431  
       4A    -10.225248     5A     -1.018899     6A     -1.008576  
       7A     -0.731846     8A     -0.604294     9A     -0.526042  
      10A     -0.485552    11A     -0.466870    12A     -0.414565  
      13A     -0.395316    14A     -0.347037    15A     -0.320102  
      16A     -0.265229    17A     -0.263407  

    Virtual:                                                              

      18A      0.042033    19A      0.056590    20A      0.109532  
      21A      0.118832    22A      0.124062    23A      0.167159  
      24A      0.188967    25A      0.244510    26A      0.245854  
      27A      0.437996    28A      0.445478    29A      0.498392  
      30A      0.537384    31A      0.553591    32A      0.591104  
      33A      0.612267    34A      0.625679    35A      0.630804  
      36A      0.649088    37A      0.655391    38A      0.682621  
      39A      0.887098    40A      0.895328    41A      0.914172  
      42A      0.966387    43A      1.011425    44A      1.056287  
      45A      1.062042    46A      1.175958    47A      1.180018  
      48A      1.214268    49A      1.247466    50A      1.317450  
      51A      1.345300    52A      1.369269    53A      1.474182  
      54A      1.552272    55A      1.600052    56A      1.624002  
      57A      1.626924    58A      1.651371    59A      1.654744  
      60A      1.699777    61A      1.749332    62A      1.764228  
      63A      1.793904    64A      1.878807    65A      1.905615  
      66A      1.986450    67A      2.031818    68A      2.066507  
      69A      2.115078    70A      2.144910    71A      2.259037  
      72A      2.292033    73A      2.404073    74A      2.443127  
      75A      2.471557    76A      2.526363    77A      2.918270  
      78A      2.961252    79A      2.980737    80A      3.022931  
      81A      3.067762    82A      3.144791    83A      3.183642  
      84A      3.213367    85A      3.672163    86A      3.703476  

    Final Occupation by Irrep:
              A 
    DOCC [    17 ]

  Energy converged.

  @DF-RKS Final Energy:  -230.25692204543117

   => Energetics <=

    Nuclear Repulsion Energy =            129.4734969657137640
    One-Electron Energy =                -570.7026650174132101
    Two-Electron Energy =                 235.5156601708706603
    DFT Exchange-Correlation Energy =     -24.5390008946023706
    Empirical Dispersion Energy =          -0.0044132700000000
    VV10 Nonlocal Energy =                  0.0000000000000000
    Total Energy =                       -230.2569220454311392



Properties will be evaluated at   0.000000,   0.000000,   0.000000 [a0]

Properties computed using the SCF density matrix

  Nuclear Dipole Moment: [e a0]
     X:   184.7180      Y:   -21.7334      Z:    34.4937

  Electronic Dipole Moment: [e a0]
     X:  -184.7194      Y:    21.9947      Z:   -34.3614

  Dipole Moment: [e a0]
     X:    -0.0013      Y:     0.2613      Z:     0.1323     Total:     0.2929

  Dipole Moment: [D]
     X:    -0.0034      Y:     0.6641      Z:     0.3363     Total:     0.7444


*** tstop() called on loro.prib.upf.edu at Sat Sep 29 16:50:56 2018
Module time:
	user time   =      12.93 seconds =       0.22 minutes
	system time =       0.21 seconds =       0.00 minutes
	total time  =         15 seconds =       0.25 minutes
Total time:
	user time   =      12.93 seconds =       0.22 minutes
	system time =       0.21 seconds =       0.00 minutes
	total time  =         15 seconds =       0.25 minutes


Properties will be evaluated at   0.000000,   0.000000,   0.000000 [a0]
OEProp: No title given, name of density matrix used for the following properties is 'SCF density'
  Nuclear Dipole Moment: [e a0]
     X:   184.7180      Y:   -21.7334      Z:    34.4937

  Electronic Dipole Moment: [e a0]
     X:  -184.7194      Y:    21.9947      Z:   -34.3614

  Dipole Moment: [e a0]
     X:    -0.0013      Y:     0.2613      Z:     0.1323     Total:     0.2929

  Dipole Moment: [D]
     X:    -0.0034      Y:     0.6641      Z:     0.3363     Total:     0.7444

  Quadrupole Moment: [D A]
    XX:   -26.5870     YY:   -24.0120     ZZ:   -19.5178
    XY:    -0.2758     XZ:     6.3589     YZ:    -2.3180

  Traceless Quadrupole Moment: [D A]
    XX:    -3.2148     YY:    -0.6397     ZZ:     3.8545
    XY:    -0.2758     XZ:     6.3589     YZ:    -2.3180

  Mulliken Charges: (a.u.)
   Center  Symbol    Alpha    Beta     Spin     Total
       1     O     4.14066  4.14066  0.00000 -0.28132
       2     C     2.93584  2.93584  0.00000  0.12832
       3     C     2.93699  2.93699  0.00000  0.12602
       4     O     4.14050  4.14050  0.00000 -0.28100
       5     H     0.42753  0.42753  0.00000  0.14493
       6     H     0.50029  0.50029  0.00000 -0.00058
       7     H     0.49743  0.49743  0.00000  0.00515
       8     H     0.49587  0.49587  0.00000  0.00826
       9     H     0.49797  0.49797  0.00000  0.00406
      10     H     0.42692  0.42692  0.00000  0.14615

   Total alpha = 17.00000, Total beta = 17.00000, Total charge = -0.00000


    Psi4 stopped on: Saturday, 29 September 2018 04:50PM
    Psi4 wall time for execution: 0:00:15.18

*** Psi4 exiting successfully. Buy a developer a beer!
