
    -----------------------------------------------------------------------
          Psi4: An Open-Source Ab Initio Electronic Structure Package
                               Psi4 1.2.1 release

                         Git: Rev {HEAD} 406f4de 


    R. M. Parrish, L. A. Burns, D. G. A. Smith, A. C. Simmonett,
    A. E. DePrince III, E. G. Hohenstein, U. Bozkaya, A. Yu. Sokolov,
    R. Di Remigio, R. M. Richard, J. F. Gonthier, A. M. James,
    H. R. McAlexander, A. Kumar, M. Saitow, X. Wang, B. P. Pritchard,
    P. Verma, H. F. Schaefer III, K. Patkowski, R. A. King, E. F. Valeev,
    F. A. Evangelista, J. M. Turney, T. D. Crawford, and C. D. Sherrill,
    J. Chem. Theory Comput. 13(7) pp 3185--3197 (2017).
    (doi: 10.1021/acs.jctc.7b00174)


                         Additional Contributions by
    P. Kraus, H. Kruse, M. H. Lechner, M. C. Schieber, and R. A. Shaw

    -----------------------------------------------------------------------


    Psi4 started on: Saturday, 29 September 2018 08:49PM

    Process ID: 19205
    Host:       green.prib.upf.edu
    PSIDATADIR: /shared/joao/test_parameterize/miniconda3/share/psi4
    Memory:     500.0 MiB
    Threads:    1
    
  ==> Input File <==

--------------------------------------------------------------------------
set_num_threads(4)
set_memory('3000 MB')

set { scf_mem_safety_factor 0.7 }

set { reference rks }
set { basis 6-31G* }

molecule MOL {
    1 1
    noreorient
    nocom
    symmetry c1
    C   -0.000000  -0.000000  -0.177864
    C    0.036678   1.219374   0.524165
    C    0.031765   1.213120   1.915444
    C    0.000000   0.000000   2.610107
    C   -0.031765  -1.213120   1.915444
    C   -0.036678  -1.219375   0.524165
    C   -0.000000   0.000000  -1.644734
    H    0.018170   2.164705  -0.010854
    H    0.042402   2.152895   2.457886
    H    0.000000   0.000000   3.695756
    H   -0.042402  -2.152895   2.457886
    H   -0.018170  -2.164705  -0.010853
    N    1.015073   0.546037  -2.308460
    N   -1.015073  -0.546037  -2.308460
    H   -1.019311  -0.653831  -3.315997
    H   -1.855998  -0.812421  -1.813317
    H    1.855998   0.812421  -1.813316
    H    1.019312   0.653832  -3.315996
}

set optking { frozen_dihedral = (" 2 1 7 13 ") }

set optking { dynamic_level = 1 
 geom_maxiter = 250
 print_trajectory_xyz_file = True }

energy, wfn = optimize('B3LYP-D3', return_wfn=True)

import os
os.chdir(os.environ['HTMD_PSI4_WORKDIR'])

oeprop(wfn, 'DIPOLE', 'QUADRUPOLE', 'MULLIKEN_CHARGES')

with open('psi4out.xyz', 'w') as f:
    f.write('18 ' )
    f.write('%.12f\n' % energy)
    f.write(MOL.save_string_xyz())
--------------------------------------------------------------------------
  Threads set to 4 by Python driver.

  Memory set to   2.794 GiB by Python driver.
gradient() will perform analytic gradient computation.

*** tstart() called on green.prib.upf.edu
*** at Sat Sep 29 20:49:16 2018

   => Loading Basis Set <=

    Name: 6-31G*
    Role: ORBITAL
    Keyword: BASIS
    atoms 1-7         entry C          line   111 file /shared/joao/test_parameterize/miniconda3/share/psi4/basis/6-31gs.gbs 
    atoms 8-12, 15-18 entry H          line    44 file /shared/joao/test_parameterize/miniconda3/share/psi4/basis/6-31gs.gbs 
    atoms 13-14       entry N          line   128 file /shared/joao/test_parameterize/miniconda3/share/psi4/basis/6-31gs.gbs 


         ---------------------------------------------------------
                                   SCF
            by Justin Turney, Rob Parrish, Andy Simmonett
                             and Daniel Smith
                              RKS Reference
                        4 Threads,   2861 MiB Core
         ---------------------------------------------------------

  ==> Geometry <==

    Molecular point group: c1
    Full point group: C1

    Geometry (in Angstrom), charge = 1, multiplicity = 1:

       Center              X                  Y                   Z               Mass       
    ------------   -----------------  -----------------  -----------------  -----------------
         C            0.000000000000     0.000000000000    -0.177864000000    12.000000000000
         C            0.036678000000     1.219374000000     0.524165000000    12.000000000000
         C            0.031765000000     1.213120000000     1.915444000000    12.000000000000
         C            0.000000000000     0.000000000000     2.610107000000    12.000000000000
         C           -0.031765000000    -1.213120000000     1.915444000000    12.000000000000
         C           -0.036678000000    -1.219375000000     0.524165000000    12.000000000000
         C            0.000000000000     0.000000000000    -1.644734000000    12.000000000000
         H            0.018170000000     2.164705000000    -0.010854000000     1.007825032070
         H            0.042402000000     2.152895000000     2.457886000000     1.007825032070
         H            0.000000000000     0.000000000000     3.695756000000     1.007825032070
         H           -0.042402000000    -2.152895000000     2.457886000000     1.007825032070
         H           -0.018170000000    -2.164705000000    -0.010853000000     1.007825032070
         N            1.015073000000     0.546037000000    -2.308460000000    14.003074004780
         N           -1.015073000000    -0.546037000000    -2.308460000000    14.003074004780
         H           -1.019311000000    -0.653831000000    -3.315997000000     1.007825032070
         H           -1.855998000000    -0.812421000000    -1.813317000000     1.007825032070
         H            1.855998000000     0.812421000000    -1.813316000000     1.007825032070
         H            1.019312000000     0.653832000000    -3.315996000000     1.007825032070

  Running in c1 symmetry.

  Rotational constants: A =      0.12190  B =      0.03796  C =      0.03238 [cm^-1]
  Rotational constants: A =   3654.48749  B =   1137.98359  C =    970.70727 [MHz]
  Nuclear repulsion =  416.179304838537462

  Charge       = 1
  Multiplicity = 1
  Electrons    = 64
  Nalpha       = 32
  Nbeta        = 32

  ==> Algorithm <==

  SCF Algorithm Type is DF.
  DIIS enabled.
  MOM disabled.
  Fractional occupation disabled.
  Guess Type is SAD.
  Energy threshold   = 1.00e-08
  Density threshold  = 1.00e-08
  Integral threshold = 0.00e+00

  ==> Primary Basis <==

  Basis Set: 6-31G*
    Blend: 6-31G*
    Number of shells: 72
    Number of basis function: 153
    Number of Cartesian functions: 153
    Spherical Harmonics?: false
    Max angular momentum: 2

  ==> DFT Potential <==

   => Composite Functional: B3LYP-D3ZERO <= 

    B3LYP-d3zero Hyb-GGA Exchange-Correlation Functional

    P. J. Stephens, F. J. Devlin, C. F. Chabalowski, and M. J. Frisch, J. Phys. Chem. 98, 11623 (1994)

    Deriv               =              1
    GGA                 =           TRUE
    Meta                =          FALSE

    Exchange Hybrid     =           TRUE
    MP2 Hybrid          =          FALSE

   => Exchange Functionals <=

    0.0800   Slater exchange
    0.7200         Becke 88

   => Exact (HF) Exchange <=

    0.2000               HF 

   => Correlation Functionals <=

    0.1900   Vosko, Wilk & Nusair (VWN5_RPA)
    0.8100   Lee, Yang & Parr

   => Molecular Quadrature <=

    Radial Scheme       =       TREUTLER
    Pruning Scheme      =           FLAT
    Nuclear Scheme      =       TREUTLER

    BS radius alpha     =              1
    Pruning alpha       =              1
    Radial Points       =             75
    Spherical Points    =            302
    Total Points        =         397204
    Total Blocks        =           3017
    Max Points          =            256
    Max Functions       =            148

   => -D3ZERO: Empirical Dispersion <=

    Grimme's -D3 (zero-damping) Dispersion Correction
    Grimme S.; Antony J.; Ehrlich S.; Krieg H. (2010), J. Chem. Phys., 132: 154104

        S6 =   1.000000E+00
        S8 =   1.703000E+00
       SR6 =   1.261000E+00
       SR8 =   1.000000E+00
    ALPHA6 =   1.400000E+01

   => Loading Basis Set <=

    Name: (6-31G* AUX)
    Role: JKFIT
    Keyword: DF_BASIS_SCF
    atoms 1-7         entry C          line   121 file /shared/joao/test_parameterize/miniconda3/share/psi4/basis/cc-pvdz-jkfit.gbs 
    atoms 8-12, 15-18 entry H          line    51 file /shared/joao/test_parameterize/miniconda3/share/psi4/basis/cc-pvdz-jkfit.gbs 
    atoms 13-14       entry N          line   171 file /shared/joao/test_parameterize/miniconda3/share/psi4/basis/cc-pvdz-jkfit.gbs 

  ==> Pre-Iterations <==

   -------------------------------------------------------
    Irrep   Nso     Nmo     Nalpha   Nbeta   Ndocc  Nsocc
   -------------------------------------------------------
     A        153     153       0       0       0       0
   -------------------------------------------------------
    Total     153     153      32      32      32       0
   -------------------------------------------------------

  ==> Integral Setup <==

  ==> DiskDFJK: Density-Fitted J/K Matrices <==

    J tasked:                  Yes
    K tasked:                  Yes
    wK tasked:                  No
    OpenMP threads:              4
    Integrals threads:           4
    Memory (MB):              2002
    Algorithm:                Core
    Integral Cache:           NONE
    Schwarz Cutoff:          1E-12
    Fitting Condition:       1E-12

   => Auxiliary Basis Set <=

  Basis Set: (6-31G* AUX)
    Blend: CC-PVDZ-JKFIT
    Number of shells: 297
    Number of basis function: 954
    Number of Cartesian functions: 954
    Spherical Harmonics?: false
    Max angular momentum: 3

  Minimum eigenvalue in the overlap matrix is 4.8836541417E-04.
  Using Symmetric Orthogonalization.

  SCF Guess: Superposition of Atomic Densities via on-the-fly atomic UHF.

  ==> Iterations <==

                           Total Energy        Delta E     RMS |[F,P]|

   @DF-RKS iter   0:  -379.68867831697827   -3.79689e+02   6.85001e-02 
   @DF-RKS iter   1:  -381.05918572007590   -1.37051e+00   1.15860e-02 
   @DF-RKS iter   2:  -380.99998099757278    5.92047e-02   1.24911e-02 DIIS
   @DF-RKS iter   3:  -381.46225009329549   -4.62269e-01   1.30272e-03 DIIS
   @DF-RKS iter   4:  -381.46597627629615   -3.72618e-03   6.36623e-04 DIIS
   @DF-RKS iter   5:  -381.46702934204177   -1.05307e-03   1.99307e-04 DIIS
   @DF-RKS iter   6:  -381.46713094714505   -1.01605e-04   8.43857e-05 DIIS
   @DF-RKS iter   7:  -381.46715359235719   -2.26452e-05   1.31369e-05 DIIS
   @DF-RKS iter   8:  -381.46715401853578   -4.26179e-07   5.82695e-06 DIIS
   @DF-RKS iter   9:  -381.46715411301477   -9.44790e-08   1.46558e-06 DIIS
   @DF-RKS iter  10:  -381.46715411784828   -4.83351e-09   6.81239e-07 DIIS
   @DF-RKS iter  11:  -381.46715411913129   -1.28301e-09   7.60050e-08 DIIS
   @DF-RKS iter  12:  -381.46715411914334   -1.20508e-11   4.21007e-08 DIIS
   @DF-RKS iter  13:  -381.46715411914778   -4.43379e-12   1.29321e-08 DIIS
   @DF-RKS iter  14:  -381.46715411914812   -3.41061e-13   4.34895e-09 DIIS

  ==> Post-Iterations <==

    Orbital Energies [Eh]
    ---------------------

    Doubly Occupied:                                                      

       1A    -14.572172     2A    -14.572165     3A    -10.500541  
       4A    -10.369891     5A    -10.351723     6A    -10.351715  
       7A    -10.337563     8A    -10.335945     9A    -10.335855  
      10A     -1.186559    11A     -1.094357    12A     -1.010752  
      13A     -0.924706    14A     -0.897655    15A     -0.844880  
      16A     -0.786915    17A     -0.766916    18A     -0.748882  
      19A     -0.729670    20A     -0.690450    21A     -0.668504  
      22A     -0.620121    23A     -0.619871    24A     -0.578155  
      25A     -0.576082    26A     -0.568120    27A     -0.516868  
      28A     -0.500344    29A     -0.493154    30A     -0.476397  
      31A     -0.407810    32A     -0.401226  

    Virtual:                                                              

      33A     -0.208509    34A     -0.151365    35A     -0.148741  
      36A     -0.110649    37A     -0.064989    38A     -0.063475  
      39A     -0.036209    40A     -0.028681    41A      0.007505  
      42A      0.014050    43A      0.023582    44A      0.057290  
      45A      0.060638    46A      0.075464    47A      0.140747  
      48A      0.143271    49A      0.163009    50A      0.167463  
      51A      0.202155    52A      0.231812    53A      0.293788  
      54A      0.347029    55A      0.356838    56A      0.381333  
      57A      0.390014    58A      0.398576    59A      0.410137  
      60A      0.424707    61A      0.445935    62A      0.450807  
      63A      0.451707    64A      0.468061    65A      0.475292  
      66A      0.479361    67A      0.485789    68A      0.500095  
      69A      0.512781    70A      0.535550    71A      0.553483  
      72A      0.587487    73A      0.589279    74A      0.641855  
      75A      0.664594    76A      0.681829    77A      0.684425  
      78A      0.698221    79A      0.701285    80A      0.708869  
      81A      0.728338    82A      0.751347    83A      0.777960  
      84A      0.792653    85A      0.811057    86A      0.829493  
      87A      0.852742    88A      0.939883    89A      0.967564  
      90A      1.001614    91A      1.007416    92A      1.026393  
      93A      1.041715    94A      1.083547    95A      1.149044  
      96A      1.173031    97A      1.210533    98A      1.283714  
      99A      1.289981   100A      1.320158   101A      1.323882  
     102A      1.347269   103A      1.361847   104A      1.368995  
     105A      1.452525   106A      1.452642   107A      1.480473  
     108A      1.606652   109A      1.628394   110A      1.651291  
     111A      1.668340   112A      1.736265   113A      1.758550  
     114A      1.796001   115A      1.830556   116A      1.848673  
     117A      1.892725   118A      1.910295   119A      1.975971  
     120A      1.980194   121A      2.001927   122A      2.005363  
     123A      2.042244   124A      2.063536   125A      2.125944  
     126A      2.129163   127A      2.164195   128A      2.204651  
     129A      2.216929   130A      2.265313   131A      2.376981  
     132A      2.383909   133A      2.412190   134A      2.450837  
     135A      2.499774   136A      2.566578   137A      2.569229  
     138A      2.588802   139A      2.599443   140A      2.629444  
     141A      2.728896   142A      2.885337   143A      2.945408  
     144A      3.258527   145A      3.635380   146A      3.637213  
     147A      3.935797   148A      3.964545   149A      3.969933  
     150A      4.083829   151A      4.182603   152A      4.260808  
     153A      4.550169  

    Final Occupation by Irrep:
              A 
    DOCC [    32 ]

  Energy converged.

  @DF-RKS Final Energy:  -381.46715411914812

   => Energetics <=

    Nuclear Repulsion Energy =            416.1793048385374618
    One-Electron Energy =               -1327.6752660265474333
    Two-Electron Energy =                 574.4437533272397332
    DFT Exchange-Correlation Energy =     -44.4031870083779268
    Empirical Dispersion Energy =          -0.0117592500000000
    VV10 Nonlocal Energy =                  0.0000000000000000
    Total Energy =                       -381.4671541191481197



Properties will be evaluated at   0.000000,   0.000000,   0.000000 [a0]

Properties computed using the SCF density matrix

  Nuclear Dipole Moment: [e a0]
     X:     0.0000      Y:    -0.0000      Z:     0.0248

  Electronic Dipole Moment: [e a0]
     X:    -0.0000      Y:     0.0000      Z:    -2.4465

  Dipole Moment: [e a0]
     X:     0.0000      Y:     0.0000      Z:    -2.4217     Total:     2.4217

  Dipole Moment: [D]
     X:     0.0000      Y:     0.0000      Z:    -6.1554     Total:     6.1554


*** tstop() called on green.prib.upf.edu at Sat Sep 29 20:49:43 2018
Module time:
	user time   =      97.35 seconds =       1.62 minutes
	system time =       0.51 seconds =       0.01 minutes
	total time  =         27 seconds =       0.45 minutes
Total time:
	user time   =      97.35 seconds =       1.62 minutes
	system time =       0.51 seconds =       0.01 minutes
	total time  =         27 seconds =       0.45 minutes

*** tstart() called on green.prib.upf.edu
*** at Sat Sep 29 20:49:43 2018


         ------------------------------------------------------------
                                   SCF GRAD                          
                          Rob Parrish, Justin Turney,                
                       Andy Simmonett, and Alex Sokolov              
         ------------------------------------------------------------

  ==> Geometry <==

    Molecular point group: c1
    Full point group: C1

    Geometry (in Angstrom), charge = 1, multiplicity = 1:

       Center              X                  Y                   Z               Mass       
    ------------   -----------------  -----------------  -----------------  -----------------
         C            0.000000000000     0.000000000000    -0.177864000000    12.000000000000
         C            0.036678000000     1.219374000000     0.524165000000    12.000000000000
         C            0.031765000000     1.213120000000     1.915444000000    12.000000000000
         C            0.000000000000     0.000000000000     2.610107000000    12.000000000000
         C           -0.031765000000    -1.213120000000     1.915444000000    12.000000000000
         C           -0.036678000000    -1.219375000000     0.524165000000    12.000000000000
         C            0.000000000000     0.000000000000    -1.644734000000    12.000000000000
         H            0.018170000000     2.164705000000    -0.010854000000     1.007825032070
         H            0.042402000000     2.152895000000     2.457886000000     1.007825032070
         H            0.000000000000     0.000000000000     3.695756000000     1.007825032070
         H           -0.042402000000    -2.152895000000     2.457886000000     1.007825032070
         H           -0.018170000000    -2.164705000000    -0.010853000000     1.007825032070
         N            1.015073000000     0.546037000000    -2.308460000000    14.003074004780
         N           -1.015073000000    -0.546037000000    -2.308460000000    14.003074004780
         H           -1.019311000000    -0.653831000000    -3.315997000000     1.007825032070
         H           -1.855998000000    -0.812421000000    -1.813317000000     1.007825032070
         H            1.855998000000     0.812421000000    -1.813316000000     1.007825032070
         H            1.019312000000     0.653832000000    -3.315996000000     1.007825032070

  Nuclear repulsion =  416.179304838537462

  ==> Basis Set <==

  Basis Set: 6-31G*
    Blend: 6-31G*
    Number of shells: 72
    Number of basis function: 153
    Number of Cartesian functions: 153
    Spherical Harmonics?: false
    Max angular momentum: 2

  ==> DFJKGrad: Density-Fitted SCF Gradients <==

    Gradient:                    1
    J tasked:                  Yes
    K tasked:                  Yes
    wK tasked:                  No
    OpenMP threads:              4
    Integrals threads:           4
    Memory (MB):              2002
    Schwarz Cutoff:          0E+00
    Fitting Condition:       1E-12

   => Auxiliary Basis Set <=

  Basis Set: (6-31G* AUX)
    Blend: CC-PVDZ-JKFIT
    Number of shells: 297
    Number of basis function: 954
    Number of Cartesian functions: 954
    Spherical Harmonics?: false
    Max angular momentum: 3

  ==> DFT Potential <==

   => Composite Functional: B3LYP-D3ZERO <= 

    B3LYP-d3zero Hyb-GGA Exchange-Correlation Functional

    P. J. Stephens, F. J. Devlin, C. F. Chabalowski, and M. J. Frisch, J. Phys. Chem. 98, 11623 (1994)

    Deriv               =              1
    GGA                 =           TRUE
    Meta                =          FALSE

    Exchange Hybrid     =           TRUE
    MP2 Hybrid          =          FALSE

   => Exchange Functionals <=

    0.0800   Slater exchange
    0.7200         Becke 88

   => Exact (HF) Exchange <=

    0.2000               HF 

   => Correlation Functionals <=

    0.1900   Vosko, Wilk & Nusair (VWN5_RPA)
    0.8100   Lee, Yang & Parr

   => Molecular Quadrature <=

    Radial Scheme       =       TREUTLER
    Pruning Scheme      =           FLAT
    Nuclear Scheme      =       TREUTLER

    BS radius alpha     =              1
    Pruning alpha       =              1
    Radial Points       =             75
    Spherical Points    =            302
    Total Points        =         397204
    Total Blocks        =           3017
    Max Points          =            256
    Max Functions       =            148


  -Total Gradient:
     Atom            X                  Y                   Z
    ------   -----------------  -----------------  -----------------
       1        0.000000002820     0.000000436780    -0.007848693731
       2       -0.000715532185    -0.000687118125     0.002872950277
       3        0.000630290408     0.001443427480    -0.001186183639
       4       -0.000000001171    -0.000000107998     0.000052040890
       5       -0.000630288718    -0.001443201114    -0.001186095158
       6        0.000715537668     0.000685677971     0.002872612354
       7        0.000000040176     0.000000046480     0.008455785203
       8       -0.001512359675     0.000409504333     0.000979699549
       9       -0.000017135297    -0.000095160651     0.000095414748
      10        0.000000000558     0.000000008722    -0.000023134265
      11        0.000017134743     0.000095198368     0.000095334815
      12        0.001512342985    -0.000408706082     0.000980195851
      13        0.002368449366     0.000150017935    -0.002550464413
      14       -0.002368939731    -0.000150104848    -0.002549370850
      15        0.000309397266    -0.000161543422     0.000882044366
      16       -0.000397743966     0.001261336413    -0.001411652568
      17        0.000398101759    -0.001261231516    -0.001411422755
      18       -0.000309296974     0.000161519203     0.000882808878


*** tstop() called on green.prib.upf.edu at Sat Sep 29 20:49:50 2018
Module time:
	user time   =      26.15 seconds =       0.44 minutes
	system time =       0.25 seconds =       0.00 minutes
	total time  =          7 seconds =       0.12 minutes
Total time:
	user time   =     123.56 seconds =       2.06 minutes
	system time =       0.77 seconds =       0.01 minutes
	total time  =         34 seconds =       0.57 minutes

			-----------------------------------------
			 OPTKING 2.0: for geometry optimizations 
			  - R.A. King,  Bethel University        
			-----------------------------------------
	At level 1: Red. Int., RFO, no backsteps, dynamic trust

	Internal coordinates to be generated automatically.
	Detected frag 1 with atoms:  1 2 3 4 5 6 7 8 9 10 11 12 13 14 15 16 17 18
	---Fragment 1 Bond Connectivity---
	 1 : 2 6 7
	 2 : 1 3 8
	 3 : 2 4 9
	 4 : 3 5 10
	 5 : 4 6 11
	 6 : 1 5 12
	 7 : 1 13 14
	 8 : 2
	 9 : 3
	 10 : 4
	 11 : 5
	 12 : 6
	 13 : 7 17 18
	 14 : 7 15 16
	 15 : 14
	 16 : 14
	 17 : 13
	 18 : 13

	Assuming in current code that numbering for constraints corresponds to unified fragment.
	Frozen dihedral atom list: 
	     2     1     7    13
	---Fragment 1 Geometry and Gradient---
	 C           0.0000000000        0.0000000000       -0.3361142489
	 C           0.0693113751        2.3042829136        0.9905282984
	 C           0.0600271506        2.2924645663        3.6196645829
	 C           0.0000000000        0.0000000000        4.9323874075
	 C          -0.0600271506       -2.2924645663        3.6196645829
	 C          -0.0693113751       -2.3042848033        0.9905282984
	 C           0.0000000000        0.0000000000       -3.1080968214
	 H           0.0343363238        4.0906996085       -0.0205110874
	 H           0.0801281675        4.0683819429        4.6447314059
	 H           0.0000000000        0.0000000000        6.9839666940
	 H          -0.0801281675       -4.0683819429        4.6447314059
	 H          -0.0343363238       -4.0906996085       -0.0205091977
	 N           1.9182099749        1.0318603884       -4.3623571887
	 N          -1.9182099749       -1.0318603884       -4.3623571887
	 H          -1.9262186342       -1.2355615272       -6.2663261875
	 H          -3.5073279232       -1.5352531946       -3.4266725221
	 H           3.5073279232        1.5352531946       -3.4266706324
	 H           1.9262205240        1.2355634169       -6.2663242977
	             0.0000000028        0.0000004368       -0.0078486937
	            -0.0007155322       -0.0006871181        0.0028729503
	             0.0006302904        0.0014434275       -0.0011861836
	            -0.0000000012       -0.0000001080        0.0000520409
	            -0.0006302887       -0.0014432011       -0.0011860952
	             0.0007155377        0.0006856780        0.0028726124
	             0.0000000402        0.0000000465        0.0084557852
	            -0.0015123597        0.0004095043        0.0009796995
	            -0.0000171353       -0.0000951607        0.0000954147
	             0.0000000006        0.0000000087       -0.0000231343
	             0.0000171347        0.0000951984        0.0000953348
	             0.0015123430       -0.0004087061        0.0009801959
	             0.0023684494        0.0001500179       -0.0025504644
	            -0.0023689397       -0.0001501048       -0.0025493709
	             0.0003093973       -0.0001615434        0.0008820444
	            -0.0003977440        0.0012613364       -0.0014116526
	             0.0003981018       -0.0012612315       -0.0014114228
	            -0.0003092970        0.0001615192        0.0008828089

	Previous optimization step data not found.  Starting new optimization.

	---Fragment 1 Intrafragment Coordinates---
	 - Coordinate -           - BOHR/RAD -       - ANG/DEG -
	 R(1,2)           =         2.659794	       1.407502
	 R(1,6)           =         2.659796	       1.407503
	 R(1,7)           =         2.771983	       1.466870
	 R(2,3)           =         2.629179	       1.391302
	 R(2,8)           =         2.052976	       1.086388
	 R(3,4)           =         2.642393	       1.398294
	 R(3,9)           =         2.050622	       1.085142
	 R(4,5)           =         2.642393	       1.398294
	 R(4,10)          =         2.051579	       1.085649
	 R(5,6)           =         2.629179	       1.391302
	 R(5,11)          =         2.050622	       1.085142
	 R(6,12)          =         2.052973	       1.086386
	 R(7,13)          =         2.513451	       1.330061
	 R(7,14)          =         2.513451	       1.330061
	 R(13,17)         =         1.911599	       1.011574
	 R(13,18)         =         1.914850	       1.013295
	 R(14,15)         =         1.914851	       1.013296
	 R(14,16)         =         1.911598	       1.011574
	 B(1,2,3)         =         2.088380	     119.655376
	 B(1,2,8)         =         2.103396	     120.515689
	 B(1,6,5)         =         2.088379	     119.655315
	 B(1,6,12)        =         2.103396	     120.515729
	 B(1,7,13)        =         2.093263	     119.935137
	 B(1,7,14)        =         2.093263	     119.935137
	 B(2,1,6)         =         2.097220	     120.161857
	 B(2,1,7)         =         2.092983	     119.919082
	 B(2,3,4)         =         2.095279	     120.050636
	 B(2,3,9)         =         2.089719	     119.732108
	 B(3,2,8)         =         2.090149	     119.756722
	 B(3,4,5)         =         2.101793	     120.423859
	 B(3,4,10)        =         2.090696	     119.788070
	 B(4,3,9)         =         2.098135	     120.214297
	 B(4,5,6)         =         2.095280	     120.050677
	 B(4,5,11)        =         2.098135	     120.214297
	 B(5,4,10)        =         2.090696	     119.788070
	 B(5,6,12)        =         2.090149	     119.756743
	 B(6,1,7)         =         2.092982	     119.919061
	 B(6,5,11)        =         2.089719	     119.732067
	 B(7,13,17)       =         2.092412	     119.886381
	 B(7,13,18)       =         2.144860	     122.891432
	 B(7,14,15)       =         2.144859	     122.891354
	 B(7,14,16)       =         2.092413	     119.886430
	 B(13,7,14)       =         2.096659	     120.129725
	 B(15,14,16)      =         2.043399	     117.078162
	 B(17,13,18)      =         2.043399	     117.078136
	 D(1,2,3,4)       =         0.007799	       0.446825
	 D(1,2,3,9)       =        -3.122896	    -178.928735
	 D(1,6,5,4)       =         0.007799	       0.446822
	 D(1,6,5,11)      =        -3.122896	    -178.928737
	 D(1,7,13,17)     =         0.187843	      10.762631
	 D(1,7,13,18)     =        -3.032164	    -173.730197
	 D(1,7,14,15)     =        -3.032165	    -173.730236
	 D(1,7,14,16)     =         0.187844	      10.762642
	 D(2,1,6,5)       =        -0.003906	      -0.223802
	 D(2,1,6,12)      =        -3.091437	    -177.126283
	*D(2,1,7,13)      =         1.047198	      60.000011
	 D(2,1,7,14)      =        -2.094395	    -119.999989
	 D(2,3,4,5)       =        -0.003942	      -0.225875
	 D(2,3,4,10)      =         3.137650	     179.774125
	 D(3,2,1,6)       =        -0.003906	      -0.223806
	 D(3,2,1,7)       =         3.137687	     179.776196
	 D(3,4,5,6)       =        -0.003942	      -0.225874
	 D(3,4,5,11)      =         3.126699	     179.146646
	 D(4,3,2,8)       =         3.095744	     177.373058
	 D(4,5,6,12)      =         3.095744	     177.373055
	 D(5,4,3,9)       =         3.126699	     179.146646
	 D(5,6,1,7)       =         3.137687	     179.776197
	 D(6,1,2,8)       =        -3.091437	    -177.126287
	 D(6,1,7,13)      =        -2.094395	    -119.999988
	 D(6,1,7,14)      =         1.047198	      60.000012
	 D(6,5,4,10)      =         3.137650	     179.774126
	 D(7,1,2,8)       =         0.050156	       2.873714
	 D(7,1,6,12)      =         0.050156	       2.873716
	 D(8,2,3,9)       =        -0.034950	      -2.002503
	 D(9,3,4,10)      =        -0.014894	      -0.853354
	 D(10,4,5,11)     =        -0.014894	      -0.853354
	 D(11,5,6,12)     =        -0.034950	      -2.002504
	 D(13,7,14,15)    =         0.109428	       6.269764
	 D(13,7,14,16)    =        -2.953749	    -169.237358
	 D(14,7,13,17)    =        -2.953749	    -169.237369
	 D(14,7,13,18)    =         0.109429	       6.269803

	Current energy   :      -381.4671541191

	Generating empirical Hessian (Schlegel '84) for each fragment.
	Taking RFO optimization step.
	Going to follow RFO solution 1.
	Using RFO vector 1.
	Norm of target step-size    0.30811
	Projected energy change by RFO approximation:        -0.0020421749

	Back-transformation to cartesian coordinates...
	Could not converge backtransformation.
	Using first guess instead.

	Back-transformation to cartesian coordinates to adjust frozen coordinates...
	Successfully converged to displaced geometry.

	--- Internal Coordinate Step in ANG or DEG, aJ/ANG or AJ/DEG ---
	 ---------------------------------------------------------------------------
	   Coordinate                Previous        Force       Change         New 
	   ----------                --------       ------       ------       ------
	    1 R(1,2)          =      1.407502    -0.018094    -0.002665     1.404837
	    2 R(1,6)          =      1.407503    -0.018092    -0.000872     1.406631
	    3 R(1,7)          =      1.466870     0.018924     0.004006     1.470876
	    4 R(2,3)          =      1.391302     0.008912     0.001415     1.392717
	    5 R(2,8)          =      1.086388     0.000827     0.001485     1.087873
	    6 R(3,4)          =      1.398294    -0.000657     0.000468     1.398762
	    7 R(3,9)          =      1.085142     0.000288     0.000270     1.085412
	    8 R(4,5)          =      1.398294    -0.000650     0.000349     1.398643
	    9 R(4,10)         =      1.085649     0.000191     0.000167     1.085816
	   10 R(5,6)          =      1.391302     0.008925     0.001291     1.392593
	   11 R(5,11)         =      1.085142     0.000288     0.001197     1.086339
	   12 R(6,12)         =      1.086386     0.000834     0.002510     1.088897
	   13 R(7,13)         =      1.330061    -0.024898    -0.002294     1.327767
	   14 R(7,14)         =      1.330061    -0.024898     0.001161     1.331222
	   15 R(13,17)        =      1.011574     0.005702     0.004133     1.015707
	   16 R(13,18)        =      1.013295     0.007100     0.001319     1.014614
	   17 R(14,15)        =      1.013296     0.007094     0.001416     1.014712
	   18 R(14,16)        =      1.011574     0.005705     0.006740     1.018314
	   19 B(1,2,3)        =    119.655376    -0.000106    -0.357225   119.298151
	   20 B(1,2,8)        =    120.515689    -0.000026    -0.177284   120.338405
	   21 B(1,6,5)        =    119.655315    -0.000107    -0.376640   119.278674
	   22 B(1,6,12)       =    120.515729    -0.000027    -0.064159   120.451571
	   23 B(1,7,13)       =    119.935137    -0.000176    -0.504881   119.430257
	   24 B(1,7,14)       =    119.935137    -0.000176    -0.717532   119.217605
	   25 B(2,1,6)        =    120.161857     0.000210     0.576741   120.738598
	   26 B(2,1,7)        =    119.919082    -0.000105    -0.306206   119.612875
	   27 B(2,3,4)        =    120.050636     0.000004     0.049000   120.099636
	   28 B(2,3,9)        =    119.732108    -0.000012    -0.090548   119.641560
	   29 B(3,2,8)        =    119.756722     0.000134     0.599110   120.355832
	   30 B(3,4,5)        =    120.423859    -0.000006     0.037415   120.461275
	   31 B(3,4,10)       =    119.788070     0.000003    -0.001910   119.786160
	   32 B(4,3,9)        =    120.214297     0.000008     0.044400   120.258697
	   33 B(4,5,6)        =    120.050677     0.000004     0.023059   120.073737
	   34 B(4,5,11)       =    120.214297     0.000008     0.055280   120.269577
	   35 B(5,4,10)       =    119.788070     0.000003    -0.038341   119.749729
	   36 B(5,6,12)       =    119.756743     0.000135     0.493457   120.250200
	   37 B(6,1,7)        =    119.919061    -0.000105    -0.448304   119.470757
	   38 B(6,5,11)       =    119.732067    -0.000012    -0.077155   119.654911
	   39 B(7,13,17)      =    119.886381    -0.000100    -0.435940   119.450441
	   40 B(7,13,18)      =    122.891432     0.000065     0.294987   123.186419
	   41 B(7,14,15)      =    122.891354     0.000065     0.275339   123.166694
	   42 B(7,14,16)      =    119.886430    -0.000100    -0.173705   119.712725
	   43 B(13,7,14)      =    120.129725     0.000351     1.057582   121.187307
	   44 B(15,14,16)     =    117.078162     0.000040     0.007995   117.086156
	   45 B(17,13,18)     =    117.078136     0.000040     0.251102   117.329237
	   46 D(1,2,3,4)      =      0.446825    -0.000001    -0.446825     0.000000
	   47 D(1,2,3,9)      =   -178.928735    -0.000005    -0.951596  -179.880331
	   48 D(1,6,5,4)      =      0.446822     0.000007     1.347497     1.794319
	   49 D(1,6,5,11)     =   -178.928737     0.000001     0.239732  -178.689005
	   50 D(1,7,13,17)    =     10.762631    -0.000033    -5.454470     5.308161
	   51 D(1,7,13,18)    =   -173.730197    -0.000017    -3.137848  -176.868045
	   52 D(1,7,14,15)    =   -173.730236     0.000006     1.470531  -172.259705
	   53 D(1,7,14,16)    =     10.762642    -0.000010    -0.824453     9.938188
	   54 D(2,1,6,5)      =     -0.223802    -0.000011    -2.504530    -2.728331
	   55 D(2,1,6,12)     =   -177.126283    -0.000021    -3.997581  -181.123864
	   56 *D(2,1,7,13)    =     60.000011    -0.000000    -0.000000    60.000011
	   57 D(2,1,7,14)     =   -119.999989    -0.000023    -4.609773  -124.609762
	   58 D(2,3,4,5)      =     -0.225875    -0.000004    -0.692682    -0.918558
	   59 D(2,3,4,10)     =    179.774125    -0.000001    -0.078573   179.695551
	   60 D(3,2,1,6)      =     -0.223806     0.000008     2.053259     1.829453
	   61 D(3,2,1,7)      =    179.776196    -0.000013    -2.817818   176.958377
	   62 D(3,4,5,6)      =     -0.225874     0.000000     0.232186     0.006311
	   63 D(3,4,5,11)     =    179.146646     0.000007     1.345988   180.492634
	   64 D(4,3,2,8)      =    177.373058     0.000010     1.627535   179.000593
	   65 D(4,5,6,12)     =    177.373055     0.000016     2.820096   180.193151
	   66 D(5,4,3,9)      =    179.146646     0.000000    -0.184804   178.961842
	   67 D(5,6,1,7)      =    179.776197     0.000010     2.359688   182.135885
	   68 D(6,1,2,8)      =   -177.126287    -0.000004    -0.044222  -177.170509
	   69 D(6,1,7,13)     =   -119.999988    -0.000021    -4.808832  -124.808820
	   70 D(6,1,7,14)     =     60.000012    -0.000044    -9.418605    50.581408
	   71 D(6,5,4,10)     =    179.774126    -0.000002    -0.381700   179.392426
	   72 D(7,1,2,8)      =      2.873714    -0.000025    -4.915299    -2.041585
	   73 D(7,1,6,12)     =      2.873716    -0.000000     0.866637     3.740352
	   74 D(8,2,3,9)      =     -2.002503     0.000007     1.121955    -0.880547
	   75 D(9,3,4,10)     =     -0.853354     0.000003     0.429305    -0.424049
	   76 D(10,4,5,11)    =     -0.853354     0.000004     0.732102    -0.121252
	   77 D(11,5,6,12)    =     -2.002504     0.000009     1.712331    -0.290173
	   78 D(13,7,14,15)   =      6.269764    -0.000017    -3.222817     3.046947
	   79 D(13,7,14,16)   =   -169.237358    -0.000033    -5.517801  -174.755159
	   80 D(14,7,13,17)   =   -169.237369    -0.000010    -0.751305  -169.988674
	   81 D(14,7,13,18)   =      6.269803     0.000006     1.565317     7.835120
	 ---------------------------------------------------------------------------
	Successfully symmetrized geometry.

  ==> Convergence Check <==

  Measures of convergence in internal coordinates in au.
  Criteria marked as inactive (o), active & met (*), and active & unmet ( ).
  --------------------------------------------------------------------------------------------- ~
   Step     Total Energy     Delta E     MAX Force     RMS Force      MAX Disp      RMS Disp    ~
  --------------------------------------------------------------------------------------------- ~
    Convergence Criteria    1.00e-06 *    3.00e-04 *             o    1.20e-03 *             o  ~
  --------------------------------------------------------------------------------------------- ~
      1    -381.46715412   -3.81e+02      4.61e-03      1.24e-03 o    1.64e-01      3.42e-02 o  ~
  ---------------------------------------------------------------------------------------------

	Writing optimization data to binary file.
	Structure for next step:
	Cartesian Geometry (in Angstrom)
	    C     0.0410856068   0.0173312057  -0.1779115759
	    C     0.0832398518   1.2317373437   0.5270771107
	    C     0.0581428932   1.2127165266   1.9194380369
	    C    -0.0083559287  -0.0056841025   2.6032610873
	    C    -0.0694816892  -1.2120692442   1.8982070250
	    C    -0.0643562808  -1.2075202643   0.5056313577
	    C    -0.0006109348   0.0314841877  -1.6481287499
	    H     0.1185645120   2.1775368594  -0.0092831523
	    H     0.0884996017   2.1478085097   2.4697115268
	    H    -0.0226563161  -0.0148096893   3.6889445961
	    H    -0.1290992680  -2.1561098761   2.4324038067
	    H    -0.1150119032  -2.1448723778  -0.0461847696
	    N     0.9924556172   0.5976889142  -2.3235514058
	    N    -0.9868808170  -0.6046958109  -2.2763794605
	    H    -1.0135400498  -0.7310640983  -3.2828392142
	    H    -1.7778343356  -0.9611720524  -1.7431998948
	    H     1.8058110994   0.9411999165  -1.8214421561
	    H     1.0000293410   0.6804940522  -3.3347521680
			--------------------------
			 OPTKING Finished Execution 
			--------------------------

    Structure for next step:
    Molecular point group: c1
    Full point group: C1

    Geometry (in Angstrom), charge = 1, multiplicity = 1:

    C            0.041085606753     0.017331205720    -0.177911575911
    C            0.083239851793     1.231737343730     0.527077110694
    C            0.058142893226     1.212716526626     1.919438036914
    C           -0.008355928680    -0.005684102457     2.603261087338
    C           -0.069481689223    -1.212069244234     1.898207024954
    C           -0.064356280828    -1.207520264283     0.505631357749
    C           -0.000610934767     0.031484187737    -1.648128749922
    H            0.118564512048     2.177536859369    -0.009283152320
    H            0.088499601743     2.147808509723     2.469711526768
    H           -0.022656316084    -0.014809689291     3.688944596122
    H           -0.129099267976    -2.156109876084     2.432403806687
    H           -0.115011903221    -2.144872377818    -0.046184769626
    N            0.992455617184     0.597688914207    -2.323551405835
    N           -0.986880817038    -0.604695810945    -2.276379460470
    H           -1.013540049759    -0.731064098316    -3.282839214204
    H           -1.777834335604    -0.961172052354    -1.743199894820
    H            1.805811099404     0.941199916504    -1.821442156104
    H            1.000029341029     0.680494052163    -3.334752168015

gradient() will perform analytic gradient computation.

*** tstart() called on green.prib.upf.edu
*** at Sat Sep 29 20:49:50 2018

   => Loading Basis Set <=

    Name: 6-31G*
    Role: ORBITAL
    Keyword: BASIS
    atoms 1-7         entry C          line   111 file /shared/joao/test_parameterize/miniconda3/share/psi4/basis/6-31gs.gbs 
    atoms 8-12, 15-18 entry H          line    44 file /shared/joao/test_parameterize/miniconda3/share/psi4/basis/6-31gs.gbs 
    atoms 13-14       entry N          line   128 file /shared/joao/test_parameterize/miniconda3/share/psi4/basis/6-31gs.gbs 


         ---------------------------------------------------------
                                   SCF
            by Justin Turney, Rob Parrish, Andy Simmonett
                             and Daniel Smith
                              RKS Reference
                        4 Threads,   2861 MiB Core
         ---------------------------------------------------------

  ==> Geometry <==

    Molecular point group: c1
    Full point group: C1

    Geometry (in Angstrom), charge = 1, multiplicity = 1:

       Center              X                  Y                   Z               Mass       
    ------------   -----------------  -----------------  -----------------  -----------------
         C            0.041085606753     0.017331205720    -0.177911575911    12.000000000000
         C            0.083239851793     1.231737343730     0.527077110694    12.000000000000
         C            0.058142893226     1.212716526626     1.919438036914    12.000000000000
         C           -0.008355928680    -0.005684102457     2.603261087338    12.000000000000
         C           -0.069481689223    -1.212069244234     1.898207024954    12.000000000000
         C           -0.064356280828    -1.207520264283     0.505631357749    12.000000000000
         C           -0.000610934767     0.031484187737    -1.648128749922    12.000000000000
         H            0.118564512048     2.177536859369    -0.009283152320     1.007825032070
         H            0.088499601743     2.147808509723     2.469711526768     1.007825032070
         H           -0.022656316084    -0.014809689291     3.688944596122     1.007825032070
         H           -0.129099267976    -2.156109876084     2.432403806687     1.007825032070
         H           -0.115011903221    -2.144872377818    -0.046184769626     1.007825032070
         N            0.992455617184     0.597688914207    -2.323551405835    14.003074004780
         N           -0.986880817038    -0.604695810945    -2.276379460470    14.003074004780
         H           -1.013540049759    -0.731064098316    -3.282839214204     1.007825032070
         H           -1.777834335604    -0.961172052354    -1.743199894820     1.007825032070
         H            1.805811099404     0.941199916504    -1.821442156104     1.007825032070
         H            1.000029341029     0.680494052163    -3.334752168015     1.007825032070

  Running in c1 symmetry.

  Rotational constants: A =      0.12133  B =      0.03853  C =      0.03226 [cm^-1]
  Rotational constants: A =   3637.33793  B =   1154.97006  C =    967.01030 [MHz]
  Nuclear repulsion =  416.504036546716861

  Charge       = 1
  Multiplicity = 1
  Electrons    = 64
  Nalpha       = 32
  Nbeta        = 32

  ==> Algorithm <==

  SCF Algorithm Type is DF.
  DIIS enabled.
  MOM disabled.
  Fractional occupation disabled.
  Guess Type is READ.
  Energy threshold   = 1.00e-08
  Density threshold  = 1.00e-08
  Integral threshold = 0.00e+00

  ==> Primary Basis <==

  Basis Set: 6-31G*
    Blend: 6-31G*
    Number of shells: 72
    Number of basis function: 153
    Number of Cartesian functions: 153
    Spherical Harmonics?: false
    Max angular momentum: 2

  ==> DFT Potential <==

   => Composite Functional: B3LYP-D3ZERO <= 

    B3LYP-d3zero Hyb-GGA Exchange-Correlation Functional

    P. J. Stephens, F. J. Devlin, C. F. Chabalowski, and M. J. Frisch, J. Phys. Chem. 98, 11623 (1994)

    Deriv               =              1
    GGA                 =           TRUE
    Meta                =          FALSE

    Exchange Hybrid     =           TRUE
    MP2 Hybrid          =          FALSE

   => Exchange Functionals <=

    0.0800   Slater exchange
    0.7200         Becke 88

   => Exact (HF) Exchange <=

    0.2000               HF 

   => Correlation Functionals <=

    0.1900   Vosko, Wilk & Nusair (VWN5_RPA)
    0.8100   Lee, Yang & Parr

   => Molecular Quadrature <=

    Radial Scheme       =       TREUTLER
    Pruning Scheme      =           FLAT
    Nuclear Scheme      =       TREUTLER

    BS radius alpha     =              1
    Pruning alpha       =              1
    Radial Points       =             75
    Spherical Points    =            302
    Total Points        =         397147
    Total Blocks        =           3013
    Max Points          =            256
    Max Functions       =            150

   => -D3ZERO: Empirical Dispersion <=

    Grimme's -D3 (zero-damping) Dispersion Correction
    Grimme S.; Antony J.; Ehrlich S.; Krieg H. (2010), J. Chem. Phys., 132: 154104

        S6 =   1.000000E+00
        S8 =   1.703000E+00
       SR6 =   1.261000E+00
       SR8 =   1.000000E+00
    ALPHA6 =   1.400000E+01

   => Loading Basis Set <=

    Name: (6-31G* AUX)
    Role: JKFIT
    Keyword: DF_BASIS_SCF
    atoms 1-7         entry C          line   121 file /shared/joao/test_parameterize/miniconda3/share/psi4/basis/cc-pvdz-jkfit.gbs 
    atoms 8-12, 15-18 entry H          line    51 file /shared/joao/test_parameterize/miniconda3/share/psi4/basis/cc-pvdz-jkfit.gbs 
    atoms 13-14       entry N          line   171 file /shared/joao/test_parameterize/miniconda3/share/psi4/basis/cc-pvdz-jkfit.gbs 

  Reading orbitals from file 180, no projection.

  ==> Pre-Iterations <==

   -------------------------------------------------------
    Irrep   Nso     Nmo     Nalpha   Nbeta   Ndocc  Nsocc
   -------------------------------------------------------
     A        153     153       0       0       0       0
   -------------------------------------------------------
    Total     153     153      32      32      32       0
   -------------------------------------------------------

  ==> Integral Setup <==

  ==> DiskDFJK: Density-Fitted J/K Matrices <==

    J tasked:                  Yes
    K tasked:                  Yes
    wK tasked:                  No
    OpenMP threads:              4
    Integrals threads:           4
    Memory (MB):              2002
    Algorithm:                Core
    Integral Cache:           NONE
    Schwarz Cutoff:          1E-12
    Fitting Condition:       1E-12

   => Auxiliary Basis Set <=

  Basis Set: (6-31G* AUX)
    Blend: CC-PVDZ-JKFIT
    Number of shells: 297
    Number of basis function: 954
    Number of Cartesian functions: 954
    Spherical Harmonics?: false
    Max angular momentum: 3

  Minimum eigenvalue in the overlap matrix is 4.9044886551E-04.
  Using Symmetric Orthogonalization.

  SCF Guess: Orbitals guess was supplied from a previous computation.

  ==> Iterations <==

                           Total Energy        Delta E     RMS |[F,P]|

   @DF-RKS iter   0:  -381.44881637306025   -3.81449e+02   2.03949e-03 
   @DF-RKS iter   1:  -381.46771862297567   -1.89022e-02   2.26634e-04 
   @DF-RKS iter   2:  -381.46759840141993    1.20222e-04   3.33637e-04 DIIS
   @DF-RKS iter   3:  -381.46793099446205   -3.32593e-04   6.10372e-05 DIIS
   @DF-RKS iter   4:  -381.46794071138237   -9.71692e-06   2.57067e-05 DIIS
   @DF-RKS iter   5:  -381.46794250311012   -1.79173e-06   9.02155e-06 DIIS
   @DF-RKS iter   6:  -381.46794272762691   -2.24517e-07   3.02055e-06 DIIS
   @DF-RKS iter   7:  -381.46794275329836   -2.56715e-08   7.15806e-07 DIIS
   @DF-RKS iter   8:  -381.46794275468301   -1.38465e-09   2.32854e-07 DIIS
   @DF-RKS iter   9:  -381.46794275483433   -1.51317e-10   6.48816e-08 DIIS
   @DF-RKS iter  10:  -381.46794275484228   -7.95808e-12   3.46481e-08 DIIS
   @DF-RKS iter  11:  -381.46794275484660   -4.32010e-12   6.15198e-09 DIIS

  ==> Post-Iterations <==

    Orbital Energies [Eh]
    ---------------------

    Doubly Occupied:                                                      

       1A    -14.572392     2A    -14.571958     3A    -10.499647  
       4A    -10.370257     5A    -10.352691     6A    -10.352681  
       7A    -10.338591     8A    -10.337323     9A    -10.337025  
      10A     -1.185140    11A     -1.094146    12A     -1.011354  
      13A     -0.924294    14A     -0.898487    15A     -0.844218  
      16A     -0.785450    17A     -0.769016    18A     -0.747507  
      19A     -0.729351    20A     -0.689044    21A     -0.667755  
      22A     -0.620351    23A     -0.620180    24A     -0.580319  
      25A     -0.575834    26A     -0.569496    27A     -0.517122  
      28A     -0.501049    29A     -0.494643    30A     -0.475597  
      31A     -0.408354    32A     -0.402090  

    Virtual:                                                              

      33A     -0.208498    34A     -0.153591    35A     -0.145130  
      36A     -0.110220    37A     -0.065899    38A     -0.064995  
      39A     -0.037822    40A     -0.032347    41A      0.007660  
      42A      0.014193    43A      0.022445    44A      0.055661  
      45A      0.061067    46A      0.076807    47A      0.135878  
      48A      0.144171    49A      0.161083    50A      0.166770  
      51A      0.199900    52A      0.234457    53A      0.294765  
      54A      0.345699    55A      0.357102    56A      0.384068  
      57A      0.386217    58A      0.399057    59A      0.413999  
      60A      0.424720    61A      0.447099    62A      0.448583  
      63A      0.449805    64A      0.469173    65A      0.473943  
      66A      0.478724    67A      0.486034    68A      0.504903  
      69A      0.514587    70A      0.537176    71A      0.545758  
      72A      0.581502    73A      0.593368    74A      0.644995  
      75A      0.660717    76A      0.681722    77A      0.682478  
      78A      0.698109    79A      0.705228    80A      0.708905  
      81A      0.728414    82A      0.751870    83A      0.777010  
      84A      0.796703    85A      0.811403    86A      0.831272  
      87A      0.850712    88A      0.939422    89A      0.968566  
      90A      0.998453    91A      1.006194    92A      1.026057  
      93A      1.039851    94A      1.078806    95A      1.150754  
      96A      1.175016    97A      1.215670    98A      1.276431  
      99A      1.299323   100A      1.319545   101A      1.322427  
     102A      1.341894   103A      1.357943   104A      1.372595  
     105A      1.448722   106A      1.453077   107A      1.477631  
     108A      1.594917   109A      1.631921   110A      1.652207  
     111A      1.669850   112A      1.736723   113A      1.760849  
     114A      1.794478   115A      1.826312   116A      1.853672  
     117A      1.895434   118A      1.911005   119A      1.968311  
     120A      1.980667   121A      1.999429   122A      2.008324  
     123A      2.041768   124A      2.070309   125A      2.121698  
     126A      2.134191   127A      2.159702   128A      2.188612  
     129A      2.222207   130A      2.263673   131A      2.367621  
     132A      2.380898   133A      2.420409   134A      2.451268  
     135A      2.496032   136A      2.558029   137A      2.561718  
     138A      2.590083   139A      2.599296   140A      2.631340  
     141A      2.730578   142A      2.883900   143A      2.951717  
     144A      3.258008   145A      3.631879   146A      3.645023  
     147A      3.932474   148A      3.960299   149A      3.969226  
     150A      4.077754   151A      4.182755   152A      4.259650  
     153A      4.548949  

    Final Occupation by Irrep:
              A 
    DOCC [    32 ]

  Energy converged.

  @DF-RKS Final Energy:  -381.46794275484660

   => Energetics <=

    Nuclear Repulsion Energy =            416.5040365467168613
    One-Electron Energy =               -1328.3156589710899880
    Two-Electron Energy =                 574.7524453818745087
    DFT Exchange-Correlation Energy =     -44.3968518323480410
    Empirical Dispersion Energy =          -0.0119138800000000
    VV10 Nonlocal Energy =                  0.0000000000000000
    Total Energy =                       -381.4679427548466606



Properties will be evaluated at   0.000000,   0.000000,   0.000000 [a0]

Properties computed using the SCF density matrix

  Nuclear Dipole Moment: [e a0]
     X:     0.4380      Y:     0.5630      Z:    -0.1525

  Electronic Dipole Moment: [e a0]
     X:    -0.4461      Y:    -0.5697      Z:    -2.2360

  Dipole Moment: [e a0]
     X:    -0.0081      Y:    -0.0067      Z:    -2.3885     Total:     2.3885

  Dipole Moment: [D]
     X:    -0.0206      Y:    -0.0170      Z:    -6.0709     Total:     6.0710


*** tstop() called on green.prib.upf.edu at Sat Sep 29 20:50:12 2018
Module time:
	user time   =      79.40 seconds =       1.32 minutes
	system time =       0.44 seconds =       0.01 minutes
	total time  =         22 seconds =       0.37 minutes
Total time:
	user time   =     203.95 seconds =       3.40 minutes
	system time =       1.28 seconds =       0.02 minutes
	total time  =         56 seconds =       0.93 minutes

*** tstart() called on green.prib.upf.edu
*** at Sat Sep 29 20:50:12 2018


         ------------------------------------------------------------
                                   SCF GRAD                          
                          Rob Parrish, Justin Turney,                
                       Andy Simmonett, and Alex Sokolov              
         ------------------------------------------------------------

  ==> Geometry <==

    Molecular point group: c1
    Full point group: C1

    Geometry (in Angstrom), charge = 1, multiplicity = 1:

       Center              X                  Y                   Z               Mass       
    ------------   -----------------  -----------------  -----------------  -----------------
         C            0.041085606753     0.017331205720    -0.177911575911    12.000000000000
         C            0.083239851793     1.231737343730     0.527077110694    12.000000000000
         C            0.058142893226     1.212716526626     1.919438036914    12.000000000000
         C           -0.008355928680    -0.005684102457     2.603261087338    12.000000000000
         C           -0.069481689223    -1.212069244234     1.898207024954    12.000000000000
         C           -0.064356280828    -1.207520264283     0.505631357749    12.000000000000
         C           -0.000610934767     0.031484187737    -1.648128749922    12.000000000000
         H            0.118564512048     2.177536859369    -0.009283152320     1.007825032070
         H            0.088499601743     2.147808509723     2.469711526768     1.007825032070
         H           -0.022656316084    -0.014809689291     3.688944596122     1.007825032070
         H           -0.129099267976    -2.156109876084     2.432403806687     1.007825032070
         H           -0.115011903221    -2.144872377818    -0.046184769626     1.007825032070
         N            0.992455617184     0.597688914207    -2.323551405835    14.003074004780
         N           -0.986880817038    -0.604695810945    -2.276379460470    14.003074004780
         H           -1.013540049759    -0.731064098316    -3.282839214204     1.007825032070
         H           -1.777834335604    -0.961172052354    -1.743199894820     1.007825032070
         H            1.805811099404     0.941199916504    -1.821442156104     1.007825032070
         H            1.000029341029     0.680494052163    -3.334752168015     1.007825032070

  Nuclear repulsion =  416.504036546716861

  ==> Basis Set <==

  Basis Set: 6-31G*
    Blend: 6-31G*
    Number of shells: 72
    Number of basis function: 153
    Number of Cartesian functions: 153
    Spherical Harmonics?: false
    Max angular momentum: 2

  ==> DFJKGrad: Density-Fitted SCF Gradients <==

    Gradient:                    1
    J tasked:                  Yes
    K tasked:                  Yes
    wK tasked:                  No
    OpenMP threads:              4
    Integrals threads:           4
    Memory (MB):              2002
    Schwarz Cutoff:          0E+00
    Fitting Condition:       1E-12

   => Auxiliary Basis Set <=

  Basis Set: (6-31G* AUX)
    Blend: CC-PVDZ-JKFIT
    Number of shells: 297
    Number of basis function: 954
    Number of Cartesian functions: 954
    Spherical Harmonics?: false
    Max angular momentum: 3

  ==> DFT Potential <==

   => Composite Functional: B3LYP-D3ZERO <= 

    B3LYP-d3zero Hyb-GGA Exchange-Correlation Functional

    P. J. Stephens, F. J. Devlin, C. F. Chabalowski, and M. J. Frisch, J. Phys. Chem. 98, 11623 (1994)

    Deriv               =              1
    GGA                 =           TRUE
    Meta                =          FALSE

    Exchange Hybrid     =           TRUE
    MP2 Hybrid          =          FALSE

   => Exchange Functionals <=

    0.0800   Slater exchange
    0.7200         Becke 88

   => Exact (HF) Exchange <=

    0.2000               HF 

   => Correlation Functionals <=

    0.1900   Vosko, Wilk & Nusair (VWN5_RPA)
    0.8100   Lee, Yang & Parr

   => Molecular Quadrature <=

    Radial Scheme       =       TREUTLER
    Pruning Scheme      =           FLAT
    Nuclear Scheme      =       TREUTLER

    BS radius alpha     =              1
    Pruning alpha       =              1
    Radial Points       =             75
    Spherical Points    =            302
    Total Points        =         397147
    Total Blocks        =           3013
    Max Points          =            256
    Max Functions       =            150


  -Total Gradient:
     Atom            X                  Y                   Z
    ------   -----------------  -----------------  -----------------
       1        0.007885307383    -0.001671079514    -0.001707517523
       2       -0.004711728306    -0.000469628881     0.000674695669
       3       -0.000624456903     0.000284508650    -0.000671548662
       4        0.000319678551    -0.000493610855     0.000548372322
       5        0.000370604480     0.000320266586    -0.000135383630
       6        0.000817265121     0.000657412791     0.000735994645
       7       -0.003968316203     0.010755977876     0.002470030269
       8       -0.000025474503     0.000875922812    -0.000466154656
       9        0.000302593363     0.000174204029    -0.000068255899
      10       -0.000088851413    -0.000053121310     0.000136063338
      11       -0.000348233909    -0.000692384628     0.000271942078
      12       -0.000691778364    -0.001609688565    -0.000647256252
      13        0.001137772638    -0.004122501282    -0.000818085805
      14        0.001160582219    -0.001026067427    -0.002777109759
      15        0.000016973831    -0.000354300993    -0.000437035989
      16       -0.004459592635    -0.002417990199     0.002104681203
      17        0.002990705811     0.000235169277     0.001221261227
      18       -0.000076001307    -0.000386630734    -0.000431316825


*** tstop() called on green.prib.upf.edu at Sat Sep 29 20:50:19 2018
Module time:
	user time   =      26.88 seconds =       0.45 minutes
	system time =       0.29 seconds =       0.00 minutes
	total time  =          7 seconds =       0.12 minutes
Total time:
	user time   =     230.89 seconds =       3.85 minutes
	system time =       1.57 seconds =       0.03 minutes
	total time  =         63 seconds =       1.05 minutes

			-----------------------------------------
			 OPTKING 2.0: for geometry optimizations 
			  - R.A. King,  Bethel University        
			-----------------------------------------
	At level 1: Red. Int., RFO, no backsteps, dynamic trust

	Previous internal coordinate definitions found.
	---Fragment 1 Geometry and Gradient---
	 C           0.0776405448        0.0327512324       -0.3362041543
	 C           0.1573005232        2.3276462473        0.9960313901
	 C           0.1098741448        2.2917021121        3.6272122188
	 C          -0.0157904168       -0.0107413970        4.9194505075
	 C          -0.1313013639       -2.2904789257        3.5870914207
	 C          -0.1216157457       -2.2818825994        0.9555047903
	 C          -0.0011544994        0.0594964923       -3.1145119691
	 H           0.2240544568        4.1149483085       -0.0175426155
	 H           0.1672400102        4.0587698693        4.6670784128
	 H          -0.0428142326       -0.0279862569        6.9710950061
	 H          -0.2439622604       -4.0744571782        4.5965770392
	 H          -0.2173409991       -4.0532213841       -0.0872765661
	 N           1.8754693155        1.1294683605       -4.3908758127
	 N          -1.8649344700       -1.1427094764       -4.3017337548
	 H          -1.9153131188       -1.3815109314       -6.2036670531
	 H          -3.3596200039       -1.8163519455       -3.2941703961
	 H           3.4124884256        1.7786100785       -3.4420268419
	 H           1.8897815794        1.2859473936       -6.3017683186
	             0.0078853074       -0.0016710795       -0.0017075175
	            -0.0047117283       -0.0004696289        0.0006746957
	            -0.0006244569        0.0002845086       -0.0006715487
	             0.0003196786       -0.0004936109        0.0005483723
	             0.0003706045        0.0003202666       -0.0001353836
	             0.0008172651        0.0006574128        0.0007359946
	            -0.0039683162        0.0107559779        0.0024700303
	            -0.0000254745        0.0008759228       -0.0004661547
	             0.0003025934        0.0001742040       -0.0000682559
	            -0.0000888514       -0.0000531213        0.0001360633
	            -0.0003482339       -0.0006923846        0.0002719421
	            -0.0006917784       -0.0016096886       -0.0006472563
	             0.0011377726       -0.0041225013       -0.0008180858
	             0.0011605822       -0.0010260674       -0.0027771098
	             0.0000169738       -0.0003543010       -0.0004370360
	            -0.0044595926       -0.0024179902        0.0021046812
	             0.0029907058        0.0002351693        0.0012212612
	            -0.0000760013       -0.0003866307       -0.0004313168

	---Fragment 1 Intrafragment Coordinates---
	 - Coordinate -           - BOHR/RAD -       - ANG/DEG -
	 R(1,2)           =         2.654758	       1.404837
	 R(1,6)           =         2.658147	       1.406631
	 R(1,7)           =         2.779554	       1.470876
	 R(2,3)           =         2.631854	       1.392717
	 R(2,8)           =         2.055781	       1.087873
	 R(3,4)           =         2.643278	       1.398762
	 R(3,9)           =         2.051132	       1.085412
	 R(4,5)           =         2.643053	       1.398643
	 R(4,10)          =         2.051895	       1.085816
	 R(5,6)           =         2.631618	       1.392593
	 R(5,11)          =         2.052884	       1.086339
	 R(6,12)          =         2.057717	       1.088897
	 R(7,13)          =         2.509116	       1.327767
	 R(7,14)          =         2.515645	       1.331222
	 R(13,17)         =         1.919408	       1.015707
	 R(13,18)         =         1.917342	       1.014614
	 R(14,15)         =         1.917528	       1.014712
	 R(14,16)         =         1.924334	       1.018314
	 B(1,2,3)         =         2.082146	     119.298151
	 B(1,2,8)         =         2.100301	     120.338405
	 B(1,6,5)         =         2.081806	     119.278674
	 B(1,6,12)        =         2.102276	     120.451571
	 B(1,7,13)        =         2.084451	     119.430257
	 B(1,7,14)        =         2.080740	     119.217605
	 B(2,1,6)         =         2.107286	     120.738598
	 B(2,1,7)         =         2.087639	     119.612875
	 B(2,3,4)         =         2.096134	     120.099636
	 B(2,3,9)         =         2.088139	     119.641560
	 B(3,2,8)         =         2.100606	     120.355832
	 B(3,4,5)         =         2.102446	     120.461275
	 B(3,4,10)        =         2.090663	     119.786160
	 B(4,3,9)         =         2.098910	     120.258697
	 B(4,5,6)         =         2.095682	     120.073737
	 B(4,5,11)        =         2.099100	     120.269577
	 B(5,4,10)        =         2.090027	     119.749729
	 B(5,6,12)        =         2.098762	     120.250200
	 B(6,1,7)         =         2.085158	     119.470757
	 B(6,5,11)        =         2.088372	     119.654911
	 B(7,13,17)       =         2.084803	     119.450441
	 B(7,13,18)       =         2.150009	     123.186419
	 B(7,14,15)       =         2.149664	     123.166694
	 B(7,14,16)       =         2.089381	     119.712725
	 B(13,7,14)       =         2.115118	     121.187307
	 B(15,14,16)      =         2.043539	     117.086156
	 B(17,13,18)      =         2.047781	     117.329237
	 D(1,2,3,4)       =         0.000000	       0.000000
	 D(1,2,3,9)       =        -3.139504	    -179.880331
	 D(1,6,5,4)       =         0.031317	       1.794319
	 D(1,6,5,11)      =        -3.118711	    -178.689005
	 D(1,7,13,17)     =         0.092645	       5.308161
	 D(1,7,13,18)     =        -3.086930	    -176.868045
	 D(1,7,14,15)     =        -3.006499	    -172.259705
	 D(1,7,14,16)     =         0.173454	       9.938188
	 D(2,1,6,5)       =        -0.047618	      -2.728331
	 D(2,1,6,12)      =         3.121978	     178.876136
	*D(2,1,7,13)      =         1.047198	      60.000011
	 D(2,1,7,14)      =        -2.174851	    -124.609762
	 D(2,3,4,5)       =        -0.016032	      -0.918558
	 D(2,3,4,10)      =         3.136279	     179.695551
	 D(3,2,1,6)       =         0.031930	       1.829453
	 D(3,2,1,7)       =         3.088506	     176.958377
	 D(3,4,5,6)       =         0.000110	       0.006311
	 D(3,4,5,11)      =        -3.132995	    -179.507366
	 D(4,3,2,8)       =         3.124150	     179.000593
	 D(4,5,6,12)      =        -3.138222	    -179.806849
	 D(5,4,3,9)       =         3.123473	     178.961842
	 D(5,6,1,7)       =        -3.104314	    -177.864115
	 D(6,1,2,8)       =        -3.092209	    -177.170509
	 D(6,1,7,13)      =        -2.178325	    -124.808820
	 D(6,1,7,14)      =         0.882812	      50.581408
	 D(6,5,4,10)      =         3.130988	     179.392426
	 D(7,1,2,8)       =        -0.035632	      -2.041585
	 D(7,1,6,12)      =         0.065281	       3.740352
	 D(8,2,3,9)       =        -0.015368	      -0.880547
	 D(9,3,4,10)      =        -0.007401	      -0.424049
	 D(10,4,5,11)     =        -0.002116	      -0.121252
	 D(11,5,6,12)     =        -0.005064	      -0.290173
	 D(13,7,14,15)    =         0.053179	       3.046947
	 D(13,7,14,16)    =        -3.050053	    -174.755159
	 D(14,7,13,17)    =        -2.966862	    -169.988674
	 D(14,7,13,18)    =         0.136749	       7.835120

	Current energy   :      -381.4679427548

	Energy change for the previous step:
		Projected    :        -0.0020421749
		Actual       :        -0.0007886357

	Performing BFGS update.
	Previous computed or guess Hessian on step 1.
	Steps to be used in Hessian update: 1
	Taking RFO optimization step.
	Going to follow RFO solution 1.
	Using RFO vector 1.
	Norm of target step-size    0.09811
	Projected energy change by RFO approximation:        -0.0005886440

	Back-transformation to cartesian coordinates...
	Could not converge backtransformation.
	Using first guess instead.

	Back-transformation to cartesian coordinates to adjust frozen coordinates...
	Successfully converged to displaced geometry.

	--- Internal Coordinate Step in ANG or DEG, aJ/ANG or AJ/DEG ---
	 ---------------------------------------------------------------------------
	   Coordinate                Previous        Force       Change         New 
	   ----------                --------       ------       ------       ------
	    1 R(1,2)          =      1.404837     0.000101    -0.000157     1.404680
	    2 R(1,6)          =      1.406631    -0.008928    -0.001406     1.405225
	    3 R(1,7)          =      1.470876     0.010001     0.001783     1.472660
	    4 R(2,3)          =      1.392717     0.000830     0.000289     1.393006
	    5 R(2,8)          =      1.087873    -0.008161    -0.001294     1.086579
	    6 R(3,4)          =      1.398762    -0.007987    -0.000968     1.397795
	    7 R(3,9)          =      1.085412    -0.001019    -0.000103     1.085309
	    8 R(4,5)          =      1.398643    -0.001788    -0.000234     1.398409
	    9 R(4,10)         =      1.085816    -0.001133    -0.000141     1.085675
	   10 R(5,6)          =      1.392593    -0.001535    -0.000034     1.392559
	   11 R(5,11)         =      1.086339    -0.006216    -0.000995     1.085344
	   12 R(6,12)         =      1.088897    -0.014385    -0.002265     1.086631
	   13 R(7,13)         =      1.327767    -0.010051    -0.001148     1.326619
	   14 R(7,14)         =      1.331222    -0.039330    -0.003736     1.327486
	   15 R(13,17)        =      1.015707    -0.025347    -0.002795     1.012912
	   16 R(13,18)        =      1.014614    -0.003282    -0.000070     1.014544
	   17 R(14,15)        =      1.014712    -0.003930    -0.000073     1.014639
	   18 R(14,16)        =      1.018314    -0.044602    -0.005458     1.012856
	   19 B(1,2,3)        =    119.298151     0.000014     0.017399   119.315550
	   20 B(1,2,8)        =    120.338405    -0.000009    -0.052802   120.285603
	   21 B(1,6,5)        =    119.278674    -0.000002    -0.038563   119.240112
	   22 B(1,6,12)       =    120.451571    -0.000022    -0.126965   120.324605
	   23 B(1,7,13)       =    119.430257     0.000001    -0.009690   119.420567
	   24 B(1,7,14)       =    119.217605     0.000070     0.169402   119.387007
	   25 B(2,1,6)        =    120.738598    -0.000007     0.021905   120.760503
	   26 B(2,1,7)        =    119.612875    -0.000025    -0.127303   119.485573
	   27 B(2,3,4)        =    120.099636    -0.000022    -0.053067   120.046569
	   28 B(2,3,9)        =    119.641560     0.000023     0.075154   119.716714
	   29 B(3,2,8)        =    120.355832    -0.000005     0.037093   120.392925
	   30 B(3,4,5)        =    120.461275     0.000008     0.016858   120.478132
	   31 B(3,4,10)       =    119.786160    -0.000008    -0.025813   119.760348
	   32 B(4,3,9)        =    120.258697    -0.000002    -0.023830   120.234867
	   33 B(4,5,6)        =    120.073737     0.000009     0.025849   120.099586
	   34 B(4,5,11)       =    120.269577    -0.000013    -0.041096   120.228481
	   35 B(5,4,10)       =    119.749729     0.000000     0.010949   119.760678
	   36 B(5,6,12)       =    120.250200     0.000023     0.147270   120.397470
	   37 B(6,1,7)        =    119.470757     0.000032     0.027796   119.498553
	   38 B(6,5,11)       =    119.654911     0.000004     0.016718   119.671629
	   39 B(7,13,17)      =    119.450441    -0.000035    -0.157625   119.292816
	   40 B(7,13,18)      =    123.186419     0.000038     0.205651   123.392070
	   41 B(7,14,15)      =    123.166694     0.000032     0.166485   123.333178
	   42 B(7,14,16)      =    119.712725    -0.000082    -0.392941   119.319784
	   43 B(13,7,14)      =    121.187307    -0.000066    -0.047880   121.139428
	   44 B(15,14,16)     =    117.086156     0.000050     0.199210   117.285366
	   45 B(17,13,18)     =    117.329237    -0.000001    -0.016241   117.312996
	   46 D(1,2,3,4)      =      0.000000    -0.000001    -0.136036    -0.136036
	   47 D(1,2,3,9)      =   -179.880331     0.000002     0.237939  -179.642393
	   48 D(1,6,5,4)      =      1.794319     0.000001     0.310522     2.104841
	   49 D(1,6,5,11)     =   -178.689005     0.000004     0.593691  -178.095315
	   50 D(1,7,13,17)    =      5.308161    -0.000006    -1.179239     4.128923
	   51 D(1,7,13,18)    =   -176.868045     0.000013     1.541234  -175.326811
	   52 D(1,7,14,15)    =   -172.259705    -0.000012    -1.607626  -173.867332
	   53 D(1,7,14,16)    =      9.938188    -0.000004    -0.869297     9.068891
	   54 D(2,1,6,5)      =     -2.728331    -0.000000    -0.287934    -3.016266
	   55 D(2,1,6,12)     =    178.876136     0.000005     0.335099   179.211235
	   56 *D(2,1,7,13)    =     60.000011     0.000000    -0.000000    60.000011
	   57 D(2,1,7,14)     =   -124.609762     0.000014     1.992853  -122.616909
	   58 D(2,3,4,5)      =     -0.918558     0.000002     0.163259    -0.755299
	   59 D(2,3,4,10)     =    179.695551    -0.000001    -0.116250   179.579301
	   60 D(3,2,1,6)      =      1.829453     0.000000     0.202573     2.032027
	   61 D(3,2,1,7)      =    176.958377    -0.000003    -0.760424   176.197954
	   62 D(3,4,5,6)      =      0.006311    -0.000002    -0.250867    -0.244556
	   63 D(3,4,5,11)     =   -179.507366    -0.000005    -0.535910  -180.043276
	   64 D(4,3,2,8)      =    179.000593    -0.000001    -0.019324   178.981269
	   65 D(4,5,6,12)     =   -179.806849    -0.000004    -0.317471  -180.124320
	   66 D(5,4,3,9)      =    178.961842    -0.000001    -0.213366   178.748476
	   67 D(5,6,1,7)      =   -177.864115     0.000003     0.682672  -177.181443
	   68 D(6,1,2,8)      =   -177.170509     0.000001     0.084264  -177.086246
	   69 D(6,1,7,13)     =   -124.808820    -0.000003    -0.950885  -125.759705
	   70 D(6,1,7,14)     =     50.581408     0.000011     1.041968    51.623375
	   71 D(6,5,4,10)     =    179.392426     0.000000     0.028418   179.420844
	   72 D(7,1,2,8)      =     -2.041585    -0.000002    -0.878733    -2.920318
	   73 D(7,1,6,12)     =      3.740352     0.000008     1.305705     5.046058
	   74 D(8,2,3,9)      =     -0.880547     0.000002     0.355459    -0.525088
	   75 D(9,3,4,10)     =     -0.424049    -0.000004    -0.492876    -0.916924
	   76 D(10,4,5,11)    =     -0.121252    -0.000002    -0.256625    -0.377877
	   77 D(11,5,6,12)    =     -0.290173    -0.000001    -0.034303    -0.324476
	   78 D(13,7,14,15)   =      3.046947     0.000004     0.422521     3.469468
	   79 D(13,7,14,16)   =   -174.755159     0.000011     1.160850  -173.594309
	   80 D(14,7,13,17)   =   -169.988674    -0.000022    -3.218323  -173.206997
	   81 D(14,7,13,18)   =      7.835120    -0.000003    -0.497850     7.337270
	 ---------------------------------------------------------------------------
	Successfully symmetrized geometry.

  ==> Convergence Check <==

  Measures of convergence in internal coordinates in au.
  Criteria marked as inactive (o), active & met (*), and active & unmet ( ).
  ---------------------------------------------------------------------------------------------
   Step     Total Energy     Delta E     MAX Force     RMS Force      MAX Disp      RMS Disp   
  ---------------------------------------------------------------------------------------------
    Convergence Criteria    1.00e-06 *    3.00e-04 *             o    1.20e-03 *             o
  ---------------------------------------------------------------------------------------------
      2    -381.46794275   -7.89e-04      5.41e-03      1.00e-03 o    5.62e-02      1.09e-02 o  ~
  ---------------------------------------------------------------------------------------------

	Writing optimization data to binary file.
	Structure for next step:
	Cartesian Geometry (in Angstrom)
	    C     0.0572434455   0.0038667634  -0.1769292335
	    C     0.0907881989   1.2218418520   0.5220251612
	    C     0.0539921350   1.2103561814   1.9144975128
	    C    -0.0184496648  -0.0041144094   2.6027148810
	    C    -0.0704263517  -1.2138222326   1.9031055610
	    C    -0.0554240756  -1.2164709072   0.5106301683
	    C     0.0109375206   0.0138513561  -1.6488267360
	    H     0.1304555367   2.1632565410  -0.0191019239
	    H     0.0737008866   2.1478466252   2.4609579941
	    H    -0.0399744962  -0.0079708275   3.6881693360
	    H    -0.1259076024  -2.1545193236   2.4416054344
	    H    -0.0935886765  -2.1537369011  -0.0378618505
	    N     0.9962060038   0.5865451747  -2.3279327588
	    N    -0.9892944668  -0.5959562001  -2.2732390600
	    H    -1.0341002655  -0.7042022987  -3.2810919469
	    H    -1.7754430381  -0.9382424380  -1.7340847580
	    H     1.7963739300   0.9527552159  -1.8263225341
	    H     0.9929119805   0.6887158286  -3.3373132472
			--------------------------
			 OPTKING Finished Execution 
			--------------------------

    Structure for next step:
    Molecular point group: c1
    Full point group: C1

    Geometry (in Angstrom), charge = 1, multiplicity = 1:

    C            0.057243445463     0.003866763404    -0.176929233515
    C            0.090788198853     1.221841851995     0.522025161230
    C            0.053992135016     1.210356181443     1.914497512758
    C           -0.018449664816    -0.004114409356     2.602714880995
    C           -0.070426351667    -1.213822232568     1.903105560976
    C           -0.055424075620    -1.216470907176     0.510630168337
    C            0.010937520599     0.013851356058    -1.648826735975
    H            0.130455536694     2.163256540987    -0.019101923887
    H            0.073700886630     2.147846625193     2.460957994145
    H           -0.039974496176    -0.007970827545     3.688169336037
    H           -0.125907602376    -2.154519323614     2.441605434406
    H           -0.093588676535    -2.153736901096    -0.037861850508
    N            0.996206003815     0.586545174687    -2.327932758755
    N           -0.989294466776    -0.595956200135    -2.273239059967
    H           -1.034100265523    -0.704202298681    -3.281091946927
    H           -1.775443038068    -0.938242438036    -1.734084758028
    H            1.796373930005     0.952755215886    -1.826322534144
    H            0.992911980483     0.688715828553    -3.337313247178

gradient() will perform analytic gradient computation.

*** tstart() called on green.prib.upf.edu
*** at Sat Sep 29 20:50:19 2018

   => Loading Basis Set <=

    Name: 6-31G*
    Role: ORBITAL
    Keyword: BASIS
    atoms 1-7         entry C          line   111 file /shared/joao/test_parameterize/miniconda3/share/psi4/basis/6-31gs.gbs 
    atoms 8-12, 15-18 entry H          line    44 file /shared/joao/test_parameterize/miniconda3/share/psi4/basis/6-31gs.gbs 
    atoms 13-14       entry N          line   128 file /shared/joao/test_parameterize/miniconda3/share/psi4/basis/6-31gs.gbs 


         ---------------------------------------------------------
                                   SCF
            by Justin Turney, Rob Parrish, Andy Simmonett
                             and Daniel Smith
                              RKS Reference
                        4 Threads,   2861 MiB Core
         ---------------------------------------------------------

  ==> Geometry <==

    Molecular point group: c1
    Full point group: C1

    Geometry (in Angstrom), charge = 1, multiplicity = 1:

       Center              X                  Y                   Z               Mass       
[...]
	             0.0000192356        0.0000016237        0.0000093378
	            -0.0053520650        0.0059491657        0.0001412353
	            -0.0000048132        0.0000038096       -0.0000024717
	             0.0000035630       -0.0000014627        0.0000020077
	             0.0000027832       -0.0000017410        0.0000030249
	            -0.0000047655       -0.0000009457        0.0000052333
	            -0.0000031697       -0.0000071950       -0.0000089112
	             0.0022621040       -0.0040905403       -0.0000903161
	             0.0000314957       -0.0000102627       -0.0000096674
	            -0.0000014075        0.0000147131        0.0000008616
	            -0.0000213493       -0.0000061021        0.0000182314
	             0.0000084387        0.0000004288        0.0000064381
	             0.0000060264       -0.0000043492        0.0000048276

	---Fragment 1 Intrafragment Coordinates---
	 - Coordinate -           - BOHR/RAD -       - ANG/DEG -
	 R(1,2)           =         2.654592	       1.404749
	 R(1,6)           =         2.655201	       1.405072
	 R(1,7)           =         2.784569	       1.473531
	 R(2,3)           =         2.632403	       1.393008
	 R(2,8)           =         2.053157	       1.086484
	 R(3,4)           =         2.641292	       1.397711
	 R(3,9)           =         2.050772	       1.085222
	 R(4,5)           =         2.642521	       1.398362
	 R(4,10)          =         2.051580	       1.085650
	 R(5,6)           =         2.631463	       1.392510
	 R(5,11)          =         2.050830	       1.085253
	 R(6,12)          =         2.053026	       1.086415
	 R(7,13)          =         2.507292	       1.326802
	 R(7,14)          =         2.507068	       1.326683
	 R(13,17)         =         1.912932	       1.012280
	 R(13,18)         =         1.916483	       1.014159
	 R(14,15)         =         1.916456	       1.014145
	 R(14,16)         =         1.912871	       1.012248
	 B(1,2,3)         =         2.082247	     119.303969
	 B(1,2,8)         =         2.100633	     120.357427
	 B(1,6,5)         =         2.081231	     119.245765
	 B(1,6,12)        =         2.100238	     120.334775
	 B(1,7,13)        =         2.083447	     119.372747
	 B(1,7,14)        =         2.082960	     119.344811
	 B(2,1,6)         =         2.108079	     120.784037
	 B(2,1,7)         =         2.083853	     119.395958
	 B(2,3,4)         =         2.095004	     120.034915
	 B(2,3,9)         =         2.089595	     119.724953
	 B(3,2,8)         =         2.100143	     120.329302
	 B(3,4,5)         =         2.103259	     120.507863
	 B(3,4,10)        =         2.090144	     119.756415
	 B(4,3,9)         =         2.098551	     120.238100
	 B(4,5,6)         =         2.095814	     120.081314
	 B(4,5,11)        =         2.098042	     120.208975
	 B(5,4,10)        =         2.089771	     119.735033
	 B(5,6,12)        =         2.101022	     120.379717
	 B(6,1,7)         =         2.087800	     119.622150
	 B(6,5,11)        =         2.089327	     119.709638
	 B(7,13,17)       =         2.081780	     119.277221
	 B(7,13,18)       =         2.153654	     123.395277
	 B(7,14,15)       =         2.152264	     123.315633
	 B(7,14,16)       =         2.082143	     119.298003
	 B(13,7,14)       =         2.115477	     121.207890
	 B(15,14,16)      =         2.048123	     117.348798
	 B(17,13,18)      =         2.047227	     117.297464
	 D(1,2,3,4)       =        -0.000743	      -0.042580
	 D(1,2,3,9)       =        -3.133308	    -179.525300
	 D(1,6,5,4)       =         0.032038	       1.835628
	 D(1,6,5,11)      =        -3.111267	    -178.262440
	 D(1,7,13,17)     =         0.055090	       3.156396
	 D(1,7,13,18)     =        -3.050734	    -174.794193
	 D(1,7,14,15)     =        -3.034478	    -173.862764
	 D(1,7,14,16)     =         0.147092	       8.427757
	 D(2,1,6,5)       =        -0.044197	      -2.532300
	 D(2,1,6,12)      =         3.137260	     179.751742
	*D(2,1,7,13)      =         1.047198	      60.000011
	 D(2,1,7,14)      =        -2.148521	    -123.101192
	 D(2,3,4,5)       =        -0.011122	      -0.637244
	 D(2,3,4,10)      =         3.135754	     179.665463
	 D(3,2,1,6)       =         0.028545	       1.635497
	 D(3,2,1,7)       =         3.080590	     176.504834
	 D(3,4,5,6)       =        -0.004769	      -0.273247
	 D(3,4,5,11)      =         3.138544	     179.825315
	 D(4,3,2,8)       =         3.121556	     178.851979
	 D(4,5,6,12)      =         3.133748	     179.550536
	 D(5,4,3,9)       =         3.121396	     178.842797
	 D(5,6,1,7)       =        -3.096042	    -177.390130
	 D(6,1,2,8)       =        -3.093749	    -177.258745
	 D(6,1,7,13)      =        -2.182888	    -125.070285
	 D(6,1,7,14)      =         0.904578	      51.828512
	 D(6,5,4,10)      =         3.131541	     179.424110
	 D(7,1,2,8)       =        -0.041703	      -2.389408
	 D(7,1,6,12)      =         0.085415	       4.893912
	 D(8,2,3,9)       =        -0.011009	      -0.630741
	 D(9,3,4,10)      =        -0.014914	      -0.854496
	 D(10,4,5,11)     =        -0.008331	      -0.477328
	 D(11,5,6,12)     =        -0.009556	      -0.547532
	 D(13,7,14,15)    =         0.051965	       2.977399
	 D(13,7,14,16)    =        -3.049650	    -174.732079
	 D(14,7,13,17)    =        -3.031338	    -173.682900
	 D(14,7,13,18)    =         0.146023	       8.366511

	Current energy   :      -381.4681365541

	Energy change for the previous step:
		Projected    :        -0.0000009354
		Actual       :        -0.0000002421

	Performing BFGS update.
	Previous computed or guess Hessian on step 1.
	Steps to be used in Hessian update: 5 4
	Taking RFO optimization step.
	Going to follow RFO solution 1.
	Rejecting RFO root 1 because normalization gives large value.
	Rejecting RFO root 2 because normalization gives large value.
	Using RFO vector 3.
	Norm of target step-size    0.00126
	Projected energy change by RFO approximation:        -0.0000000814

	Back-transformation to cartesian coordinates...
	Successfully converged to displaced geometry.

	Back-transformation to cartesian coordinates to adjust frozen coordinates...
	Successfully converged to displaced geometry.

	--- Internal Coordinate Step in ANG or DEG, aJ/ANG or AJ/DEG ---
	 ---------------------------------------------------------------------------
	   Coordinate                Previous        Force       Change         New 
	   ----------                --------       ------       ------       ------
	    1 R(1,2)          =      1.404749     0.000026     0.000003     1.404752
	    2 R(1,6)          =      1.405072    -0.000045    -0.000012     1.405060
	    3 R(1,7)          =      1.473531    -0.000263    -0.000047     1.473484
	    4 R(2,3)          =      1.393008    -0.000064    -0.000007     1.393001
	    5 R(2,8)          =      1.086484    -0.000035    -0.000003     1.086481
	    6 R(3,4)          =      1.397711     0.000018     0.000004     1.397715
	    7 R(3,9)          =      1.085222     0.000003     0.000001     1.085223
	    8 R(4,5)          =      1.398362    -0.000010    -0.000002     1.398360
	    9 R(4,10)         =      1.085650    -0.000023    -0.000003     1.085646
	   10 R(5,6)          =      1.392510    -0.000020    -0.000001     1.392509
	   11 R(5,11)         =      1.085253    -0.000031    -0.000004     1.085249
	   12 R(6,12)         =      1.086415    -0.000091    -0.000009     1.086406
	   13 R(7,13)         =      1.326802     0.000062     0.000006     1.326808
	   14 R(7,14)         =      1.326683     0.000047     0.000010     1.326693
	   15 R(13,17)        =      1.012280    -0.000065    -0.000000     1.012280
	   16 R(13,18)        =      1.014159     0.000038     0.000009     1.014168
	   17 R(14,15)        =      1.014145     0.000022     0.000007     1.014152
	   18 R(14,16)        =      1.012248    -0.000249    -0.000021     1.012227
	   19 B(1,2,3)        =    119.303969     0.000000     0.001236   119.305204
	   20 B(1,2,8)        =    120.357427    -0.000000     0.000869   120.358296
	   21 B(1,6,5)        =    119.245765     0.000000     0.001082   119.246847
	   22 B(1,6,12)       =    120.334775     0.000000     0.001208   120.335983
	   23 B(1,7,13)       =    119.372747     0.000001     0.004213   119.376960
	   24 B(1,7,14)       =    119.344811     0.000000     0.002116   119.346926
	   25 B(2,1,6)        =    120.784037    -0.000000    -0.001989   120.782048
	   26 B(2,1,7)        =    119.395958     0.000001     0.002844   119.398802
	   27 B(2,3,4)        =    120.034915     0.000000     0.000237   120.035152
	   28 B(2,3,9)        =    119.724953    -0.000000    -0.000743   119.724210
	   29 B(3,2,8)        =    120.329302    -0.000000    -0.001854   120.327448
	   30 B(3,4,5)        =    120.507863    -0.000000    -0.001464   120.506399
	   31 B(3,4,10)       =    119.756415     0.000000     0.000378   119.756792
	   32 B(4,3,9)        =    120.238100     0.000000     0.000518   120.238618
	   33 B(4,5,6)        =    120.081314     0.000000     0.000592   120.081906
	   34 B(4,5,11)       =    120.208975     0.000000     0.001234   120.210209
	   35 B(5,4,10)       =    119.735033     0.000000     0.001065   119.736098
	   36 B(5,6,12)       =    120.379717    -0.000000    -0.002767   120.376950
	   37 B(6,1,7)        =    119.622150    -0.000001    -0.000407   119.621743
	   38 B(6,5,11)       =    119.709638    -0.000000    -0.001807   119.707831
	   39 B(7,13,17)      =    119.277221     0.000000     0.000827   119.278048
	   40 B(7,13,18)      =    123.395277    -0.000000    -0.001994   123.393282
	   41 B(7,14,15)      =    123.315633     0.000000     0.000700   123.316333
	   42 B(7,14,16)      =    119.298003     0.000000     0.002212   119.300215
	   43 B(13,7,14)      =    121.207890    -0.000002    -0.006551   121.201339
	   44 B(15,14,16)     =    117.348798    -0.000000    -0.001543   117.347255
	   45 B(17,13,18)     =    117.297464    -0.000000     0.000213   117.297677
	   46 D(1,2,3,4)      =     -0.042580    -0.000000    -0.005865    -0.048444
	   47 D(1,2,3,9)      =   -179.525300    -0.000000    -0.007382  -179.532683
	   48 D(1,6,5,4)      =      1.835628     0.000000     0.000642     1.836270
	   49 D(1,6,5,11)     =   -178.262440     0.000000     0.014076  -178.248364
	   50 D(1,7,13,17)    =      3.156396    -0.000000    -0.014923     3.141473
	   51 D(1,7,13,18)    =   -174.794193     0.000000     0.017376  -174.776817
	   52 D(1,7,14,15)    =   -173.862764     0.000000     0.032937  -173.829827
	   53 D(1,7,14,16)    =      8.427757    -0.000000    -0.009139     8.418618
	   54 D(2,1,6,5)      =     -2.532300    -0.000000    -0.009723    -2.542024
	   55 D(2,1,6,12)     =    179.751742     0.000000     0.003978   179.755720
	   56 *D(2,1,7,13)    =     60.000011    -0.000000     0.000000    60.000011
	   57 D(2,1,7,14)     =   -123.101192    -0.000000    -0.004827  -123.106019
	   58 D(2,3,4,5)      =     -0.637244     0.000000    -0.003154    -0.640398
	   59 D(2,3,4,10)     =    179.665463     0.000000     0.001567   179.667030
	   60 D(3,2,1,6)      =      1.635497     0.000000     0.012353     1.647849
	   61 D(3,2,1,7)      =    176.504834     0.000000     0.018143   176.522977
	   62 D(3,4,5,6)      =     -0.273247     0.000000     0.005827    -0.267421
	   63 D(3,4,5,11)     =    179.825315    -0.000000    -0.007672   179.817643
	   64 D(4,3,2,8)      =    178.851979     0.000000     0.009145   178.861125
	   65 D(4,5,6,12)     =    179.550536    -0.000000    -0.012973   179.537563
	   66 D(5,4,3,9)      =    178.842797    -0.000000    -0.001635   178.841162
	   67 D(5,6,1,7)      =   -177.390130    -0.000000    -0.015692  -177.405822
	   68 D(6,1,2,8)      =   -177.258745    -0.000000    -0.002631  -177.261376
	   69 D(6,1,7,13)     =   -125.070285    -0.000000     0.005637  -125.064647
	   70 D(6,1,7,14)     =     51.828512    -0.000000     0.000811    51.829323
	   71 D(6,5,4,10)     =    179.424110    -0.000000     0.001105   179.425215
	   72 D(7,1,2,8)      =     -2.389408    -0.000000     0.003159    -2.386248
	   73 D(7,1,6,12)     =      4.893912     0.000000    -0.001990     4.891923
	   74 D(8,2,3,9)      =     -0.630741     0.000000     0.007628    -0.623114
	   75 D(9,3,4,10)     =     -0.854496    -0.000000     0.003086    -0.851410
	   76 D(10,4,5,11)    =     -0.477328    -0.000000    -0.012394    -0.489722
	   77 D(11,5,6,12)    =     -0.547532    -0.000000     0.000461    -0.547071
	   78 D(13,7,14,15)   =      2.977399     0.000000     0.028370     3.005769
	   79 D(13,7,14,16)   =   -174.732079    -0.000000    -0.013707  -174.745786
	   80 D(14,7,13,17)   =   -173.682900    -0.000000    -0.010289  -173.693189
	   81 D(14,7,13,18)   =      8.366511     0.000000     0.022010     8.388521
	 ---------------------------------------------------------------------------
	Successfully symmetrized geometry.

  ==> Convergence Check <==

  Measures of convergence in internal coordinates in au.
  Criteria marked as inactive (o), active & met (*), and active & unmet ( ).
  ---------------------------------------------------------------------------------------------
   Step     Total Energy     Delta E     MAX Force     RMS Force      MAX Disp      RMS Disp   
  ---------------------------------------------------------------------------------------------
    Convergence Criteria    1.00e-06 *    3.00e-04 *             o    1.20e-03 *             o
  ---------------------------------------------------------------------------------------------
      6    -381.46813655   -2.42e-07 *    3.19e-05 *    7.12e-06 o    5.75e-04 *    1.40e-04 o  ~
  ---------------------------------------------------------------------------------------------


  **** Optimization is complete! (in 6 steps) ****

  ==> Optimization Summary <==

  Measures of convergence in internal coordinates in au.
  --------------------------------------------------------------------------------------------------------------- ~
   Step         Total Energy             Delta E       MAX Force       RMS Force        MAX Disp        RMS Disp  ~
  --------------------------------------------------------------------------------------------------------------- ~
      1    -381.467154119148   -381.467154119148      0.00461323      0.00123961      0.16438566      0.03417045  ~
      2    -381.467942754847     -0.000788635698      0.00541366      0.00100197      0.05617034      0.01090840  ~
      3    -381.468117086030     -0.000174331184      0.00069156      0.00018545      0.01715678      0.00443909  ~
      4    -381.468133612459     -0.000016526429      0.00054104      0.00009622      0.00518696      0.00143021  ~
      5    -381.468136311991     -0.000002699532      0.00009438      0.00002510      0.00226822      0.00051581  ~
      6    -381.468136554063     -0.000000242072      0.00003191      0.00000712      0.00057486      0.00014004  ~
  --------------------------------------------------------------------------------------------------------------- ~

	Writing optimization data to binary file.
	Final energy is   -381.4681365540631
	Final (previous) structure:
	Cartesian Geometry (in Angstrom)
	    C     0.0499897727   0.0035319336  -0.1772260923
	    C     0.0910674412   1.2217119418   0.5211082316
	    C     0.0567362309   1.2107983834   1.9136500210
	    C    -0.0187171525  -0.0032597775   2.6021022693
	    C    -0.0737237503  -1.2133146913   1.9034198059
	    C    -0.0593459188  -1.2165639375   0.5109877759
	    C     0.0079316612   0.0152528394  -1.6501097917
	    H     0.1309331034   2.1633910000  -0.0193532318
	    H     0.0803148494   2.1482494444   2.4598513099
	    H    -0.0397243016  -0.0067683056   3.6875428743
	    H    -0.1293751737  -2.1533199865   2.4429251493
	    H    -0.0945410094  -2.1541948385  -0.0366491517
	    N     1.0002344717   0.5811580136  -2.3250095812
	    N    -0.9898924318  -0.5942987203  -2.2769134978
	    H    -1.0320059614  -0.7016207279  -3.2844838464
	    H    -1.7718225984  -0.9458358049  -1.7387195623
	    H     1.7940278009   0.9533867978  -1.8189966790
	    H     0.9979139666   0.6916964359  -3.3331240028
	Saving final (previous) structure.
	Removing binary optimization data file.
			--------------------------
			 OPTKING Finished Execution 
			--------------------------

    Final optimized geometry and variables:
    Molecular point group: c1
    Full point group: C1

    Geometry (in Angstrom), charge = 1, multiplicity = 1:

    C            0.049989772659     0.003531933622    -0.177226092258
    C            0.091067441188     1.221711941831     0.521108231638
    C            0.056736230885     1.210798383434     1.913650020965
    C           -0.018717152451    -0.003259777495     2.602102269291
    C           -0.073723750273    -1.213314691299     1.903419805863
    C           -0.059345918773    -1.216563937529     0.510987775864
    C            0.007931661157     0.015252839432    -1.650109791734
    H            0.130933103402     2.163390999991    -0.019353231838
    H            0.080314849402     2.148249444397     2.459851309875
    H           -0.039724301628    -0.006768305584     3.687542874263
    H           -0.129375173699    -2.153319986503     2.442925149252
    H           -0.094541009423    -2.154194838522    -0.036649151674
    N            1.000234471672     0.581158013621    -2.325009581202
    N           -0.989892431811    -0.594298720338    -2.276913497784
    H           -1.032005961440    -0.701620727933    -3.284483846390
    H           -1.771822598388    -0.945835804857    -1.738719562304
    H            1.794027800884     0.953386797848    -1.818996679001
    H            0.997913966636     0.691696435885    -3.333124002826

	Removing binary optimization data file.
	Cleaning optimization helper files.


Properties will be evaluated at   0.000000,   0.000000,   0.000000 [a0]
OEProp: No title given, name of density matrix used for the following properties is 'SCF density'
  Nuclear Dipole Moment: [e a0]
     X:     0.6269      Y:     0.0226      Z:    -0.2095

  Electronic Dipole Moment: [e a0]
     X:    -0.6566      Y:     0.0028      Z:    -2.1851

  Dipole Moment: [e a0]
     X:    -0.0297      Y:     0.0254      Z:    -2.3946     Total:     2.3949

  Dipole Moment: [D]
     X:    -0.0756      Y:     0.0645      Z:    -6.0864     Total:     6.0872

  Quadrupole Moment: [D A]
    XX:   -45.1516     YY:   -42.0026     ZZ:   -13.5652
    XY:     6.0243     XZ:    -0.1855     YZ:    -0.2056

  Traceless Quadrupole Moment: [D A]
    XX:   -11.5785     YY:    -8.4295     ZZ:    20.0079
    XY:     6.0243     XZ:    -0.1855     YZ:    -0.2056

  Mulliken Charges: (a.u.)
   Center  Symbol    Alpha    Beta     Spin     Total
       1     C     2.97731  2.97731  0.00000  0.04539
       2     C     3.07526  3.07526  0.00000 -0.15052
       3     C     3.06177  3.06177  0.00000 -0.12355
       4     C     3.05254  3.05254  0.00000 -0.10509
       5     C     3.06321  3.06321  0.00000 -0.12642
       6     C     3.07714  3.07714  0.00000 -0.15428
       7     C     2.73649  2.73649  0.00000  0.52703
       8     H     0.41341  0.41341  0.00000  0.17317
       9     H     0.40632  0.40632  0.00000  0.18737
      10     H     0.40525  0.40525  0.00000  0.18949
      11     H     0.40629  0.40629  0.00000  0.18741
      12     H     0.41331  0.41331  0.00000  0.17337
      13     N     3.85215  3.85215  0.00000 -0.70431
      14     N     3.85374  3.85374  0.00000 -0.70748
      15     H     0.30534  0.30534  0.00000  0.38931
      16     H     0.29767  0.29767  0.00000  0.40466
      17     H     0.29722  0.29722  0.00000  0.40555
      18     H     0.30556  0.30556  0.00000  0.38888

   Total alpha = 32.00000, Total beta = 32.00000, Total charge =  1.00000


    Psi4 stopped on: Saturday, 29 September 2018 08:52PM
    Psi4 wall time for execution: 0:02:44.42

*** Psi4 exiting successfully. Buy a developer a beer!
