
    -----------------------------------------------------------------------
          Psi4: An Open-Source Ab Initio Electronic Structure Package
                               Psi4 1.2.1 release

                         Git: Rev {HEAD} 406f4de 


    R. M. Parrish, L. A. Burns, D. G. A. Smith, A. C. Simmonett,
    A. E. DePrince III, E. G. Hohenstein, U. Bozkaya, A. Yu. Sokolov,
    R. Di Remigio, R. M. Richard, J. F. Gonthier, A. M. James,
    H. R. McAlexander, A. Kumar, M. Saitow, X. Wang, B. P. Pritchard,
    P. Verma, H. F. Schaefer III, K. Patkowski, R. A. King, E. F. Valeev,
    F. A. Evangelista, J. M. Turney, T. D. Crawford, and C. D. Sherrill,
    J. Chem. Theory Comput. 13(7) pp 3185--3197 (2017).
    (doi: 10.1021/acs.jctc.7b00174)


                         Additional Contributions by
    P. Kraus, H. Kruse, M. H. Lechner, M. C. Schieber, and R. A. Shaw

    -----------------------------------------------------------------------


    Psi4 started on: Saturday, 29 September 2018 08:46PM

    Process ID: 4217
    Host:       rosa.prib.upf.edu
    PSIDATADIR: /shared/joao/test_parameterize/miniconda3/share/psi4
    Memory:     500.0 MiB
    Threads:    1
    
  ==> Input File <==

--------------------------------------------------------------------------
set_num_threads(4)
set_memory('3000 MB')

set { scf_mem_safety_factor 0.7 }

set { reference rks }
set { basis 6-31G* }

molecule MOL {
    1 1
    noreorient
    nocom
    symmetry c1
    C   -0.000000  -0.000000  -0.177864
    C    0.036678   1.219374   0.524165
    C    0.031765   1.213120   1.915444
    C    0.000000   0.000000   2.610107
    C   -0.031765  -1.213120   1.915444
    C   -0.036678  -1.219375   0.524165
    C   -0.000000   0.000000  -1.644734
    H    0.018170   2.164705  -0.010854
    H    0.042402   2.152895   2.457886
    H    0.000000   0.000000   3.695756
    H   -0.042402  -2.152895   2.457886
    H   -0.018170  -2.164705  -0.010853
    N    0.234187   1.128577  -2.308460
    N   -0.234187  -1.128577  -2.308461
    H   -0.154337  -1.201112  -3.315997
    H   -0.570662  -1.943991  -1.813317
    H    0.570662   1.943991  -1.813316
    H    0.154337   1.201113  -3.315996
}

set optking { frozen_dihedral = (" 2 1 7 13 ") }

set optking { dynamic_level = 1 
 geom_maxiter = 250
 print_trajectory_xyz_file = True }

energy, wfn = optimize('B3LYP-D3', return_wfn=True)

import os
os.chdir(os.environ['HTMD_PSI4_WORKDIR'])

oeprop(wfn, 'DIPOLE', 'QUADRUPOLE', 'MULLIKEN_CHARGES')

with open('psi4out.xyz', 'w') as f:
    f.write('18 ' )
    f.write('%.12f\n' % energy)
    f.write(MOL.save_string_xyz())
--------------------------------------------------------------------------
  Threads set to 4 by Python driver.

  Memory set to   2.794 GiB by Python driver.
gradient() will perform analytic gradient computation.

*** tstart() called on rosa.prib.upf.edu
*** at Sat Sep 29 20:46:51 2018

   => Loading Basis Set <=

    Name: 6-31G*
    Role: ORBITAL
    Keyword: BASIS
    atoms 1-7         entry C          line   111 file /shared/joao/test_parameterize/miniconda3/share/psi4/basis/6-31gs.gbs 
    atoms 8-12, 15-18 entry H          line    44 file /shared/joao/test_parameterize/miniconda3/share/psi4/basis/6-31gs.gbs 
    atoms 13-14       entry N          line   128 file /shared/joao/test_parameterize/miniconda3/share/psi4/basis/6-31gs.gbs 


         ---------------------------------------------------------
                                   SCF
            by Justin Turney, Rob Parrish, Andy Simmonett
                             and Daniel Smith
                              RKS Reference
                        4 Threads,   2861 MiB Core
         ---------------------------------------------------------

  ==> Geometry <==

    Molecular point group: c1
    Full point group: C1

    Geometry (in Angstrom), charge = 1, multiplicity = 1:

       Center              X                  Y                   Z               Mass       
    ------------   -----------------  -----------------  -----------------  -----------------
         C            0.000000000000     0.000000000000    -0.177864000000    12.000000000000
         C            0.036678000000     1.219374000000     0.524165000000    12.000000000000
         C            0.031765000000     1.213120000000     1.915444000000    12.000000000000
         C            0.000000000000     0.000000000000     2.610107000000    12.000000000000
         C           -0.031765000000    -1.213120000000     1.915444000000    12.000000000000
         C           -0.036678000000    -1.219375000000     0.524165000000    12.000000000000
         C            0.000000000000     0.000000000000    -1.644734000000    12.000000000000
         H            0.018170000000     2.164705000000    -0.010854000000     1.007825032070
         H            0.042402000000     2.152895000000     2.457886000000     1.007825032070
         H            0.000000000000     0.000000000000     3.695756000000     1.007825032070
         H           -0.042402000000    -2.152895000000     2.457886000000     1.007825032070
         H           -0.018170000000    -2.164705000000    -0.010853000000     1.007825032070
         N            0.234187000000     1.128577000000    -2.308460000000    14.003074004780
         N           -0.234187000000    -1.128577000000    -2.308461000000    14.003074004780
         H           -0.154337000000    -1.201112000000    -3.315997000000     1.007825032070
         H           -0.570662000000    -1.943991000000    -1.813317000000     1.007825032070
         H            0.570662000000     1.943991000000    -1.813316000000     1.007825032070
         H            0.154337000000     1.201113000000    -3.315996000000     1.007825032070

  Running in c1 symmetry.

  Rotational constants: A =      0.12190  B =      0.04068  C =      0.03063 [cm^-1]
  Rotational constants: A =   3654.48753  B =   1219.53248  C =    918.32603 [MHz]
  Nuclear repulsion =  417.633986022554495

  Charge       = 1
  Multiplicity = 1
  Electrons    = 64
  Nalpha       = 32
  Nbeta        = 32

  ==> Algorithm <==

  SCF Algorithm Type is DF.
  DIIS enabled.
  MOM disabled.
  Fractional occupation disabled.
  Guess Type is SAD.
  Energy threshold   = 1.00e-08
  Density threshold  = 1.00e-08
  Integral threshold = 0.00e+00

  ==> Primary Basis <==

  Basis Set: 6-31G*
    Blend: 6-31G*
    Number of shells: 72
    Number of basis function: 153
    Number of Cartesian functions: 153
    Spherical Harmonics?: false
    Max angular momentum: 2

  ==> DFT Potential <==

   => Composite Functional: B3LYP-D3ZERO <= 

    B3LYP-d3zero Hyb-GGA Exchange-Correlation Functional

    P. J. Stephens, F. J. Devlin, C. F. Chabalowski, and M. J. Frisch, J. Phys. Chem. 98, 11623 (1994)

    Deriv               =              1
    GGA                 =           TRUE
    Meta                =          FALSE

    Exchange Hybrid     =           TRUE
    MP2 Hybrid          =          FALSE

   => Exchange Functionals <=

    0.0800   Slater exchange
    0.7200         Becke 88

   => Exact (HF) Exchange <=

    0.2000               HF 

   => Correlation Functionals <=

    0.1900   Vosko, Wilk & Nusair (VWN5_RPA)
    0.8100   Lee, Yang & Parr

   => Molecular Quadrature <=

    Radial Scheme       =       TREUTLER
    Pruning Scheme      =           FLAT
    Nuclear Scheme      =       TREUTLER

    BS radius alpha     =              1
    Pruning alpha       =              1
    Radial Points       =             75
    Spherical Points    =            302
    Total Points        =         396618
    Total Blocks        =           2997
    Max Points          =            256
    Max Functions       =            149

   => -D3ZERO: Empirical Dispersion <=

    Grimme's -D3 (zero-damping) Dispersion Correction
    Grimme S.; Antony J.; Ehrlich S.; Krieg H. (2010), J. Chem. Phys., 132: 154104

        S6 =   1.000000E+00
        S8 =   1.703000E+00
       SR6 =   1.261000E+00
       SR8 =   1.000000E+00
    ALPHA6 =   1.400000E+01

   => Loading Basis Set <=

    Name: (6-31G* AUX)
    Role: JKFIT
    Keyword: DF_BASIS_SCF
    atoms 1-7         entry C          line   121 file /shared/joao/test_parameterize/miniconda3/share/psi4/basis/cc-pvdz-jkfit.gbs 
    atoms 8-12, 15-18 entry H          line    51 file /shared/joao/test_parameterize/miniconda3/share/psi4/basis/cc-pvdz-jkfit.gbs 
    atoms 13-14       entry N          line   171 file /shared/joao/test_parameterize/miniconda3/share/psi4/basis/cc-pvdz-jkfit.gbs 

  ==> Pre-Iterations <==

   -------------------------------------------------------
    Irrep   Nso     Nmo     Nalpha   Nbeta   Ndocc  Nsocc
   -------------------------------------------------------
     A        153     153       0       0       0       0
   -------------------------------------------------------
    Total     153     153      32      32      32       0
   -------------------------------------------------------

  ==> Integral Setup <==

  ==> DiskDFJK: Density-Fitted J/K Matrices <==

    J tasked:                  Yes
    K tasked:                  Yes
    wK tasked:                  No
    OpenMP threads:              4
    Integrals threads:           4
    Memory (MB):              2002
    Algorithm:                Core
    Integral Cache:           NONE
    Schwarz Cutoff:          1E-12
    Fitting Condition:       1E-12

   => Auxiliary Basis Set <=

  Basis Set: (6-31G* AUX)
    Blend: CC-PVDZ-JKFIT
    Number of shells: 297
    Number of basis function: 954
    Number of Cartesian functions: 954
    Spherical Harmonics?: false
    Max angular momentum: 3

  Minimum eigenvalue in the overlap matrix is 4.8054012591E-04.
  Using Symmetric Orthogonalization.

  SCF Guess: Superposition of Atomic Densities via on-the-fly atomic UHF.

  ==> Iterations <==

                           Total Energy        Delta E     RMS |[F,P]|

   @DF-RKS iter   0:  -379.52449745257871   -3.79524e+02   4.76238e-02 
   @DF-RKS iter   1:  -381.01410136582928   -1.48960e+00   8.71459e-03 
   @DF-RKS iter   2:  -380.91196407496051    1.02137e-01   1.35820e-02 DIIS
   @DF-RKS iter   3:  -381.45627047057246   -5.44306e-01   1.35522e-03 DIIS
   @DF-RKS iter   4:  -381.46404876117845   -7.77829e-03   6.22062e-04 DIIS
   @DF-RKS iter   5:  -381.46596627738154   -1.91752e-03   1.76450e-04 DIIS
   @DF-RKS iter   6:  -381.46611936772376   -1.53090e-04   8.73917e-05 DIIS
   @DF-RKS iter   7:  -381.46614043252799   -2.10648e-05   2.31276e-05 DIIS
   @DF-RKS iter   8:  -381.46614201121292   -1.57868e-06   6.32748e-06 DIIS
   @DF-RKS iter   9:  -381.46614213838461   -1.27172e-07   1.51785e-06 DIIS
   @DF-RKS iter  10:  -381.46614215161577   -1.32312e-08   6.21801e-07 DIIS
   @DF-RKS iter  11:  -381.46614215264623   -1.03046e-09   1.65198e-07 DIIS
   @DF-RKS iter  12:  -381.46614215271626   -7.00311e-11   5.90528e-08 DIIS
   @DF-RKS iter  13:  -381.46614215274042   -2.41585e-11   1.06076e-08 DIIS
   @DF-RKS iter  14:  -381.46614215274110   -6.82121e-13   2.97139e-09 DIIS

  ==> Post-Iterations <==

    Orbital Energies [Eh]
    ---------------------

    Doubly Occupied:                                                      

       1A    -14.565482     2A    -14.565475     3A    -10.496522  
       4A    -10.375874     5A    -10.361416     6A    -10.361405  
       7A    -10.346895     8A    -10.344032     9A    -10.343981  
      10A     -1.182919    11A     -1.091486    12A     -1.017479  
      13A     -0.928651    14A     -0.906633    15A     -0.847568  
      16A     -0.785723    17A     -0.779239    18A     -0.738150  
      19A     -0.737663    20A     -0.689748    21A     -0.668675  
      22A     -0.632552    23A     -0.611253    24A     -0.599947  
      25A     -0.580968    26A     -0.578894    27A     -0.518529  
      28A     -0.510171    29A     -0.502568    30A     -0.471814  
      31A     -0.413427    32A     -0.408820  

    Virtual:                                                              

      33A     -0.223950    34A     -0.158166    35A     -0.113935  
      36A     -0.113521    37A     -0.075485    38A     -0.069208  
      39A     -0.043019    40A     -0.028839    41A      0.012160  
      42A      0.025371    43A      0.028552    44A      0.064379  
      45A      0.079646    46A      0.085015    47A      0.118116  
      48A      0.132240    49A      0.151552    50A      0.187889  
      51A      0.217230    52A      0.248069    53A      0.302056  
      54A      0.348964    55A      0.350475    56A      0.374202  
      57A      0.391918    58A      0.395782    59A      0.417137  
      60A      0.426488    61A      0.434669    62A      0.451590  
      63A      0.453238    64A      0.470276    65A      0.470600  
      66A      0.472639    67A      0.481933    68A      0.498994  
      69A      0.503763    70A      0.537793    71A      0.563227  
      72A      0.591102    73A      0.624017    74A      0.646989  
      75A      0.666539    76A      0.694839    77A      0.695804  
      78A      0.702905    79A      0.717291    80A      0.744295  
      81A      0.772862    82A      0.775270    83A      0.793624  
      84A      0.813014    85A      0.843371    86A      0.846406  
      87A      0.878802    88A      0.926697    89A      0.957176  
      90A      1.021146    91A      1.041838    92A      1.054450  
      93A      1.081524    94A      1.105153    95A      1.132383  
      96A      1.161200    97A      1.186081    98A      1.273238  
      99A      1.277184   100A      1.307837   101A      1.323243  
     102A      1.341533   103A      1.357837   104A      1.398906  
     105A      1.434610   106A      1.451681   107A      1.504475  
     108A      1.595647   109A      1.632999   110A      1.648908  
     111A      1.664870   112A      1.736495   113A      1.753250  
     114A      1.797409   115A      1.816179   116A      1.864641  
     117A      1.900736   118A      1.912328   119A      1.932765  
     120A      1.978400   121A      1.990106   122A      2.019782  
     123A      2.041755   124A      2.065311   125A      2.109690  
     126A      2.121779   127A      2.148264   128A      2.213768  
     129A      2.279628   130A      2.285073   131A      2.313096  
     132A      2.358456   133A      2.443372   134A      2.482030  
     135A      2.493320   136A      2.494475   137A      2.526933  
     138A      2.590546   139A      2.592474   140A      2.652769  
     141A      2.741110   142A      2.886492   143A      3.010456  
     144A      3.258181   145A      3.646708   146A      3.699533  
     147A      3.899834   148A      3.942154   149A      3.961001  
     150A      4.035611   151A      4.169055   152A      4.258034  
     153A      4.547977  

    Final Occupation by Irrep:
              A 
    DOCC [    32 ]

  Energy converged.

  @DF-RKS Final Energy:  -381.46614215274110

   => Energetics <=

    Nuclear Repulsion Energy =            417.6339860225544953
    One-Electron Energy =               -1330.3219790861467118
    Two-Electron Energy =                 575.6442434722209782
    DFT Exchange-Correlation Energy =     -44.4109419113698891
    Empirical Dispersion Energy =          -0.0114506500000000
    VV10 Nonlocal Energy =                  0.0000000000000000
    Total Energy =                       -381.4661421527410994



Properties will be evaluated at   0.000000,   0.000000,   0.000000 [a0]

Properties computed using the SCF density matrix

  Nuclear Dipole Moment: [e a0]
     X:     0.0000      Y:    -0.0000      Z:     0.0248

  Electronic Dipole Moment: [e a0]
     X:     0.0000      Y:     0.0000      Z:    -2.1701

  Dipole Moment: [e a0]
     X:     0.0000      Y:     0.0000      Z:    -2.1453     Total:     2.1453

  Dipole Moment: [D]
     X:     0.0000      Y:     0.0000      Z:    -5.4528     Total:     5.4528


*** tstop() called on rosa.prib.upf.edu at Sat Sep 29 20:47:27 2018
Module time:
	user time   =     106.99 seconds =       1.78 minutes
	system time =       1.70 seconds =       0.03 minutes
	total time  =         36 seconds =       0.60 minutes
Total time:
	user time   =     106.99 seconds =       1.78 minutes
	system time =       1.70 seconds =       0.03 minutes
	total time  =         36 seconds =       0.60 minutes

*** tstart() called on rosa.prib.upf.edu
*** at Sat Sep 29 20:47:28 2018


         ------------------------------------------------------------
                                   SCF GRAD                          
                          Rob Parrish, Justin Turney,                
                       Andy Simmonett, and Alex Sokolov              
         ------------------------------------------------------------

  ==> Geometry <==

    Molecular point group: c1
    Full point group: C1

    Geometry (in Angstrom), charge = 1, multiplicity = 1:

       Center              X                  Y                   Z               Mass       
    ------------   -----------------  -----------------  -----------------  -----------------
         C            0.000000000000     0.000000000000    -0.177864000000    12.000000000000
         C            0.036678000000     1.219374000000     0.524165000000    12.000000000000
         C            0.031765000000     1.213120000000     1.915444000000    12.000000000000
         C            0.000000000000     0.000000000000     2.610107000000    12.000000000000
         C           -0.031765000000    -1.213120000000     1.915444000000    12.000000000000
         C           -0.036678000000    -1.219375000000     0.524165000000    12.000000000000
         C            0.000000000000     0.000000000000    -1.644734000000    12.000000000000
         H            0.018170000000     2.164705000000    -0.010854000000     1.007825032070
         H            0.042402000000     2.152895000000     2.457886000000     1.007825032070
         H            0.000000000000     0.000000000000     3.695756000000     1.007825032070
         H           -0.042402000000    -2.152895000000     2.457886000000     1.007825032070
         H           -0.018170000000    -2.164705000000    -0.010853000000     1.007825032070
         N            0.234187000000     1.128577000000    -2.308460000000    14.003074004780
         N           -0.234187000000    -1.128577000000    -2.308461000000    14.003074004780
         H           -0.154337000000    -1.201112000000    -3.315997000000     1.007825032070
         H           -0.570662000000    -1.943991000000    -1.813317000000     1.007825032070
         H            0.570662000000     1.943991000000    -1.813316000000     1.007825032070
         H            0.154337000000     1.201113000000    -3.315996000000     1.007825032070

  Nuclear repulsion =  417.633986022554495

  ==> Basis Set <==

  Basis Set: 6-31G*
    Blend: 6-31G*
    Number of shells: 72
    Number of basis function: 153
    Number of Cartesian functions: 153
    Spherical Harmonics?: false
    Max angular momentum: 2

  ==> DFJKGrad: Density-Fitted SCF Gradients <==

    Gradient:                    1
    J tasked:                  Yes
    K tasked:                  Yes
    wK tasked:                  No
    OpenMP threads:              4
    Integrals threads:           4
    Memory (MB):              2002
    Schwarz Cutoff:          0E+00
    Fitting Condition:       1E-12

   => Auxiliary Basis Set <=

  Basis Set: (6-31G* AUX)
    Blend: CC-PVDZ-JKFIT
    Number of shells: 297
    Number of basis function: 954
    Number of Cartesian functions: 954
    Spherical Harmonics?: false
    Max angular momentum: 3

  ==> DFT Potential <==

   => Composite Functional: B3LYP-D3ZERO <= 

    B3LYP-d3zero Hyb-GGA Exchange-Correlation Functional

    P. J. Stephens, F. J. Devlin, C. F. Chabalowski, and M. J. Frisch, J. Phys. Chem. 98, 11623 (1994)

    Deriv               =              1
    GGA                 =           TRUE
    Meta                =          FALSE

    Exchange Hybrid     =           TRUE
    MP2 Hybrid          =          FALSE

   => Exchange Functionals <=

    0.0800   Slater exchange
    0.7200         Becke 88

   => Exact (HF) Exchange <=

    0.2000               HF 

   => Correlation Functionals <=

    0.1900   Vosko, Wilk & Nusair (VWN5_RPA)
    0.8100   Lee, Yang & Parr

   => Molecular Quadrature <=

    Radial Scheme       =       TREUTLER
    Pruning Scheme      =           FLAT
    Nuclear Scheme      =       TREUTLER

    BS radius alpha     =              1
    Pruning alpha       =              1
    Radial Points       =             75
    Spherical Points    =            302
    Total Points        =         396618
    Total Blocks        =           2997
    Max Points          =            256
    Max Functions       =            149


  -Total Gradient:
     Atom            X                  Y                   Z
    ------   -----------------  -----------------  -----------------
       1        0.000000019554     0.000000584796     0.002058055136
       2        0.002912534127     0.003508408913    -0.002677809688
       3       -0.000257364504    -0.001623066141     0.001114140974
       4       -0.000000000240    -0.000000061305     0.000391420010
       5        0.000257364808     0.001623276676     0.001114257017
       6       -0.002912529544    -0.003509846367    -0.002678173225
       7        0.000000057900     0.000000278735    -0.002586414741
       8        0.000641149484    -0.000767601048    -0.004030486171
       9       -0.000330706269     0.000088070738    -0.000057359696
      10        0.000000001163     0.000000006419     0.000077202774
      11        0.000330705083    -0.000088074699    -0.000057417632
      12       -0.000641156174     0.000768368908    -0.004029983186
      13       -0.002297724586     0.000681298701     0.003016635583
      14        0.002297633404    -0.000681739397     0.003016155686
      15        0.000843074863    -0.000462174405    -0.000691012806
      16       -0.000223398900    -0.000777948954     0.003360842130
      17        0.000223406123     0.000777986019     0.003360773504
      18       -0.000843066202     0.000462232335    -0.000691049479


*** tstop() called on rosa.prib.upf.edu at Sat Sep 29 20:47:37 2018
Module time:
	user time   =      28.54 seconds =       0.48 minutes
	system time =       0.81 seconds =       0.01 minutes
	total time  =          9 seconds =       0.15 minutes
Total time:
	user time   =     135.61 seconds =       2.26 minutes
	system time =       2.52 seconds =       0.04 minutes
	total time  =         46 seconds =       0.77 minutes

			-----------------------------------------
			 OPTKING 2.0: for geometry optimizations 
			  - R.A. King,  Bethel University        
			-----------------------------------------
	At level 1: Red. Int., RFO, no backsteps, dynamic trust

	Internal coordinates to be generated automatically.
	Detected frag 1 with atoms:  1 2 3 4 5 6 7 8 9 10 11 12 13 14 15 16 17 18
	---Fragment 1 Bond Connectivity---
	 1 : 2 6 7
	 2 : 1 3 8
	 3 : 2 4 9
	 4 : 3 5 10
	 5 : 4 6 11
	 6 : 1 5 12
	 7 : 1 13 14
	 8 : 2
	 9 : 3
	 10 : 4
	 11 : 5
	 12 : 6
	 13 : 7 17 18
	 14 : 7 15 16
	 15 : 14
	 16 : 14
	 17 : 13
	 18 : 13

	Assuming in current code that numbering for constraints corresponds to unified fragment.
	Frozen dihedral atom list: 
	     2     1     7    13
	---Fragment 1 Geometry and Gradient---
	 C           0.0000000000        0.0000000000       -0.3361142489
	 C           0.0693113751        2.3042829136        0.9905282984
	 C           0.0600271506        2.2924645663        3.6196645829
	 C           0.0000000000        0.0000000000        4.9323874075
	 C          -0.0600271506       -2.2924645663        3.6196645829
	 C          -0.0693113751       -2.3042848033        0.9905282984
	 C           0.0000000000        0.0000000000       -3.1080968214
	 H           0.0343363238        4.0906996085       -0.0205110874
	 H           0.0801281675        4.0683819429        4.6447314059
	 H           0.0000000000        0.0000000000        6.9839666940
	 H          -0.0801281675       -4.0683819429        4.6447314059
	 H          -0.0343363238       -4.0906996085       -0.0205091977
	 N           0.4425492939        2.1327014499       -4.3623571887
	 N          -0.4425492939       -2.1327014499       -4.3623590784
	 H          -0.2916546622       -2.2697727349       -6.2663261875
	 H          -1.0783948944       -3.6736105948       -3.4266725221
	 H           1.0783948944        3.6736105948       -3.4266706324
	 H           0.2916546622        2.2697746246       -6.2663242977
	             0.0000000196        0.0000005848        0.0020580551
	             0.0029125341        0.0035084089       -0.0026778097
	            -0.0002573645       -0.0016230661        0.0011141410
	            -0.0000000002       -0.0000000613        0.0003914200
	             0.0002573648        0.0016232767        0.0011142570
	            -0.0029125295       -0.0035098464       -0.0026781732
	             0.0000000579        0.0000002787       -0.0025864147
	             0.0006411495       -0.0007676010       -0.0040304862
	            -0.0003307063        0.0000880707       -0.0000573597
	             0.0000000012        0.0000000064        0.0000772028
	             0.0003307051       -0.0000880747       -0.0000574176
	            -0.0006411562        0.0007683689       -0.0040299832
	            -0.0022977246        0.0006812987        0.0030166356
	             0.0022976334       -0.0006817394        0.0030161557
	             0.0008430749       -0.0004621744       -0.0006910128
	            -0.0002233989       -0.0007779490        0.0033608421
	             0.0002234061        0.0007779860        0.0033607735
	            -0.0008430662        0.0004622323       -0.0006910495

	Previous optimization step data not found.  Starting new optimization.

	---Fragment 1 Intrafragment Coordinates---
	 - Coordinate -           - BOHR/RAD -       - ANG/DEG -
	 R(1,2)           =         2.659794	       1.407502
	 R(1,6)           =         2.659796	       1.407503
	 R(1,7)           =         2.771983	       1.466870
	 R(2,3)           =         2.629179	       1.391302
	 R(2,8)           =         2.052976	       1.086388
	 R(3,4)           =         2.642393	       1.398294
	 R(3,9)           =         2.050622	       1.085142
	 R(4,5)           =         2.642393	       1.398294
	 R(4,10)          =         2.051579	       1.085649
	 R(5,6)           =         2.629179	       1.391302
	 R(5,11)          =         2.050622	       1.085142
	 R(6,12)          =         2.052973	       1.086386
	 R(7,13)          =         2.513451	       1.330061
	 R(7,14)          =         2.513452	       1.330061
	 R(13,17)         =         1.911599	       1.011575
	 R(13,18)         =         1.914850	       1.013295
	 R(14,15)         =         1.914849	       1.013295
	 R(14,16)         =         1.911599	       1.011575
	 B(1,2,3)         =         2.088380	     119.655376
	 B(1,2,8)         =         2.103396	     120.515689
	 B(1,6,5)         =         2.088379	     119.655315
	 B(1,6,12)        =         2.103396	     120.515729
	 B(1,7,13)        =         2.093263	     119.935137
	 B(1,7,14)        =         2.093264	     119.935175
	 B(2,1,6)         =         2.097220	     120.161857
	 B(2,1,7)         =         2.092983	     119.919082
	 B(2,3,4)         =         2.095279	     120.050636
	 B(2,3,9)         =         2.089719	     119.732108
	 B(3,2,8)         =         2.090149	     119.756722
	 B(3,4,5)         =         2.101793	     120.423859
	 B(3,4,10)        =         2.090696	     119.788070
	 B(4,3,9)         =         2.098135	     120.214297
	 B(4,5,6)         =         2.095280	     120.050677
	 B(4,5,11)        =         2.098135	     120.214297
	 B(5,4,10)        =         2.090696	     119.788070
	 B(5,6,12)        =         2.090149	     119.756743
	 B(6,1,7)         =         2.092982	     119.919061
	 B(6,5,11)        =         2.089719	     119.732067
	 B(7,13,17)       =         2.092412	     119.886368
	 B(7,13,18)       =         2.144860	     122.891420
	 B(7,14,15)       =         2.144860	     122.891403
	 B(7,14,16)       =         2.092411	     119.886331
	 B(13,7,14)       =         2.096659	     120.129688
	 B(15,14,16)      =         2.043400	     117.078203
	 B(17,13,18)      =         2.043399	     117.078150
	 D(1,2,3,4)       =         0.007799	       0.446825
	 D(1,2,3,9)       =        -3.122896	    -178.928735
	 D(1,6,5,4)       =         0.007799	       0.446822
	 D(1,6,5,11)      =        -3.122896	    -178.928737
	 D(1,7,13,17)     =         0.187845	      10.762723
	 D(1,7,13,18)     =        -3.032165	    -173.730273
	 D(1,7,14,15)     =        -3.032166	    -173.730287
	 D(1,7,14,16)     =         0.187845	      10.762719
	 D(2,1,6,5)       =        -0.003906	      -0.223802
	 D(2,1,6,12)      =        -3.091437	    -177.126283
	*D(2,1,7,13)      =         0.174532	       9.999974
	 D(2,1,7,14)      =        -2.967060	    -170.000026
	 D(2,3,4,5)       =        -0.003942	      -0.225875
	 D(2,3,4,10)      =         3.137650	     179.774125
	 D(3,2,1,6)       =        -0.003906	      -0.223806
	 D(3,2,1,7)       =         3.137687	     179.776196
	 D(3,4,5,6)       =        -0.003942	      -0.225874
	 D(3,4,5,11)      =         3.126699	     179.146646
	 D(4,3,2,8)       =         3.095744	     177.373058
	 D(4,5,6,12)      =         3.095744	     177.373055
	 D(5,4,3,9)       =         3.126699	     179.146646
	 D(5,6,1,7)       =         3.137687	     179.776197
	 D(6,1,2,8)       =        -3.091437	    -177.126287
	 D(6,1,7,13)      =        -2.967060	    -170.000025
	 D(6,1,7,14)      =         0.174532	       9.999975
	 D(6,5,4,10)      =         3.137650	     179.774126
	 D(7,1,2,8)       =         0.050156	       2.873714
	 D(7,1,6,12)      =         0.050156	       2.873716
	 D(8,2,3,9)       =        -0.034950	      -2.002503
	 D(9,3,4,10)      =        -0.014894	      -0.853354
	 D(10,4,5,11)     =        -0.014894	      -0.853354
	 D(11,5,6,12)     =        -0.034950	      -2.002504
	 D(13,7,14,15)    =         0.109427	       6.269713
	 D(13,7,14,16)    =        -2.953748	    -169.237281
	 D(14,7,13,17)    =        -2.953748	    -169.237277
	 D(14,7,13,18)    =         0.109427	       6.269727

	Current energy   :      -381.4661421527

	Generating empirical Hessian (Schlegel '84) for each fragment.
	Taking RFO optimization step.
	Going to follow RFO solution 1.
	Using RFO vector 1.
	Norm of target step-size    0.29611
	Projected energy change by RFO approximation:        -0.0067455741

	Back-transformation to cartesian coordinates...
	Could not converge backtransformation.
	Using first guess instead.

	Back-transformation to cartesian coordinates to adjust frozen coordinates...
	Successfully converged to displaced geometry.

	--- Internal Coordinate Step in ANG or DEG, aJ/ANG or AJ/DEG ---
	 ---------------------------------------------------------------------------
	   Coordinate                Previous        Force       Change         New 
	   ----------                --------       ------       ------       ------
	    1 R(1,2)          =      1.407502     0.025780     0.004015     1.411518
	    2 R(1,6)          =      1.407503     0.025768     0.005575     1.413078
	    3 R(1,7)          =      1.466870     0.072354     0.013730     1.480600
	    4 R(2,3)          =      1.391302    -0.010751    -0.001387     1.389915
	    5 R(2,8)          =      1.086388    -0.010762    -0.001088     1.085300
	    6 R(3,4)          =      1.398294    -0.013723    -0.001737     1.396557
	    7 R(3,9)          =      1.085142    -0.000363     0.000016     1.085158
	    8 R(4,5)          =      1.398294    -0.013730    -0.001603     1.396691
	    9 R(4,10)         =      1.085649    -0.000632    -0.000100     1.085549
	   10 R(5,6)          =      1.391302    -0.010766    -0.001442     1.389860
	   11 R(5,11)         =      1.085142    -0.000363     0.000420     1.085562
	   12 R(6,12)         =      1.086386    -0.010755    -0.000018     1.086369
	   13 R(7,13)         =      1.330061     0.014171     0.002244     1.332305
	   14 R(7,14)         =      1.330061     0.014167     0.004490     1.334551
	   15 R(13,17)        =      1.011575    -0.019329    -0.001239     1.010335
	   16 R(13,18)        =      1.013295    -0.006485    -0.000117     1.013178
	   17 R(14,15)        =      1.013295    -0.006485     0.000053     1.013348
	   18 R(14,16)        =      1.011575    -0.019329     0.001059     1.012634
	   19 B(1,2,3)        =    119.655376     0.000268     0.881410   120.536786
	   20 B(1,2,8)        =    120.515689     0.000168     0.942491   121.458180
	   21 B(1,6,5)        =    119.655315     0.000268     0.845162   120.500476
	   22 B(1,6,12)       =    120.515729     0.000169     1.034061   121.549790
	   23 B(1,7,13)       =    119.935137     0.000487     1.469869   121.405007
	   24 B(1,7,14)       =    119.935175     0.000487     1.214220   121.149395
	   25 B(2,1,6)        =    120.161857    -0.000536    -1.561754   118.600103
	   26 B(2,1,7)        =    119.919082     0.000268     0.781980   120.701062
	   27 B(2,3,4)        =    120.050636     0.000029     0.038742   120.089378
	   28 B(2,3,9)        =    119.732108    -0.000008     0.003781   119.735889
	   29 B(3,2,8)        =    119.756722    -0.000436    -1.847822   117.908900
	   30 B(3,4,5)        =    120.423859    -0.000058    -0.272828   120.151031
	   31 B(3,4,10)       =    119.788070     0.000029     0.143620   119.931691
	   32 B(4,3,9)        =    120.214297    -0.000021    -0.042884   120.171413
	   33 B(4,5,6)        =    120.050677     0.000029     0.030739   120.081416
	   34 B(4,5,11)       =    120.214297    -0.000022    -0.028818   120.185479
	   35 B(5,4,10)       =    119.788070     0.000029     0.126422   119.914492
	   36 B(5,6,12)       =    119.756743    -0.000437    -1.870919   117.885824
	   37 B(6,1,7)        =    119.919061     0.000268     0.605973   120.525035
	   38 B(6,5,11)       =    119.732067    -0.000007    -0.010957   119.721110
	   39 B(7,13,17)      =    119.886368     0.000248     1.136807   121.023175
	   40 B(7,13,18)      =    122.891420    -0.000140    -0.669566   122.221854
	   41 B(7,14,15)      =    122.891403    -0.000140    -0.664908   122.226495
	   42 B(7,14,16)      =    119.886331     0.000248     1.260111   121.146442
	   43 B(13,7,14)      =    120.129688    -0.000975    -2.849908   117.279780
	   44 B(15,14,16)     =    117.078203    -0.000113    -0.795226   116.282978
	   45 B(17,13,18)     =    117.078150    -0.000113    -0.666340   116.411810
	   46 D(1,2,3,4)      =      0.446825    -0.000002    -0.012373     0.434452
	   47 D(1,2,3,9)      =   -178.928735    -0.000001     0.024910  -178.903825
	   48 D(1,6,5,4)      =      0.446822    -0.000011    -1.794136    -1.347314
	   49 D(1,6,5,11)     =   -178.928737    -0.000007    -1.161173  -180.089910
	   50 D(1,7,13,17)    =     10.762723     0.000020     3.267022    14.029745
	   51 D(1,7,13,18)    =   -173.730273     0.000002     0.791061  -172.939212
	   52 D(1,7,14,15)    =   -173.730287    -0.000024    -3.999730  -177.730017
	   53 D(1,7,14,16)    =     10.762719    -0.000006    -1.505765     9.256954
	   54 D(2,1,6,5)      =     -0.223802     0.000014     2.644453     2.420651
	   55 D(2,1,6,12)     =   -177.126283     0.000016     2.515956  -174.610326
	   56 *D(2,1,7,13)    =      9.999974    -0.000000    -0.000000     9.999974
	   57 D(2,1,7,14)     =   -170.000026     0.000026     4.807958  -165.192069
	   58 D(2,3,4,5)      =     -0.225875     0.000006     0.911608     0.685733
	   59 D(2,3,4,10)     =    179.774125     0.000003     0.303929   180.078053
	   60 D(3,2,1,6)      =     -0.223806    -0.000008    -1.739838    -1.963644
	   61 D(3,2,1,7)      =    179.776196     0.000016     3.026495   182.802691
	   62 D(3,4,5,6)      =     -0.225874     0.000001    -0.002615    -0.228489
	   63 D(3,4,5,11)     =    179.146646    -0.000002    -0.638427   178.508220
	   64 D(4,3,2,8)      =    177.373058    -0.000002    -0.451971   176.921087
	   65 D(4,5,6,12)     =    177.373055    -0.000008    -1.582834   175.790221
	   66 D(5,4,3,9)      =    179.146646     0.000005     0.874458   180.021104
	   67 D(5,6,1,7)      =    179.776197    -0.000009    -2.113204   177.662994
	   68 D(6,1,2,8)      =   -177.126287    -0.000003    -1.197496  -178.323784
	   69 D(6,1,7,13)     =   -170.000025     0.000024     4.858263  -165.141762
	   70 D(6,1,7,14)     =      9.999975     0.000049     9.666221    19.666196
	   71 D(6,5,4,10)     =    179.774126     0.000004     0.604960   180.379085
	   72 D(7,1,2,8)      =      2.873714     0.000020     3.568837     6.442551
	   73 D(7,1,6,12)     =      2.873716    -0.000008    -2.241700     0.632016
	   74 D(8,2,3,9)      =     -2.002503    -0.000002    -0.414687    -2.417190
	   75 D(9,3,4,10)     =     -0.853354     0.000002     0.266778    -0.586575
	   76 D(10,4,5,11)    =     -0.853354     0.000001    -0.030852    -0.884206
	   77 D(11,5,6,12)    =     -2.002504    -0.000005    -0.949871    -2.952375
	   78 D(13,7,14,15)   =      6.269713     0.000002     0.616988     6.886701
	   79 D(13,7,14,16)   =   -169.237281     0.000020     3.110952  -166.126328
	   80 D(14,7,13,17)   =   -169.237277    -0.000006    -1.362251  -170.599528
	   81 D(14,7,13,18)   =      6.269727    -0.000024    -3.838212     2.431515
	 ---------------------------------------------------------------------------
	Successfully symmetrized geometry.

  ==> Convergence Check <==

  Measures of convergence in internal coordinates in au.
  Criteria marked as inactive (o), active & met (*), and active & unmet ( ).
  --------------------------------------------------------------------------------------------- ~
   Step     Total Energy     Delta E     MAX Force     RMS Force      MAX Disp      RMS Disp    ~
  --------------------------------------------------------------------------------------------- ~
    Convergence Criteria    1.00e-06 *    3.00e-04 *             o    1.20e-03 *             o  ~
  --------------------------------------------------------------------------------------------- ~
      1    -381.46614215   -3.81e+02      1.28e-02      2.74e-03 o    1.69e-01      3.30e-02 o  ~
  ---------------------------------------------------------------------------------------------

	Writing optimization data to binary file.
	Structure for next step:
	Cartesian Geometry (in Angstrom)
	    C    -0.0292565665  -0.0031098553  -0.1711373113
	    C    -0.0087622141   1.2119350509   0.5469352583
	    C    -0.0008726873   1.2107945793   1.9368273799
	    C    -0.0040601561   0.0018783440   2.6360294657
	    C    -0.0007272950  -1.2100630873   1.9418153045
	    C     0.0009804383  -1.2167765533   0.5519725594
	    C     0.0245216721  -0.0077550709  -1.6507525339
	    H    -0.0574809366   2.1703275063   0.0399965758
	    H    -0.0031150463   2.1526031204   2.4758629798
	    H     0.0008378425   0.0039823139   3.7215648804
	    H     0.0212276100  -2.1499359347   2.4845872867
	    H     0.0740521228  -2.1767035226   0.0485860280
	    N     0.2899835403   1.1015151455  -2.3392914086
	    N    -0.2843631365  -1.1021083744  -2.3493277783
	    H    -0.2208089041  -1.1337645102  -3.3601852617
	    H    -0.6947770265  -1.9116391867  -1.9002759066
	    H     0.6651865576   1.9207743861  -1.8823298153
	    H     0.2274341855   1.1380456490  -3.3498767029
			--------------------------
			 OPTKING Finished Execution 
			--------------------------

    Structure for next step:
    Molecular point group: c1
    Full point group: C1

    Geometry (in Angstrom), charge = 1, multiplicity = 1:

    C           -0.029256566471    -0.003109855265    -0.171137311266
    C           -0.008762214148     1.211935050944     0.546935258283
    C           -0.000872687332     1.210794579258     1.936827379931
    C           -0.004060156104     0.001878344042     2.636029465744
    C           -0.000727295003    -1.210063087338     1.941815304455
    C            0.000980438251    -1.216776553282     0.551972559374
    C            0.024521672050    -0.007755070921    -1.650752533879
    H           -0.057480936622     2.170327506297     0.039996575800
    H           -0.003115046321     2.152603120421     2.475862979812
    H            0.000837842548     0.003982313889     3.721564880369
    H            0.021227609958    -2.149935934722     2.484587286698
    H            0.074052122833    -2.176703522622     0.048586028025
    N            0.289983540309     1.101515145516    -2.339291408566
    N           -0.284363136467    -1.102108374376    -2.349327778273
    H           -0.220808904073    -1.133764510240    -3.360185261681
    H           -0.694777026519    -1.911639186719    -1.900275906621
    H            0.665186557647     1.920774386086    -1.882329815319
    H            0.227434185463     1.138045649031    -3.349876702886

gradient() will perform analytic gradient computation.

*** tstart() called on rosa.prib.upf.edu
*** at Sat Sep 29 20:47:38 2018

   => Loading Basis Set <=

    Name: 6-31G*
    Role: ORBITAL
    Keyword: BASIS
    atoms 1-7         entry C          line   111 file /shared/joao/test_parameterize/miniconda3/share/psi4/basis/6-31gs.gbs 
    atoms 8-12, 15-18 entry H          line    44 file /shared/joao/test_parameterize/miniconda3/share/psi4/basis/6-31gs.gbs 
    atoms 13-14       entry N          line   128 file /shared/joao/test_parameterize/miniconda3/share/psi4/basis/6-31gs.gbs 


         ---------------------------------------------------------
                                   SCF
            by Justin Turney, Rob Parrish, Andy Simmonett
                             and Daniel Smith
                              RKS Reference
                        4 Threads,   2861 MiB Core
         ---------------------------------------------------------

  ==> Geometry <==

    Molecular point group: c1
    Full point group: C1

    Geometry (in Angstrom), charge = 1, multiplicity = 1:

       Center              X                  Y                   Z               Mass       
    ------------   -----------------  -----------------  -----------------  -----------------
         C           -0.029256566471    -0.003109855265    -0.171137311266    12.000000000000
         C           -0.008762214148     1.211935050944     0.546935258283    12.000000000000
         C           -0.000872687332     1.210794579258     1.936827379931    12.000000000000
         C           -0.004060156104     0.001878344042     2.636029465744    12.000000000000
         C           -0.000727295003    -1.210063087338     1.941815304455    12.000000000000
         C            0.000980438251    -1.216776553282     0.551972559374    12.000000000000
         C            0.024521672050    -0.007755070921    -1.650752533879    12.000000000000
         H           -0.057480936622     2.170327506297     0.039996575800     1.007825032070
         H           -0.003115046321     2.152603120421     2.475862979812     1.007825032070
         H            0.000837842548     0.003982313889     3.721564880369     1.007825032070
         H            0.021227609958    -2.149935934722     2.484587286698     1.007825032070
         H            0.074052122833    -2.176703522622     0.048586028025     1.007825032070
         N            0.289983540309     1.101515145516    -2.339291408566    14.003074004780
         N           -0.284363136467    -1.102108374376    -2.349327778273    14.003074004780
         H           -0.220808904073    -1.133764510240    -3.360185261681     1.007825032070
         H           -0.694777026519    -1.911639186719    -1.900275906621     1.007825032070
         H            0.665186557647     1.920774386086    -1.882329815319     1.007825032070
         H            0.227434185463     1.138045649031    -3.349876702886     1.007825032070

  Running in c1 symmetry.

  Rotational constants: A =      0.12325  B =      0.03953  C =      0.03018 [cm^-1]
  Rotational constants: A =   3694.88020  B =   1184.99715  C =    904.81784 [MHz]
  Nuclear repulsion =  415.661743102885623

  Charge       = 1
  Multiplicity = 1
  Electrons    = 64
  Nalpha       = 32
  Nbeta        = 32

  ==> Algorithm <==

  SCF Algorithm Type is DF.
  DIIS enabled.
  MOM disabled.
  Fractional occupation disabled.
  Guess Type is READ.
  Energy threshold   = 1.00e-08
  Density threshold  = 1.00e-08
  Integral threshold = 0.00e+00

  ==> Primary Basis <==

  Basis Set: 6-31G*
    Blend: 6-31G*
    Number of shells: 72
    Number of basis function: 153
    Number of Cartesian functions: 153
    Spherical Harmonics?: false
    Max angular momentum: 2

  ==> DFT Potential <==

   => Composite Functional: B3LYP-D3ZERO <= 

    B3LYP-d3zero Hyb-GGA Exchange-Correlation Functional

    P. J. Stephens, F. J. Devlin, C. F. Chabalowski, and M. J. Frisch, J. Phys. Chem. 98, 11623 (1994)

    Deriv               =              1
    GGA                 =           TRUE
    Meta                =          FALSE

    Exchange Hybrid     =           TRUE
    MP2 Hybrid          =          FALSE

   => Exchange Functionals <=

    0.0800   Slater exchange
    0.7200         Becke 88

   => Exact (HF) Exchange <=

    0.2000               HF 

   => Correlation Functionals <=

    0.1900   Vosko, Wilk & Nusair (VWN5_RPA)
    0.8100   Lee, Yang & Parr

   => Molecular Quadrature <=

    Radial Scheme       =       TREUTLER
    Pruning Scheme      =           FLAT
    Nuclear Scheme      =       TREUTLER

    BS radius alpha     =              1
    Pruning alpha       =              1
    Radial Points       =             75
    Spherical Points    =            302
    Total Points        =         396687
    Total Blocks        =           2975
    Max Points          =            256
    Max Functions       =            149

   => -D3ZERO: Empirical Dispersion <=

    Grimme's -D3 (zero-damping) Dispersion Correction
    Grimme S.; Antony J.; Ehrlich S.; Krieg H. (2010), J. Chem. Phys., 132: 154104

        S6 =   1.000000E+00
        S8 =   1.703000E+00
       SR6 =   1.261000E+00
       SR8 =   1.000000E+00
    ALPHA6 =   1.400000E+01

   => Loading Basis Set <=

    Name: (6-31G* AUX)
    Role: JKFIT
    Keyword: DF_BASIS_SCF
    atoms 1-7         entry C          line   121 file /shared/joao/test_parameterize/miniconda3/share/psi4/basis/cc-pvdz-jkfit.gbs 
    atoms 8-12, 15-18 entry H          line    51 file /shared/joao/test_parameterize/miniconda3/share/psi4/basis/cc-pvdz-jkfit.gbs 
    atoms 13-14       entry N          line   171 file /shared/joao/test_parameterize/miniconda3/share/psi4/basis/cc-pvdz-jkfit.gbs 

  Reading orbitals from file 180, no projection.

  ==> Pre-Iterations <==

   -------------------------------------------------------
    Irrep   Nso     Nmo     Nalpha   Nbeta   Ndocc  Nsocc
   -------------------------------------------------------
     A        153     153       0       0       0       0
   -------------------------------------------------------
    Total     153     153      32      32      32       0
   -------------------------------------------------------

  ==> Integral Setup <==

  ==> DiskDFJK: Density-Fitted J/K Matrices <==

    J tasked:                  Yes
    K tasked:                  Yes
    wK tasked:                  No
    OpenMP threads:              4
    Integrals threads:           4
    Memory (MB):              2002
    Algorithm:                Core
    Integral Cache:           NONE
    Schwarz Cutoff:          1E-12
    Fitting Condition:       1E-12

   => Auxiliary Basis Set <=

  Basis Set: (6-31G* AUX)
    Blend: CC-PVDZ-JKFIT
    Number of shells: 297
    Number of basis function: 954
    Number of Cartesian functions: 954
    Spherical Harmonics?: false
    Max angular momentum: 3

  Minimum eigenvalue in the overlap matrix is 4.8383508032E-04.
  Using Symmetric Orthogonalization.

  SCF Guess: Orbitals guess was supplied from a previous computation.

  ==> Iterations <==

                           Total Energy        Delta E     RMS |[F,P]|

   @DF-RKS iter   0:  -381.43920728013245   -3.81439e+02   1.41281e-03 
   @DF-RKS iter   1:  -381.46695322614164   -2.77459e-02   1.51239e-04 
   @DF-RKS iter   2:  -381.46682716123064    1.26065e-04   3.10446e-04 DIIS
   @DF-RKS iter   3:  -381.46713923005922   -3.12069e-04   4.69391e-05 DIIS
   @DF-RKS iter   4:  -381.46715152081401   -1.22908e-05   1.67874e-05 DIIS
   @DF-RKS iter   5:  -381.46715304434639   -1.52353e-06   5.49202e-06 DIIS
   @DF-RKS iter   6:  -381.46715319985674   -1.55510e-07   2.89730e-06 DIIS
   @DF-RKS iter   7:  -381.46715322249105   -2.26343e-08   6.41062e-07 DIIS
   @DF-RKS iter   8:  -381.46715322356908   -1.07804e-09   1.74528e-07 DIIS
   @DF-RKS iter   9:  -381.46715322374899   -1.79909e-10   6.89327e-08 DIIS
   @DF-RKS iter  10:  -381.46715322376076   -1.17666e-11   3.05771e-08 DIIS
   @DF-RKS iter  11:  -381.46715322376406   -3.29692e-12   4.96324e-09 DIIS

  ==> Post-Iterations <==

    Orbital Energies [Eh]
    ---------------------

    Doubly Occupied:                                                      

       1A    -14.565801     2A    -14.565500     3A    -10.499112  
       4A    -10.378885     5A    -10.360053     6A    -10.359964  
       7A    -10.345510     8A    -10.342092     9A    -10.342008  
      10A     -1.182777    11A     -1.087584    12A     -1.015682  
      13A     -0.927150    14A     -0.904590    15A     -0.847289  
      16A     -0.785891    17A     -0.774352    18A     -0.737700  
      19A     -0.736138    20A     -0.685821    21A     -0.669579  
      22A     -0.629759    23A     -0.610895    24A     -0.596967  
      25A     -0.581853    26A     -0.575785    27A     -0.518080  
      28A     -0.508693    29A     -0.499954    30A     -0.470327  
      31A     -0.413164    32A     -0.407271  

    Virtual:                                                              

      33A     -0.224147    34A     -0.156386    35A     -0.118160  
      36A     -0.112601    37A     -0.073294    38A     -0.068966  
      39A     -0.038221    40A     -0.033175    41A      0.010981  
      42A      0.022261    43A      0.026343    44A      0.063993  
      45A      0.069087    46A      0.078882    47A      0.117068  
      48A      0.127637    49A      0.155615    50A      0.183340  
      51A      0.210855    52A      0.245104    53A      0.300455  
      54A      0.349716    55A      0.351773    56A      0.375396  
      57A      0.390214    58A      0.396662    59A      0.417477  
      60A      0.420385    61A      0.438688    62A      0.453964  
      63A      0.454688    64A      0.470135    65A      0.472623  
      66A      0.473893    67A      0.482763    68A      0.504288  
      69A      0.511853    70A      0.536540    71A      0.556556  
      72A      0.593786    73A      0.620498    74A      0.651897  
      75A      0.665639    76A      0.688694    77A      0.692486  
      78A      0.703520    79A      0.714773    80A      0.734714  
      81A      0.764708    82A      0.775112    83A      0.789477  
      84A      0.804176    85A      0.834817    86A      0.839793  
      87A      0.867866    88A      0.926723    89A      0.955343  
      90A      1.000736    91A      1.026438    92A      1.056872  
      93A      1.068178    94A      1.103388    95A      1.131123  
      96A      1.160067    97A      1.176697    98A      1.266273  
      99A      1.285065   100A      1.309209   101A      1.322776  
     102A      1.347037   103A      1.356893   104A      1.380372  
     105A      1.432600   106A      1.452192   107A      1.494288  
     108A      1.603184   109A      1.629546   110A      1.645205  
     111A      1.656614   112A      1.738928   113A      1.746948  
     114A      1.800945   115A      1.816758   116A      1.843097  
     117A      1.894455   118A      1.915476   119A      1.947864  
     120A      1.973718   121A      1.987418   122A      2.021497  
     123A      2.023451   124A      2.063553   125A      2.108398  
     126A      2.129353   127A      2.153512   128A      2.200614  
     129A      2.260904   130A      2.266070   131A      2.309978  
     132A      2.356151   133A      2.440945   134A      2.474333  
     135A      2.491170   136A      2.497370   137A      2.523740  
     138A      2.592812   139A      2.607952   140A      2.645217  
     141A      2.737165   142A      2.882374   143A      2.995123  
     144A      3.254231   145A      3.637408   146A      3.669957  
     147A      3.894085   148A      3.945151   149A      3.961104  
     150A      4.041039   151A      4.169999   152A      4.257298  
     153A      4.544036  

    Final Occupation by Irrep:
              A 
    DOCC [    32 ]

  Energy converged.

  @DF-RKS Final Energy:  -381.46715322376406

   => Energetics <=

    Nuclear Repulsion Energy =            415.6617431028856231
    One-Electron Energy =               -1326.4633780388087416
    Two-Electron Energy =                 573.7440466820061147
    DFT Exchange-Correlation Energy =     -44.3979594198469698
    Empirical Dispersion Energy =          -0.0116055500000000
    VV10 Nonlocal Energy =                  0.0000000000000000
    Total Energy =                       -381.4671532237640577



Properties will be evaluated at   0.000000,   0.000000,   0.000000 [a0]

Properties computed using the SCF density matrix

  Nuclear Dipole Moment: [e a0]
     X:    -0.1080      Y:    -0.1305      Z:     0.3926

  Electronic Dipole Moment: [e a0]
     X:     0.1187      Y:     0.1335      Z:    -2.5829

  Dipole Moment: [e a0]
     X:     0.0106      Y:     0.0030      Z:    -2.1903     Total:     2.1904

  Dipole Moment: [D]
     X:     0.0270      Y:     0.0077      Z:    -5.5673     Total:     5.5674


*** tstop() called on rosa.prib.upf.edu at Sat Sep 29 20:48:06 2018
Module time:
	user time   =      85.40 seconds =       1.42 minutes
	system time =       0.98 seconds =       0.02 minutes
	total time  =         28 seconds =       0.47 minutes
Total time:
	user time   =     222.19 seconds =       3.70 minutes
	system time =       3.55 seconds =       0.06 minutes
	total time  =         75 seconds =       1.25 minutes

*** tstart() called on rosa.prib.upf.edu
*** at Sat Sep 29 20:48:06 2018


         ------------------------------------------------------------
                                   SCF GRAD                          
                          Rob Parrish, Justin Turney,                
                       Andy Simmonett, and Alex Sokolov              
         ------------------------------------------------------------

  ==> Geometry <==

    Molecular point group: c1
    Full point group: C1

    Geometry (in Angstrom), charge = 1, multiplicity = 1:

       Center              X                  Y                   Z               Mass       
    ------------   -----------------  -----------------  -----------------  -----------------
         C           -0.029256566471    -0.003109855265    -0.171137311266    12.000000000000
         C           -0.008762214148     1.211935050944     0.546935258283    12.000000000000
         C           -0.000872687332     1.210794579258     1.936827379931    12.000000000000
         C           -0.004060156104     0.001878344042     2.636029465744    12.000000000000
         C           -0.000727295003    -1.210063087338     1.941815304455    12.000000000000
         C            0.000980438251    -1.216776553282     0.551972559374    12.000000000000
         C            0.024521672050    -0.007755070921    -1.650752533879    12.000000000000
         H           -0.057480936622     2.170327506297     0.039996575800     1.007825032070
         H           -0.003115046321     2.152603120421     2.475862979812     1.007825032070
         H            0.000837842548     0.003982313889     3.721564880369     1.007825032070
         H            0.021227609958    -2.149935934722     2.484587286698     1.007825032070
         H            0.074052122833    -2.176703522622     0.048586028025     1.007825032070
         N            0.289983540309     1.101515145516    -2.339291408566    14.003074004780
         N           -0.284363136467    -1.102108374376    -2.349327778273    14.003074004780
         H           -0.220808904073    -1.133764510240    -3.360185261681     1.007825032070
         H           -0.694777026519    -1.911639186719    -1.900275906621     1.007825032070
         H            0.665186557647     1.920774386086    -1.882329815319     1.007825032070
         H            0.227434185463     1.138045649031    -3.349876702886     1.007825032070

  Nuclear repulsion =  415.661743102885623

  ==> Basis Set <==

  Basis Set: 6-31G*
    Blend: 6-31G*
    Number of shells: 72
    Number of basis function: 153
    Number of Cartesian functions: 153
    Spherical Harmonics?: false
    Max angular momentum: 2

  ==> DFJKGrad: Density-Fitted SCF Gradients <==

    Gradient:                    1
    J tasked:                  Yes
    K tasked:                  Yes
    wK tasked:                  No
    OpenMP threads:              4
    Integrals threads:           4
    Memory (MB):              2002
    Schwarz Cutoff:          0E+00
    Fitting Condition:       1E-12

   => Auxiliary Basis Set <=

  Basis Set: (6-31G* AUX)
    Blend: CC-PVDZ-JKFIT
    Number of shells: 297
    Number of basis function: 954
    Number of Cartesian functions: 954
    Spherical Harmonics?: false
    Max angular momentum: 3

  ==> DFT Potential <==

   => Composite Functional: B3LYP-D3ZERO <= 

    B3LYP-d3zero Hyb-GGA Exchange-Correlation Functional

    P. J. Stephens, F. J. Devlin, C. F. Chabalowski, and M. J. Frisch, J. Phys. Chem. 98, 11623 (1994)

    Deriv               =              1
    GGA                 =           TRUE
    Meta                =          FALSE

    Exchange Hybrid     =           TRUE
    MP2 Hybrid          =          FALSE

   => Exchange Functionals <=

    0.0800   Slater exchange
    0.7200         Becke 88

   => Exact (HF) Exchange <=

    0.2000               HF 

   => Correlation Functionals <=

    0.1900   Vosko, Wilk & Nusair (VWN5_RPA)
    0.8100   Lee, Yang & Parr

   => Molecular Quadrature <=

    Radial Scheme       =       TREUTLER
    Pruning Scheme      =           FLAT
    Nuclear Scheme      =       TREUTLER

    BS radius alpha     =              1
    Pruning alpha       =              1
    Radial Points       =             75
    Spherical Points    =            302
    Total Points        =         396687
    Total Blocks        =           2975
    Max Points          =            256
    Max Functions       =            149


  -Total Gradient:
     Atom            X                  Y                   Z
    ------   -----------------  -----------------  -----------------
       1       -0.009555317834     0.001564365054     0.003045869305
       2        0.003849447740     0.000063269449     0.002054588315
       3        0.000496467476     0.000078094270     0.000215190046
       4       -0.000281506461     0.000194038377    -0.000973259233
       5       -0.000084316928     0.000016011359    -0.000020604382
       6       -0.000301890218    -0.000246060663     0.002925212419
       7        0.012548784687    -0.000746967663    -0.001645230984
       8        0.000140892536    -0.000088930904     0.001111000273
       9       -0.000048616857    -0.000073087069     0.000359093175
      10        0.000055259356    -0.000020768205    -0.000081185898
      11        0.000082666535    -0.000188235227     0.000441524026
      12        0.000411272577    -0.000644763114     0.001216397502
      13       -0.005176173952    -0.001492585425    -0.003107437456
      14        0.000300318066     0.002891565671    -0.004359817001
      15       -0.000240692617    -0.000009111391    -0.000788365283
      16       -0.001269145510    -0.001618206553     0.000234927626
      17       -0.000598228342     0.000249180269    -0.000021501197
      18       -0.000329631381     0.000072216866    -0.000616084224


*** tstop() called on rosa.prib.upf.edu at Sat Sep 29 20:48:15 2018
Module time:
	user time   =      26.89 seconds =       0.45 minutes
	system time =       0.42 seconds =       0.01 minutes
	total time  =          9 seconds =       0.15 minutes
Total time:
	user time   =     249.15 seconds =       4.15 minutes
	system time =       3.98 seconds =       0.07 minutes
	total time  =         84 seconds =       1.40 minutes

			-----------------------------------------
			 OPTKING 2.0: for geometry optimizations 
			  - R.A. King,  Bethel University        
			-----------------------------------------
	At level 1: Red. Int., RFO, no backsteps, dynamic trust

	Previous internal coordinate definitions found.
	---Fragment 1 Geometry and Gradient---
	 C          -0.0552868982       -0.0058767748       -0.3234026494
	 C          -0.0165581851        2.2902253371        1.0335578506
	 C          -0.0016491401        2.2880701580        3.6600733147
	 C          -0.0076725831        0.0035495558        4.9813737685
	 C          -0.0013743884       -2.2866878386        3.6694991261
	 C           0.0018527598       -2.2993744506        1.0430769701
	 C           0.0463392445       -0.0146549602       -3.1194702022
	 H          -0.1086232281        4.1013246056        0.0755825745
	 H          -0.0058865844        4.0678303704        4.6787029744
	 H           0.0015832930        0.0075254826        7.0327384097
	 H           0.0401143693       -4.0627901199        4.6951895251
	 H           0.1399382317       -4.1133735302        0.0918142869
	 N           0.5479894742        2.0815619563       -4.4206201072
	 N          -0.5373684502       -2.0826829963       -4.4395860973
	 H          -0.4172683564       -2.1425044235       -6.3498299003
	 H          -1.3129383035       -3.6124745278       -3.5910010404
	 H           1.2570204212        3.6297375528       -3.5570878427
	 H           0.4297883238        2.1505946034       -6.3303495474
	            -0.0095553178        0.0015643651        0.0030458693
	             0.0038494477        0.0000632694        0.0020545883
	             0.0004964675        0.0000780943        0.0002151900
	            -0.0002815065        0.0001940384       -0.0009732592
	            -0.0000843169        0.0000160114       -0.0000206044
	            -0.0003018902       -0.0002460607        0.0029252124
	             0.0125487847       -0.0007469677       -0.0016452310
	             0.0001408925       -0.0000889309        0.0011110003
	            -0.0000486169       -0.0000730871        0.0003590932
	             0.0000552594       -0.0000207682       -0.0000811859
	             0.0000826665       -0.0001882352        0.0004415240
	             0.0004112726       -0.0006447631        0.0012163975
	            -0.0051761740       -0.0014925854       -0.0031074375
	             0.0003003181        0.0028915657       -0.0043598170
	            -0.0002406926       -0.0000091114       -0.0007883653
	            -0.0012691455       -0.0016182066        0.0002349276
	            -0.0005982283        0.0002491803       -0.0000215012
	            -0.0003296314        0.0000722169       -0.0006160842

	---Fragment 1 Intrafragment Coordinates---
	 - Coordinate -           - BOHR/RAD -       - ANG/DEG -
	 R(1,2)           =         2.667382	       1.411518
	 R(1,6)           =         2.670330	       1.413078
	 R(1,7)           =         2.797928	       1.480600
	 R(2,3)           =         2.626559	       1.389915
	 R(2,8)           =         2.050920	       1.085300
	 R(3,4)           =         2.639111	       1.396557
	 R(3,9)           =         2.050651	       1.085158
	 R(4,5)           =         2.639364	       1.396691
	 R(4,10)          =         2.051389	       1.085549
	 R(5,6)           =         2.626455	       1.389860
	 R(5,11)          =         2.051414	       1.085562
	 R(6,12)          =         2.052940	       1.086369
	 R(7,13)          =         2.517691	       1.332305
	 R(7,14)          =         2.521936	       1.334551
	 R(13,17)         =         1.909257	       1.010335
	 R(13,18)         =         1.914629	       1.013178
	 R(14,15)         =         1.914950	       1.013348
	 R(14,16)         =         1.913601	       1.012634
	 B(1,2,3)         =         2.103764	     120.536786
	 B(1,2,8)         =         2.119845	     121.458180
	 B(1,6,5)         =         2.103130	     120.500476
	 B(1,6,12)        =         2.121444	     121.549790
	 B(1,7,13)        =         2.118917	     121.405007
	 B(1,7,14)        =         2.114456	     121.149395
	 B(2,1,6)         =         2.069962	     118.600103
	 B(2,1,7)         =         2.106631	     120.701062
	 B(2,3,4)         =         2.095955	     120.089378
	 B(2,3,9)         =         2.089785	     119.735889
	 B(3,2,8)         =         2.057899	     117.908900
	 B(3,4,5)         =         2.097031	     120.151031
	 B(3,4,10)        =         2.093203	     119.931691
	 B(4,3,9)         =         2.097387	     120.171413
	 B(4,5,6)         =         2.095816	     120.081416
	 B(4,5,11)        =         2.097632	     120.185479
	 B(5,4,10)        =         2.092903	     119.914492
	 B(5,6,12)        =         2.057496	     117.885824
	 B(6,1,7)         =         2.103559	     120.525035
	 B(6,5,11)        =         2.089528	     119.721110
	 B(7,13,17)       =         2.112253	     121.023175
	 B(7,13,18)       =         2.133174	     122.221854
	 B(7,14,15)       =         2.133255	     122.226495
	 B(7,14,16)       =         2.114404	     121.146442
	 B(13,7,14)       =         2.046918	     117.279780
	 B(15,14,16)      =         2.029521	     116.282978
	 B(17,13,18)      =         2.031769	     116.411810
	 D(1,2,3,4)       =         0.007583	       0.434452
	 D(1,2,3,9)       =        -3.122461	    -178.903825
	 D(1,6,5,4)       =        -0.023515	      -1.347314
	 D(1,6,5,11)      =         3.140023	     179.910090
	 D(1,7,13,17)     =         0.244865	      14.029745
	 D(1,7,13,18)     =        -3.018359	    -172.939212
	 D(1,7,14,15)     =        -3.101974	    -177.730017
	 D(1,7,14,16)     =         0.161564	       9.256954
	 D(2,1,6,5)       =         0.042248	       2.420651
	 D(2,1,6,12)      =        -3.047525	    -174.610326
	*D(2,1,7,13)      =         0.174532	       9.999974
	 D(2,1,7,14)      =        -2.883145	    -165.192069
	 D(2,3,4,5)       =         0.011968	       0.685733
	 D(2,3,4,10)      =        -3.140230	    -179.921947
	 D(3,2,1,6)       =        -0.034272	      -1.963644
	 D(3,2,1,7)       =        -3.092676	    -177.197309
	 D(3,4,5,6)       =        -0.003988	      -0.228489
	 D(3,4,5,11)      =         3.115556	     178.508220
	 D(4,3,2,8)       =         3.087855	     176.921087
	 D(4,5,6,12)      =         3.068118	     175.790221
	 D(5,4,3,9)       =        -3.141224	    -179.978896
	 D(5,6,1,7)       =         3.100804	     177.662994
	 D(6,1,2,8)       =        -3.112337	    -178.323784
	 D(6,1,7,13)      =        -2.882267	    -165.141762
	 D(6,1,7,14)      =         0.343240	      19.666196
	 D(6,5,4,10)      =        -3.134976	    -179.620915
	 D(7,1,2,8)       =         0.112444	       6.442551
	 D(7,1,6,12)      =         0.011031	       0.632016
	 D(8,2,3,9)       =        -0.042188	      -2.417190
	 D(9,3,4,10)      =        -0.010238	      -0.586575
	 D(10,4,5,11)     =        -0.015432	      -0.884206
	 D(11,5,6,12)     =        -0.051529	      -2.952375
	 D(13,7,14,15)    =         0.120196	       6.886701
	 D(13,7,14,16)    =        -2.899451	    -166.126328
	 D(14,7,13,17)    =        -2.977523	    -170.599528
	 D(14,7,13,18)    =         0.042438	       2.431515

	Current energy   :      -381.4671532238

	Energy change for the previous step:
		Projected    :        -0.0067455741
		Actual       :        -0.0010110710
	Energy ratio indicates iffy step: Trust radius decreased to 1.250e-01.


	Performing BFGS update.
	Previous computed or guess Hessian on step 1.
	Steps to be used in Hessian update: 1
	Taking RFO optimization step.
	Going to follow RFO solution 1.
	Using RFO vector 1.
	Norm of target step-size    0.07879
	Projected energy change by RFO approximation:        -0.0011777158

	Back-transformation to cartesian coordinates...
	Could not converge backtransformation.
	Using first guess instead.

	Back-transformation to cartesian coordinates to adjust frozen coordinates...
	Successfully converged to displaced geometry.

	--- Internal Coordinate Step in ANG or DEG, aJ/ANG or AJ/DEG ---
	 ---------------------------------------------------------------------------
	   Coordinate                Previous        Force       Change         New 
	   ----------                --------       ------       ------       ------
	    1 R(1,2)          =      1.411518    -0.021761    -0.002105     1.409413
	    2 R(1,6)          =      1.413078    -0.031509    -0.003523     1.409555
	    3 R(1,7)          =      1.480600    -0.086384    -0.010374     1.470225
	    4 R(2,3)          =      1.389915    -0.000155    -0.000046     1.389869
	    5 R(2,8)          =      1.085300     0.004977     0.000328     1.085629
	    6 R(3,4)          =      1.396557     0.010394     0.000969     1.397526
	    7 R(3,9)          =      1.085158    -0.000950    -0.000122     1.085036
	    8 R(4,5)          =      1.396691     0.008917     0.000779     1.397470
	    9 R(4,10)         =      1.085549     0.000663     0.000103     1.085651
	   10 R(5,6)          =      1.389860     0.000660     0.000016     1.389876
	   11 R(5,11)         =      1.085562    -0.003178    -0.000519     1.085043
	   12 R(6,12)         =      1.086369    -0.000276    -0.000523     1.085846
	   13 R(7,13)         =      1.332305     0.002115     0.000122     1.332427
	   14 R(7,14)         =      1.334551    -0.014947    -0.001512     1.333039
	   15 R(13,17)        =      1.010335     0.000244    -0.000364     1.009971
	   16 R(13,18)        =      1.013178    -0.005247    -0.000536     1.012642
	   17 R(14,15)        =      1.013348    -0.006353    -0.000709     1.012639
	   18 R(14,16)        =      1.012634    -0.015756    -0.002434     1.010200
	   19 B(1,2,3)        =    120.536786    -0.000106    -0.213268   120.323518
	   20 B(1,2,8)        =    121.458180    -0.000021    -0.075839   121.382342
	   21 B(1,6,5)        =    120.500476    -0.000086    -0.163496   120.336980
	   22 B(1,6,12)       =    121.549790    -0.000064    -0.209016   121.340774
	   23 B(1,7,13)       =    121.405007    -0.000235    -0.409750   120.995257
	   24 B(1,7,14)       =    121.149395    -0.000366    -0.625723   120.523672
	   25 B(2,1,6)        =    118.600103     0.000262     0.404704   119.004807
	   26 B(2,1,7)        =    120.701062    -0.000049    -0.083142   120.617920
	   27 B(2,3,4)        =    120.089378    -0.000021    -0.001346   120.088032
	   28 B(2,3,9)        =    119.735889    -0.000017    -0.082013   119.653875
	   29 B(3,2,8)        =    117.908900     0.000126     0.270309   118.179208
	   30 B(3,4,5)        =    120.151031    -0.000028    -0.023547   120.127484
	   31 B(3,4,10)       =    119.931691     0.000013     0.004632   119.936323
	   32 B(4,3,9)        =    120.171413     0.000038     0.085314   120.256727
	   33 B(4,5,6)        =    120.081416    -0.000021    -0.015076   120.066340
	   34 B(4,5,11)       =    120.185479     0.000033     0.075028   120.260507
	   35 B(5,4,10)       =    119.914492     0.000016     0.020074   119.934566
	   36 B(5,6,12)       =    117.885824     0.000151     0.385763   118.271588
	   37 B(6,1,7)        =    120.525035    -0.000214    -0.386622   120.138413
	   38 B(6,5,11)       =    119.721110    -0.000012    -0.057682   119.663427
	   39 B(7,13,17)      =    121.023175    -0.000016    -0.054500   120.968675
	   40 B(7,13,18)      =    122.221854     0.000008    -0.062023   122.159831
	   41 B(7,14,15)      =    122.226495     0.000023     0.066118   122.292612
	   42 B(7,14,16)      =    121.146442    -0.000053    -0.124325   121.022118
	   43 B(13,7,14)      =    117.279780     0.000605     1.132995   118.412775
	   44 B(15,14,16)     =    116.282978     0.000034     0.141237   116.424214
	   45 B(17,13,18)     =    116.411810     0.000003    -0.063797   116.348013
	   46 D(1,2,3,4)      =      0.434452     0.000003     0.368456     0.802907
	   47 D(1,2,3,9)      =   -178.903825     0.000001     0.130764  -178.773061
	   48 D(1,6,5,4)      =     -1.347314     0.000001    -0.126892    -1.474206
	   49 D(1,6,5,11)     =    179.910090    -0.000001    -0.252905   179.657184
	   50 D(1,7,13,17)    =     14.029745     0.000004     0.251717    14.281462
	   51 D(1,7,13,18)    =   -172.939212    -0.000009    -1.383068  -174.322280
	   52 D(1,7,14,15)    =   -177.730017     0.000009     1.078713  -176.651304
	   53 D(1,7,14,16)    =      9.256954    -0.000001     0.172290     9.429245
	   54 D(2,1,6,5)      =      2.420651     0.000002     0.323249     2.743901
	   55 D(2,1,6,12)     =   -174.610326    -0.000002    -0.012304  -174.622630
	   56 *D(2,1,7,13)    =      9.999974     0.000000    -0.000000     9.999974
	   57 D(2,1,7,14)     =   -165.192069    -0.000020    -1.754919  -166.946987
	   58 D(2,3,4,5)      =      0.685733    -0.000002    -0.180449     0.505284
	   59 D(2,3,4,10)     =   -179.921947    -0.000001    -0.037027  -179.958973
	   60 D(3,2,1,6)      =     -1.963644    -0.000004    -0.443699    -2.407342
	   61 D(3,2,1,7)      =   -177.197309     0.000003     0.396879  -176.800430
	   62 D(3,4,5,6)      =     -0.228489     0.000000     0.059483    -0.169006
	   63 D(3,4,5,11)     =    178.508220     0.000002     0.184566   178.692786
	   64 D(4,3,2,8)      =    176.921087     0.000000     0.038181   176.959267
	   65 D(4,5,6,12)     =    175.790221     0.000003     0.181766   175.971987
	   66 D(5,4,3,9)      =   -179.978896    -0.000000     0.057569  -179.921327
	   67 D(5,6,1,7)      =    177.662994    -0.000003    -0.498479   177.164515
	   68 D(6,1,2,8)      =   -178.323784    -0.000002    -0.114723  -178.438507
	   69 D(6,1,7,13)     =   -165.141762     0.000002     0.812158  -164.329604
	   70 D(6,1,7,14)     =     19.666196    -0.000019    -0.942761    18.723435
	   71 D(6,5,4,10)     =   -179.620915    -0.000001    -0.083842  -179.704757
	   72 D(7,1,2,8)      =      6.442551     0.000005     0.725855     7.168406
	   73 D(7,1,6,12)     =      0.632016    -0.000007    -0.834032    -0.202016
	   74 D(8,2,3,9)      =     -2.417190    -0.000002    -0.199511    -2.616701
	   75 D(9,3,4,10)     =     -0.586575     0.000001     0.200991    -0.385584
	   76 D(10,4,5,11)    =     -0.884206     0.000000     0.041241    -0.842965
	   77 D(11,5,6,12)    =     -2.952375     0.000001     0.055752    -2.896623
	   78 D(13,7,14,15)   =      6.886701    -0.000002    -0.562556     6.324145
	   79 D(13,7,14,16)   =   -166.126328    -0.000013    -1.468979  -167.595307
	   80 D(14,7,13,17)   =   -170.599528     0.000014     1.890917  -168.708611
	   81 D(14,7,13,18)   =      2.431515     0.000001     0.256132     2.687647
	 ---------------------------------------------------------------------------
	Successfully symmetrized geometry.

  ==> Convergence Check <==

  Measures of convergence in internal coordinates in au.
  Criteria marked as inactive (o), active & met (*), and active & unmet ( ).
  ---------------------------------------------------------------------------------------------
   Step     Total Energy     Delta E     MAX Force     RMS Force      MAX Disp      RMS Disp   
  ---------------------------------------------------------------------------------------------
    Convergence Criteria    1.00e-06 *    3.00e-04 *             o    1.20e-03 *             o
  ---------------------------------------------------------------------------------------------
      2    -381.46715322   -1.01e-03      1.05e-02      1.85e-03 o    3.30e-02      8.77e-03 o  ~
  ---------------------------------------------------------------------------------------------

	Writing optimization data to binary file.
	Structure for next step:
	Cartesian Geometry (in Angstrom)
	    C    -0.0468147845   0.0023610504  -0.1758088358
	    C    -0.0145783644   1.2163087365   0.5395482172
	    C     0.0016977751   1.2116209723   1.9293143476
	    C     0.0030864878   0.0000659258   2.6258850994
	    C    -0.0012204063  -1.2104677359   1.9276634476
	    C    -0.0104477750  -1.2126515902   0.5378200592
	    C     0.0064204578  -0.0026192541  -1.6450614628
	    H    -0.0659537500   2.1739085839   0.0306744841
	    H     0.0063214661   2.1527325051   2.4693061455
	    H     0.0151426136  -0.0007175524   3.7114691962
	    H     0.0212269577  -2.1522794518   2.4659990353
	    H     0.0535812035  -2.1673957840   0.0245706411
	    N     0.2832405227   1.1090721123  -2.3254099157
	    N    -0.2816449382  -1.1098294139  -2.3292366344
	    H    -0.2056728346  -1.1576600360  -3.3378885735
	    H    -0.6752350209  -1.9185079577  -1.8692042629
	    H     0.6687284543   1.9195054031  -1.8621181772
	    H     0.2421219354   1.1465534867  -3.3365218111
			--------------------------
			 OPTKING Finished Execution 
			--------------------------

    Structure for next step:
    Molecular point group: c1
    Full point group: C1

    Geometry (in Angstrom), charge = 1, multiplicity = 1:

    C           -0.046814784544     0.002361050357    -0.175808835823
    C           -0.014578364392     1.216308736485     0.539548217241
    C            0.001697775086     1.211620972344     1.929314347620
    C            0.003086487790     0.000065925768     2.625885099412
    C           -0.001220406304    -1.210467735937     1.927663447642
    C           -0.010447775027    -1.212651590181     0.537820059180
    C            0.006420457764    -0.002619254115    -1.645061462759
    H           -0.065953750002     2.173908583865     0.030674484075
    H            0.006321466103     2.152732505144     2.469306145468
    H            0.015142613585    -0.000717552412     3.711469196239
    H            0.021226957742    -2.152279451751     2.465999035272
    H            0.053581203527    -2.167395783989     0.024570641114
    N            0.283240522692     1.109072112269    -2.325409915655
    N           -0.281644938185    -1.109829413923    -2.329236634373
    H           -0.205672834580    -1.157660035998    -3.337888573465
    H           -0.675235020941    -1.918507957716    -1.869204262891
    H            0.668728454330     1.919505403053    -1.862118177244
    H            0.242121935355     1.146553486738    -3.336521811053

gradient() will perform analytic gradient computation.

*** tstart() called on rosa.prib.upf.edu
*** at Sat Sep 29 20:48:15 2018

   => Loading Basis Set <=

    Name: 6-31G*
    Role: ORBITAL
    Keyword: BASIS
    atoms 1-7         entry C          line   111 file /shared/joao/test_parameterize/miniconda3/share/psi4/basis/6-31gs.gbs 
    atoms 8-12, 15-18 entry H          line    44 file /shared/joao/test_parameterize/miniconda3/share/psi4/basis/6-31gs.gbs 
    atoms 13-14       entry N          line   128 file /shared/joao/test_parameterize/miniconda3/share/psi4/basis/6-31gs.gbs 


         ---------------------------------------------------------
                                   SCF
            by Justin Turney, Rob Parrish, Andy Simmonett
                             and Daniel Smith
                              RKS Reference
                        4 Threads,   2861 MiB Core
         ---------------------------------------------------------

  ==> Geometry <==

    Molecular point group: c1
    Full point group: C1

    Geometry (in Angstrom), charge = 1, multiplicity = 1:

[...]
	            -0.0000035786       -0.0000012438       -0.0000034626
	            -0.0000150247       -0.0000045708       -0.0000058327
	            -0.0050175664        0.0011139708       -0.0002016444
	            -0.0000228604        0.0000091094       -0.0000001953
	             0.0000053438        0.0000008131        0.0000037726
	             0.0000077167       -0.0000064188        0.0000092343
	            -0.0000017051       -0.0000066122       -0.0000073540
	             0.0000047185        0.0000020274        0.0000017404

	---Fragment 1 Intrafragment Coordinates---
	 - Coordinate -           - BOHR/RAD -       - ANG/DEG -
	 R(1,2)           =         2.663681	       1.409559
	 R(1,6)           =         2.663967	       1.409711
	 R(1,7)           =         2.774368	       1.468132
	 R(2,3)           =         2.626407	       1.389835
	 R(2,8)           =         2.051978	       1.085860
	 R(3,4)           =         2.641618	       1.397884
	 R(3,9)           =         2.050402	       1.085026
	 R(4,5)           =         2.640999	       1.397557
	 R(4,10)          =         2.051493	       1.085604
	 R(5,6)           =         2.626870	       1.390080
	 R(5,11)          =         2.050411	       1.085031
	 R(6,12)          =         2.051989	       1.085866
	 R(7,13)          =         2.519130	       1.333066
	 R(7,14)          =         2.517810	       1.332367
	 R(13,17)         =         1.909152	       1.010279
	 R(13,18)         =         1.913751	       1.012714
	 R(14,15)         =         1.913466	       1.012563
	 R(14,16)         =         1.908979	       1.010188
	 B(1,2,3)         =         2.099602	     120.298341
	 B(1,2,8)         =         2.115046	     121.183224
	 B(1,6,5)         =         2.100059	     120.324505
	 B(1,6,12)        =         2.116476	     121.265162
	 B(1,7,13)        =         2.108954	     120.834148
	 B(1,7,14)        =         2.104613	     120.585424
	 B(2,1,6)         =         2.077715	     119.044328
	 B(2,1,7)         =         2.104632	     120.586510
	 B(2,3,4)         =         2.096082	     120.096630
	 B(2,3,9)         =         2.088088	     119.638612
	 B(3,2,8)         =         2.066240	     118.386808
	 B(3,4,5)         =         2.096794	     120.137453
	 B(3,4,10)        =         2.093114	     119.926622
	 B(4,3,9)         =         2.098987	     120.263098
	 B(4,5,6)         =         2.095419	     120.058682
	 B(4,5,11)        =         2.099128	     120.271169
	 B(5,4,10)        =         2.093258	     119.934875
	 B(5,6,12)        =         2.065661	     118.353677
	 B(6,1,7)         =         2.096988	     120.148568
	 B(6,5,11)        =         2.088468	     119.660418
	 B(7,13,17)       =         2.106212	     120.677062
	 B(7,13,18)       =         2.130783	     122.084857
	 B(7,14,15)       =         2.135245	     122.340530
	 B(7,14,16)       =         2.109805	     120.882923
	 B(13,7,14)       =         2.067814	     118.476992
	 B(15,14,16)      =         2.033058	     116.485637
	 B(17,13,18)      =         2.029226	     116.266060
	 D(1,2,3,4)       =         0.013253	       0.759316
	 D(1,2,3,9)       =        -3.120182	    -178.773270
	 D(1,6,5,4)       =        -0.022698	      -1.300497
	 D(1,6,5,11)      =         3.138645	     179.831099
	 D(1,7,13,17)     =         0.285838	      16.377284
	 D(1,7,13,18)     =        -3.060018	    -175.326090
	 D(1,7,14,15)     =        -3.082486	    -176.613417
	 D(1,7,14,16)     =         0.171053	       9.800632
	 D(2,1,6,5)       =         0.041721	       2.390463
	 D(2,1,6,12)      =        -3.051305	    -174.826883
	*D(2,1,7,13)      =         0.174532	       9.999974
	 D(2,1,7,14)      =        -2.901540	    -166.245971
	 D(2,3,4,5)       =         0.006335	       0.362951
	 D(2,3,4,10)      =         3.141420	     179.990121
	 D(3,2,1,6)       =        -0.036982	      -2.118890
	 D(3,2,1,7)       =        -3.084532	    -176.730669
	 D(3,4,5,6)       =        -0.001602	      -0.091798
	 D(3,4,5,11)      =         3.120119	     178.769629
	 D(4,3,2,8)       =         3.082918	     176.638204
	 D(4,5,6,12)      =         3.071723	     175.996775
	 D(5,4,3,9)       =         3.139718	     179.892592
	 D(5,6,1,7)       =         3.089693	     177.026391
	 D(6,1,2,8)       =        -3.104605	    -177.880791
	 D(6,1,7,13)      =        -2.871980	    -164.552317
	 D(6,1,7,14)      =         0.335134	      19.201738
	 D(6,5,4,10)      =        -3.136687	    -179.718938
	 D(7,1,2,8)       =         0.131029	       7.507430
	 D(7,1,6,12)      =        -0.003333	      -0.190955
	 D(8,2,3,9)       =        -0.050516	      -2.894382
	 D(9,3,4,10)      =        -0.008382	      -0.480237
	 D(10,4,5,11)     =        -0.014966	      -0.857511
	 D(11,5,6,12)     =        -0.050119	      -2.871629
	 D(13,7,14,15)    =         0.123108	       7.053590
	 D(13,7,14,16)    =        -2.906538	    -166.532360
	 D(14,7,13,17)    =        -2.919922	    -167.299204
	 D(14,7,13,18)    =         0.017408	       0.997422

	Current energy   :      -381.4675501547

	Energy change for the previous step:
		Projected    :        -0.0000001124
		Actual       :        -0.0000001039
	Energy ratio indicates good step: Trust radius increased to 7.500e-01.


	Performing BFGS update.
	Previous computed or guess Hessian on step 1.
	Steps to be used in Hessian update: 6 5
	Taking RFO optimization step.
	Going to follow RFO solution 1.
	Rejecting RFO root 1 because normalization gives large value.
	Rejecting RFO root 2 because normalization gives large value.
	Rejecting RFO root 3 because normalization gives large value.
	Rejecting RFO root 4 because normalization gives large value.
	Using RFO vector 5.
	Norm of target step-size    0.00094
	Projected energy change by RFO approximation:        -0.0000000293

	Back-transformation to cartesian coordinates...
	Successfully converged to displaced geometry.

	Back-transformation to cartesian coordinates to adjust frozen coordinates...
	Successfully converged to displaced geometry.

	--- Internal Coordinate Step in ANG or DEG, aJ/ANG or AJ/DEG ---
	 ---------------------------------------------------------------------------
	   Coordinate                Previous        Force       Change         New 
	   ----------                --------       ------       ------       ------
	    1 R(1,2)          =      1.409559    -0.000184    -0.000027     1.409533
	    2 R(1,6)          =      1.409711     0.000054    -0.000003     1.409708
	    3 R(1,7)          =      1.468132    -0.000026     0.000018     1.468150
	    4 R(2,3)          =      1.389835     0.000117     0.000014     1.389849
	    5 R(2,8)          =      1.085860     0.000036    -0.000002     1.085858
	    6 R(3,4)          =      1.397884     0.000029     0.000005     1.397889
	    7 R(3,9)          =      1.085026     0.000001     0.000000     1.085026
	    8 R(4,5)          =      1.397557     0.000019     0.000003     1.397560
	    9 R(4,10)         =      1.085604    -0.000001     0.000002     1.085605
	   10 R(5,6)          =      1.390080     0.000065     0.000007     1.390087
	   11 R(5,11)         =      1.085031     0.000004     0.000000     1.085031
	   12 R(6,12)         =      1.085866    -0.000048    -0.000011     1.085855
	   13 R(7,13)         =      1.333066    -0.000175    -0.000017     1.333049
	   14 R(7,14)         =      1.332367     0.000065    -0.000002     1.332365
	   15 R(13,17)        =      1.010279     0.000075     0.000002     1.010282
	   16 R(13,18)        =      1.012714     0.000018     0.000003     1.012716
	   17 R(14,15)        =      1.012563     0.000030     0.000006     1.012569
	   18 R(14,16)        =      1.010188    -0.000052    -0.000009     1.010179
	   19 B(1,2,3)        =    120.298341    -0.000000    -0.003501   120.294840
	   20 B(1,2,8)        =    121.183224    -0.000000     0.000331   121.183556
	   21 B(1,6,5)        =    120.324505    -0.000000    -0.002964   120.321541
	   22 B(1,6,12)       =    121.265162     0.000000     0.001160   121.266322
	   23 B(1,7,13)       =    120.834148    -0.000003    -0.003485   120.830663
	   24 B(1,7,14)       =    120.585424     0.000003     0.003932   120.589356
	   25 B(2,1,6)        =    119.044328     0.000001     0.005532   119.049861
	   26 B(2,1,7)        =    120.586510    -0.000004    -0.010378   120.576132
	   27 B(2,3,4)        =    120.096630     0.000000     0.000236   120.096866
	   28 B(2,3,9)        =    119.638612     0.000000     0.001646   119.640258
	   29 B(3,2,8)        =    118.386808     0.000001     0.003182   118.389990
	   30 B(3,4,5)        =    120.137453     0.000000     0.001260   120.138714
	   31 B(3,4,10)       =    119.926622     0.000000    -0.000056   119.926567
	   32 B(4,3,9)        =    120.263098    -0.000000    -0.001930   120.261168
	   33 B(4,5,6)        =    120.058682    -0.000000    -0.000622   120.058060
	   34 B(4,5,11)       =    120.271169    -0.000000    -0.001589   120.269580
	   35 B(5,4,10)       =    119.934875    -0.000000    -0.001195   119.933680
	   36 B(5,6,12)       =    118.353677    -0.000000     0.001797   118.355474
	   37 B(6,1,7)        =    120.148568     0.000003     0.004735   120.153303
	   38 B(6,5,11)       =    119.660418     0.000000     0.002066   119.662484
	   39 B(7,13,17)      =    120.677062    -0.000000     0.000308   120.677370
	   40 B(7,13,18)      =    122.084857    -0.000000    -0.002363   122.082494
	   41 B(7,14,15)      =    122.340530    -0.000000    -0.001890   122.338640
	   42 B(7,14,16)      =    120.882923     0.000000     0.000863   120.883786
	   43 B(13,7,14)      =    118.476992     0.000000    -0.000357   118.476635
	   44 B(15,14,16)     =    116.485637    -0.000000    -0.002624   116.483013
	   45 B(17,13,18)     =    116.266060     0.000000     0.001392   116.267452
	   46 D(1,2,3,4)      =      0.759316    -0.000000    -0.004767     0.754549
	   47 D(1,2,3,9)      =   -178.773270     0.000000     0.001973  -178.771298
	   48 D(1,6,5,4)      =     -1.300497    -0.000000    -0.008869    -1.309366
	   49 D(1,6,5,11)     =    179.831099     0.000000    -0.000488   179.830611
	   50 D(1,7,13,17)    =     16.377284    -0.000000     0.010105    16.387390
	   51 D(1,7,13,18)    =   -175.326090     0.000000     0.006320  -175.319770
	   52 D(1,7,14,15)    =   -176.613417    -0.000000    -0.012294  -176.625710
	   53 D(1,7,14,16)    =      9.800632     0.000000     0.027852     9.828485
	   54 D(2,1,6,5)      =      2.390463     0.000000     0.004266     2.394729
	   55 D(2,1,6,12)     =   -174.826883     0.000000     0.004388  -174.822495
	   56 *D(2,1,7,13)    =      9.999974     0.000000    -0.000000     9.999974
	   57 D(2,1,7,14)     =   -166.245971    -0.000000    -0.001617  -166.247589
	   58 D(2,3,4,5)      =      0.362951     0.000000    -0.000016     0.362935
	   59 D(2,3,4,10)     =    179.990121    -0.000000     0.001592   179.991713
	   60 D(3,2,1,6)      =     -2.118890    -0.000000     0.002583    -2.116307
	   61 D(3,2,1,7)      =   -176.730669    -0.000000     0.003666  -176.727004
	   62 D(3,4,5,6)      =     -0.091798    -0.000000     0.006866    -0.084932
	   63 D(3,4,5,11)     =    178.769629    -0.000000    -0.001524   178.768104
	   64 D(4,3,2,8)      =    176.638204     0.000000    -0.004552   176.633652
	   65 D(4,5,6,12)     =    175.996775    -0.000000    -0.009000   175.987775
	   66 D(5,4,3,9)      =    179.892592     0.000000    -0.006780   179.885812
	   67 D(5,6,1,7)      =    177.026391    -0.000000     0.002354   177.028745
	   68 D(6,1,2,8)      =   -177.880791    -0.000000     0.002250  -177.878541
	   69 D(6,1,7,13)     =   -164.552317     0.000000     0.001063  -164.551254
	   70 D(6,1,7,14)     =     19.201738     0.000000    -0.000554    19.201184
	   71 D(6,5,4,10)     =   -179.718938     0.000000     0.005254  -179.713684
	   72 D(7,1,2,8)      =      7.507430    -0.000000     0.003332     7.510762
	   73 D(7,1,6,12)     =     -0.190955     0.000000     0.002476    -0.188479
	   74 D(8,2,3,9)      =     -2.894382     0.000000     0.002188    -2.892194
	   75 D(9,3,4,10)     =     -0.480237    -0.000000    -0.005173    -0.485410
	   76 D(10,4,5,11)    =     -0.857511    -0.000000    -0.003137    -0.860647
	   77 D(11,5,6,12)    =     -2.871629    -0.000000    -0.000619    -2.872248
	   78 D(13,7,14,15)   =      7.053590    -0.000000    -0.013753     7.039838
	   79 D(13,7,14,16)   =   -166.532360     0.000000     0.026393  -166.505967
	   80 D(14,7,13,17)   =   -167.299204     0.000000     0.011851  -167.287353
	   81 D(14,7,13,18)   =      0.997422     0.000000     0.008066     1.005488
	 ---------------------------------------------------------------------------
	Successfully symmetrized geometry.

  ==> Convergence Check <==

  Measures of convergence in internal coordinates in au.
  Criteria marked as inactive (o), active & met (*), and active & unmet ( ).
  ---------------------------------------------------------------------------------------------
   Step     Total Energy     Delta E     MAX Force     RMS Force      MAX Disp      RMS Disp   
  ---------------------------------------------------------------------------------------------
    Convergence Criteria    1.00e-06 *    3.00e-04 *             o    1.20e-03 *             o
  ---------------------------------------------------------------------------------------------
      7    -381.46755015   -1.04e-07 *    5.05e-05 *    1.11e-05 o    4.86e-04 *    1.05e-04 o  ~
  ---------------------------------------------------------------------------------------------


  **** Optimization is complete! (in 7 steps) ****

  ==> Optimization Summary <==

  Measures of convergence in internal coordinates in au.
  --------------------------------------------------------------------------------------------------------------- ~
   Step         Total Energy             Delta E       MAX Force       RMS Force        MAX Disp        RMS Disp  ~
  --------------------------------------------------------------------------------------------------------------- ~
      1    -381.466142152741   -381.466142152741      0.01280727      0.00273589      0.16870738      0.03303242  ~
      2    -381.467153223764     -0.001011071023      0.01048508      0.00184648      0.03300273      0.00877281  ~
      3    -381.467522608624     -0.000369384860      0.00122799      0.00023272      0.01923715      0.00478412  ~
      4    -381.467539771387     -0.000017162763      0.00039536      0.00012070      0.01496309      0.00271938  ~
      5    -381.467548638906     -0.000008867519      0.00037950      0.00006515      0.00831268      0.00162395  ~
      6    -381.467550050744     -0.000001411838      0.00009471      0.00002108      0.00131824      0.00028809  ~
      7    -381.467550154688     -0.000000103944      0.00005049      0.00001107      0.00048612      0.00010455  ~
  --------------------------------------------------------------------------------------------------------------- ~

	Writing optimization data to binary file.
	Final energy is   -381.4675501546875
	Final (previous) structure:
	Cartesian Geometry (in Angstrom)
	    C    -0.0456331322   0.0011894887  -0.1764542229
	    C    -0.0208233113   1.2159965727   0.5380288976
	    C    -0.0017164922   1.2118469486   1.9277263196
	    C     0.0090067225   0.0003375258   2.6250133310
	    C     0.0082139348  -1.2107299131   1.9275326510
	    C    -0.0051766506  -1.2136718754   0.5375204824
	    C     0.0061693865  -0.0037409556  -1.6436639582
	    H    -0.0847908618   2.1711307059   0.0254679776
	    H    -0.0028796319   2.1532648040   2.4671818519
	    H     0.0240903517   0.0003175777   3.7105120436
	    H     0.0366429133  -2.1521682252   2.4662141907
	    H     0.0612540211  -2.1676888767   0.0231829830
	    N     0.2753073557   1.1120633366  -2.3216100651
	    N    -0.2882253981  -1.1079346307  -2.3287122529
	    H    -0.2128585271  -1.1558808115  -3.3373272271
	    H    -0.6910626026  -1.9118252069  -1.8683188688
	    H     0.6847426901   1.9108335638  -1.8579361594
	    H     0.2477392321   1.1466599715  -3.3333569741
	Saving final (previous) structure.
	Removing binary optimization data file.
			--------------------------
			 OPTKING Finished Execution 
			--------------------------

    Final optimized geometry and variables:
    Molecular point group: c1
    Full point group: C1

    Geometry (in Angstrom), charge = 1, multiplicity = 1:

    C           -0.045633132239     0.001189488716    -0.176454222921
    C           -0.020823311308     1.215996572718     0.538028897637
    C           -0.001716492213     1.211846948590     1.927726319591
    C            0.009006722514     0.000337525823     2.625013330971
    C            0.008213934814    -1.210729913074     1.927532651043
    C           -0.005176650563    -1.213671875447     0.537520482410
    C            0.006169386464    -0.003740955609    -1.643663958164
    H           -0.084790861766     2.171130705852     0.025467977628
    H           -0.002879631892     2.153264803954     2.467181851916
    H            0.024090351688     0.000317577668     3.710512043575
    H            0.036642913280    -2.152168225230     2.466214190732
    H            0.061254021131    -2.167688876661     0.023182983012
    N            0.275307355746     1.112063336597    -2.321610065054
    N           -0.288225398095    -1.107934630696    -2.328712252903
    H           -0.212858527117    -1.155880811495    -3.337327227119
    H           -0.691062602604    -1.911825206948    -1.868318868781
    H            0.684742690089     1.910833563768    -1.857936159446
    H            0.247739232070     1.146659971475    -3.333356974126

	Removing binary optimization data file.
	Cleaning optimization helper files.


Properties will be evaluated at   0.000000,   0.000000,   0.000000 [a0]
OEProp: No title given, name of density matrix used for the following properties is 'SCF density'
  Nuclear Dipole Moment: [e a0]
     X:    -0.6185      Y:     0.0584      Z:     0.2978

  Electronic Dipole Moment: [e a0]
     X:     0.6688      Y:    -0.0756      Z:    -2.4663

  Dipole Moment: [e a0]
     X:     0.0502      Y:    -0.0171      Z:    -2.1685     Total:     2.1692

  Dipole Moment: [D]
     X:     0.1277      Y:    -0.0436      Z:    -5.5118     Total:     5.5134

  Quadrupole Moment: [D A]
    XX:   -53.7949     YY:   -33.9988     ZZ:   -12.6465
    XY:     3.8442     XZ:    -0.1923     YZ:     0.1473

  Traceless Quadrupole Moment: [D A]
    XX:   -20.3149     YY:    -0.5187     ZZ:    20.8336
    XY:     3.8442     XZ:    -0.1923     YZ:     0.1473

  Mulliken Charges: (a.u.)
   Center  Symbol    Alpha    Beta     Spin     Total
       1     C     2.93466  2.93466  0.00000  0.13069
       2     C     3.08766  3.08766  0.00000 -0.17533
       3     C     3.06134  3.06134  0.00000 -0.12268
       4     C     3.05136  3.05136  0.00000 -0.10272
       5     C     3.06121  3.06121  0.00000 -0.12243
       6     C     3.08623  3.08623  0.00000 -0.17246
       7     C     2.70844  2.70844  0.00000  0.58312
       8     H     0.41815  0.41815  0.00000  0.16371
       9     H     0.40499  0.40499  0.00000  0.19002
      10     H     0.40279  0.40279  0.00000  0.19441
      11     H     0.40497  0.40497  0.00000  0.19007
      12     H     0.41887  0.41887  0.00000  0.16226
      13     N     3.87330  3.87330  0.00000 -0.74659
      14     N     3.87229  3.87229  0.00000 -0.74458
      15     H     0.30590  0.30590  0.00000  0.38820
      16     H     0.30034  0.30034  0.00000  0.39932
      17     H     0.30138  0.30138  0.00000  0.39723
      18     H     0.30612  0.30612  0.00000  0.38777

   Total alpha = 32.00000, Total beta = 32.00000, Total charge =  1.00000


    Psi4 stopped on: Saturday, 29 September 2018 08:51PM
    Psi4 wall time for execution: 0:04:14.97

*** Psi4 exiting successfully. Buy a developer a beer!
