
    -----------------------------------------------------------------------
          Psi4: An Open-Source Ab Initio Electronic Structure Package
                               Psi4 1.2.1 release

                         Git: Rev {HEAD} 406f4de 


    R. M. Parrish, L. A. Burns, D. G. A. Smith, A. C. Simmonett,
    A. E. DePrince III, E. G. Hohenstein, U. Bozkaya, A. Yu. Sokolov,
    R. Di Remigio, R. M. Richard, J. F. Gonthier, A. M. James,
    H. R. McAlexander, A. Kumar, M. Saitow, X. Wang, B. P. Pritchard,
    P. Verma, H. F. Schaefer III, K. Patkowski, R. A. King, E. F. Valeev,
    F. A. Evangelista, J. M. Turney, T. D. Crawford, and C. D. Sherrill,
    J. Chem. Theory Comput. 13(7) pp 3185--3197 (2017).
    (doi: 10.1021/acs.jctc.7b00174)


                         Additional Contributions by
    P. Kraus, H. Kruse, M. H. Lechner, M. C. Schieber, and R. A. Shaw

    -----------------------------------------------------------------------


    Psi4 started on: Saturday, 29 September 2018 08:42PM

    Process ID: 32292
    Host:       arancio.prib.upf.edu
    PSIDATADIR: /shared/joao/test_parameterize/miniconda3/share/psi4
    Memory:     500.0 MiB
    Threads:    1
    
  ==> Input File <==

--------------------------------------------------------------------------
set_num_threads(4)
set_memory('3000 MB')

set { scf_mem_safety_factor 0.7 }

set { reference rks }
set { basis 6-31G* }

molecule MOL {
    1 1
    noreorient
    nocom
    symmetry c1
    C   -0.000000  -0.000000  -0.177864
    C    0.036678   1.219374   0.524165
    C    0.031765   1.213120   1.915444
    C    0.000000   0.000000   2.610107
    C   -0.031765  -1.213120   1.915444
    C   -0.036678  -1.219375   0.524165
    C   -0.000000   0.000000  -1.644734
    H    0.018170   2.164705  -0.010854
    H    0.042402   2.152895   2.457886
    H    0.000000   0.000000   3.695756
    H   -0.042402  -2.152895   2.457886
    H   -0.018170  -2.164705  -0.010853
    N   -0.904833  -0.714007  -2.308461
    N    0.904833   0.714007  -2.308460
    H    0.890289   0.820900  -3.315997
    H    1.686726   1.122369  -1.813316
    H   -1.686726  -1.122369  -1.813317
    H   -0.890289  -0.820900  -3.315997
}

set optking { frozen_dihedral = (" 2 1 7 13 ") }

set optking { dynamic_level = 1 
 geom_maxiter = 250
 print_trajectory_xyz_file = True }

energy, wfn = optimize('B3LYP-D3', return_wfn=True)

import os
os.chdir(os.environ['HTMD_PSI4_WORKDIR'])

oeprop(wfn, 'DIPOLE', 'QUADRUPOLE', 'MULLIKEN_CHARGES')

with open('psi4out.xyz', 'w') as f:
    f.write('18 ' )
    f.write('%.12f\n' % energy)
    f.write(MOL.save_string_xyz())
--------------------------------------------------------------------------
  Threads set to 4 by Python driver.

  Memory set to   2.794 GiB by Python driver.
gradient() will perform analytic gradient computation.

*** tstart() called on arancio.prib.upf.edu
*** at Sat Sep 29 20:42:53 2018

   => Loading Basis Set <=

    Name: 6-31G*
    Role: ORBITAL
    Keyword: BASIS
    atoms 1-7         entry C          line   111 file /shared/joao/test_parameterize/miniconda3/share/psi4/basis/6-31gs.gbs 
    atoms 8-12, 15-18 entry H          line    44 file /shared/joao/test_parameterize/miniconda3/share/psi4/basis/6-31gs.gbs 
    atoms 13-14       entry N          line   128 file /shared/joao/test_parameterize/miniconda3/share/psi4/basis/6-31gs.gbs 


         ---------------------------------------------------------
                                   SCF
            by Justin Turney, Rob Parrish, Andy Simmonett
                             and Daniel Smith
                              RKS Reference
                        4 Threads,   2861 MiB Core
         ---------------------------------------------------------

  ==> Geometry <==

    Molecular point group: c1
    Full point group: C1

    Geometry (in Angstrom), charge = 1, multiplicity = 1:

       Center              X                  Y                   Z               Mass       
    ------------   -----------------  -----------------  -----------------  -----------------
         C            0.000000000000     0.000000000000    -0.177864000000    12.000000000000
         C            0.036678000000     1.219374000000     0.524165000000    12.000000000000
         C            0.031765000000     1.213120000000     1.915444000000    12.000000000000
         C            0.000000000000     0.000000000000     2.610107000000    12.000000000000
         C           -0.031765000000    -1.213120000000     1.915444000000    12.000000000000
         C           -0.036678000000    -1.219375000000     0.524165000000    12.000000000000
         C            0.000000000000     0.000000000000    -1.644734000000    12.000000000000
         H            0.018170000000     2.164705000000    -0.010854000000     1.007825032070
         H            0.042402000000     2.152895000000     2.457886000000     1.007825032070
         H            0.000000000000     0.000000000000     3.695756000000     1.007825032070
         H           -0.042402000000    -2.152895000000     2.457886000000     1.007825032070
         H           -0.018170000000    -2.164705000000    -0.010853000000     1.007825032070
         N           -0.904833000000    -0.714007000000    -2.308461000000    14.003074004780
         N            0.904833000000     0.714007000000    -2.308460000000    14.003074004780
         H            0.890289000000     0.820900000000    -3.315997000000     1.007825032070
         H            1.686726000000     1.122369000000    -1.813316000000     1.007825032070
         H           -1.686726000000    -1.122369000000    -1.813317000000     1.007825032070
         H           -0.890289000000    -0.820900000000    -3.315997000000     1.007825032070

  Running in c1 symmetry.

  Rotational constants: A =      0.12190  B =      0.03868  C =      0.03187 [cm^-1]
  Rotational constants: A =   3654.48811  B =   1159.55831  C =    955.54163 [MHz]
  Nuclear repulsion =  416.470555948272136

  Charge       = 1
  Multiplicity = 1
  Electrons    = 64
  Nalpha       = 32
  Nbeta        = 32

  ==> Algorithm <==

  SCF Algorithm Type is DF.
  DIIS enabled.
  MOM disabled.
  Fractional occupation disabled.
  Guess Type is SAD.
  Energy threshold   = 1.00e-08
  Density threshold  = 1.00e-08
  Integral threshold = 0.00e+00

  ==> Primary Basis <==

  Basis Set: 6-31G*
    Blend: 6-31G*
    Number of shells: 72
    Number of basis function: 153
    Number of Cartesian functions: 153
    Spherical Harmonics?: false
    Max angular momentum: 2

  ==> DFT Potential <==

   => Composite Functional: B3LYP-D3ZERO <= 

    B3LYP-d3zero Hyb-GGA Exchange-Correlation Functional

    P. J. Stephens, F. J. Devlin, C. F. Chabalowski, and M. J. Frisch, J. Phys. Chem. 98, 11623 (1994)

    Deriv               =              1
    GGA                 =           TRUE
    Meta                =          FALSE

    Exchange Hybrid     =           TRUE
    MP2 Hybrid          =          FALSE

   => Exchange Functionals <=

    0.0800   Slater exchange
    0.7200         Becke 88

   => Exact (HF) Exchange <=

    0.2000               HF 

   => Correlation Functionals <=

    0.1900   Vosko, Wilk & Nusair (VWN5_RPA)
    0.8100   Lee, Yang & Parr

   => Molecular Quadrature <=

    Radial Scheme       =       TREUTLER
    Pruning Scheme      =           FLAT
    Nuclear Scheme      =       TREUTLER

    BS radius alpha     =              1
    Pruning alpha       =              1
    Radial Points       =             75
    Spherical Points    =            302
    Total Points        =         397112
    Total Blocks        =           3032
    Max Points          =            256
    Max Functions       =            149

   => -D3ZERO: Empirical Dispersion <=

    Grimme's -D3 (zero-damping) Dispersion Correction
    Grimme S.; Antony J.; Ehrlich S.; Krieg H. (2010), J. Chem. Phys., 132: 154104

        S6 =   1.000000E+00
        S8 =   1.703000E+00
       SR6 =   1.261000E+00
       SR8 =   1.000000E+00
    ALPHA6 =   1.400000E+01

   => Loading Basis Set <=

    Name: (6-31G* AUX)
    Role: JKFIT
    Keyword: DF_BASIS_SCF
    atoms 1-7         entry C          line   121 file /shared/joao/test_parameterize/miniconda3/share/psi4/basis/cc-pvdz-jkfit.gbs 
    atoms 8-12, 15-18 entry H          line    51 file /shared/joao/test_parameterize/miniconda3/share/psi4/basis/cc-pvdz-jkfit.gbs 
    atoms 13-14       entry N          line   171 file /shared/joao/test_parameterize/miniconda3/share/psi4/basis/cc-pvdz-jkfit.gbs 

  ==> Pre-Iterations <==

   -------------------------------------------------------
    Irrep   Nso     Nmo     Nalpha   Nbeta   Ndocc  Nsocc
   -------------------------------------------------------
     A        153     153       0       0       0       0
   -------------------------------------------------------
    Total     153     153      32      32      32       0
   -------------------------------------------------------

  ==> Integral Setup <==

  ==> DiskDFJK: Density-Fitted J/K Matrices <==

    J tasked:                  Yes
    K tasked:                  Yes
    wK tasked:                  No
    OpenMP threads:              4
    Integrals threads:           4
    Memory (MB):              2002
    Algorithm:                Core
    Integral Cache:           NONE
    Schwarz Cutoff:          1E-12
    Fitting Condition:       1E-12

   => Auxiliary Basis Set <=

  Basis Set: (6-31G* AUX)
    Blend: CC-PVDZ-JKFIT
    Number of shells: 297
    Number of basis function: 954
    Number of Cartesian functions: 954
    Spherical Harmonics?: false
    Max angular momentum: 3

  Minimum eigenvalue in the overlap matrix is 4.8793642289E-04.
  Using Symmetric Orthogonalization.

  SCF Guess: Superposition of Atomic Densities via on-the-fly atomic UHF.

  ==> Iterations <==

                           Total Energy        Delta E     RMS |[F,P]|

   @DF-RKS iter   0:  -379.66654008543844   -3.79667e+02   6.75299e-02 
   @DF-RKS iter   1:  -381.05577014629591   -1.38923e+00   1.15373e-02 
   @DF-RKS iter   2:  -380.98906534976135    6.67048e-02   1.25100e-02 DIIS
   @DF-RKS iter   3:  -381.46345151912561   -4.74386e-01   1.41974e-03 DIIS
   @DF-RKS iter   4:  -381.46785581566172   -4.40430e-03   6.88166e-04 DIIS
   @DF-RKS iter   5:  -381.46908470723673   -1.22889e-03   2.12478e-04 DIIS
   @DF-RKS iter   6:  -381.46919620628637   -1.11499e-04   8.22190e-05 DIIS
   @DF-RKS iter   7:  -381.46921473869634   -1.85324e-05   1.16640e-05 DIIS
   @DF-RKS iter   8:  -381.46921505497568   -3.16279e-07   5.88227e-06 DIIS
   @DF-RKS iter   9:  -381.46921515728428   -1.02309e-07   1.64581e-06 DIIS
   @DF-RKS iter  10:  -381.46921516482689   -7.54261e-09   6.91923e-07 DIIS
   @DF-RKS iter  11:  -381.46921516625719   -1.43029e-09   7.93173e-08 DIIS
   @DF-RKS iter  12:  -381.46921516626873   -1.15392e-11   4.98260e-08 DIIS
   @DF-RKS iter  13:  -381.46921516627538   -6.65068e-12   1.64637e-08 DIIS
   @DF-RKS iter  14:  -381.46921516627668   -1.30740e-12   6.56231e-09 DIIS

  ==> Post-Iterations <==

    Orbital Energies [Eh]
    ---------------------

    Doubly Occupied:                                                      

       1A    -14.570233     2A    -14.570226     3A    -10.498805  
       4A    -10.371315     5A    -10.353464     6A    -10.353455  
       7A    -10.339933     8A    -10.337840     9A    -10.337771  
      10A     -1.185171    11A     -1.093090    12A     -1.012207  
      13A     -0.925437    14A     -0.899512    15A     -0.844886  
      16A     -0.786270    17A     -0.769660    18A     -0.745557  
      19A     -0.730766    20A     -0.689471    21A     -0.668821  
      22A     -0.621952    23A     -0.619083    24A     -0.581346  
      25A     -0.577377    26A     -0.569818    27A     -0.517671  
      28A     -0.502451    29A     -0.495167    30A     -0.474684  
      31A     -0.409639    32A     -0.403156  

    Virtual:                                                              

      33A     -0.211853    34A     -0.154335    35A     -0.140254  
      36A     -0.108788    37A     -0.064540    38A     -0.062850  
      39A     -0.037753    40A     -0.030493    41A      0.006852  
      42A      0.015420    43A      0.022324    44A      0.055723  
      45A      0.062059    46A      0.078788    47A      0.134752  
      48A      0.147107    49A      0.159259    50A      0.161088  
      51A      0.201703    52A      0.238072    53A      0.295752  
      54A      0.348169    55A      0.356523    56A      0.383023  
      57A      0.387356    58A      0.398089    59A      0.415676  
      60A      0.423965    61A      0.445925    62A      0.449362  
      63A      0.451864    64A      0.470252    65A      0.473468  
      66A      0.477708    67A      0.485838    68A      0.509892  
      69A      0.514342    70A      0.537991    71A      0.543895  
      72A      0.584966    73A      0.597895    74A      0.646861  
      75A      0.661435    76A      0.684103    77A      0.684638  
      78A      0.705257    79A      0.708982    80A      0.709243  
      81A      0.728763    82A      0.755990    83A      0.776635  
      84A      0.796774    85A      0.810312    86A      0.828880  
      87A      0.852185    88A      0.941104    89A      0.966000  
      90A      0.996293    91A      1.000552    92A      1.026555  
      93A      1.051160    94A      1.078764    95A      1.151859  
      96A      1.164427    97A      1.222368    98A      1.275240  
      99A      1.287221   100A      1.312402   101A      1.321633  
     102A      1.345141   103A      1.365433   104A      1.366140  
     105A      1.446342   106A      1.454056   107A      1.472446  
     108A      1.609408   109A      1.636075   110A      1.647249  
     111A      1.667952   112A      1.736026   113A      1.755817  
     114A      1.795636   115A      1.829536   116A      1.852262  
     117A      1.896292   118A      1.909059   119A      1.970041  
     120A      1.976617   121A      2.000361   122A      2.012244  
     123A      2.043098   124A      2.064142   125A      2.125134  
     126A      2.132427   127A      2.159177   128A      2.211053  
     129A      2.218982   130A      2.259853   131A      2.370762  
     132A      2.371694   133A      2.424079   134A      2.454643  
     135A      2.494734   136A      2.542978   137A      2.560260  
     138A      2.588018   139A      2.605354   140A      2.629799  
     141A      2.734205   142A      2.883761   143A      2.963621  
     144A      3.259040   145A      3.636763   146A      3.644871  
     147A      3.926082   148A      3.954983   149A      3.968165  
     150A      4.068910   151A      4.180545   152A      4.259278  
     153A      4.548031  

    Final Occupation by Irrep:
              A 
    DOCC [    32 ]

  Energy converged.

  @DF-RKS Final Energy:  -381.46921516627668

   => Energetics <=

    Nuclear Repulsion Energy =            416.4705559482721355
    One-Electron Energy =               -1328.2204362011066223
    Two-Electron Energy =                 574.6967032973416281
    DFT Exchange-Correlation Energy =     -44.4041333907837981
    Empirical Dispersion Energy =          -0.0119048200000000
    VV10 Nonlocal Energy =                  0.0000000000000000
    Total Energy =                       -381.4692151662766264



Properties will be evaluated at   0.000000,   0.000000,   0.000000 [a0]

Properties computed using the SCF density matrix

  Nuclear Dipole Moment: [e a0]
     X:    -0.0000      Y:    -0.0000      Z:     0.0248

  Electronic Dipole Moment: [e a0]
     X:     0.0000      Y:     0.0000      Z:    -2.3717

  Dipole Moment: [e a0]
     X:     0.0000      Y:     0.0000      Z:    -2.3469     Total:     2.3469

  Dipole Moment: [D]
     X:     0.0000      Y:     0.0000      Z:    -5.9652     Total:     5.9652


*** tstop() called on arancio.prib.upf.edu at Sat Sep 29 20:43:19 2018
Module time:
	user time   =      92.13 seconds =       1.54 minutes
	system time =       0.51 seconds =       0.01 minutes
	total time  =         26 seconds =       0.43 minutes
Total time:
	user time   =      92.13 seconds =       1.54 minutes
	system time =       0.51 seconds =       0.01 minutes
	total time  =         26 seconds =       0.43 minutes

*** tstart() called on arancio.prib.upf.edu
*** at Sat Sep 29 20:43:19 2018


         ------------------------------------------------------------
                                   SCF GRAD                          
                          Rob Parrish, Justin Turney,                
                       Andy Simmonett, and Alex Sokolov              
         ------------------------------------------------------------

  ==> Geometry <==

    Molecular point group: c1
    Full point group: C1

    Geometry (in Angstrom), charge = 1, multiplicity = 1:

       Center              X                  Y                   Z               Mass       
    ------------   -----------------  -----------------  -----------------  -----------------
         C            0.000000000000     0.000000000000    -0.177864000000    12.000000000000
         C            0.036678000000     1.219374000000     0.524165000000    12.000000000000
         C            0.031765000000     1.213120000000     1.915444000000    12.000000000000
         C            0.000000000000     0.000000000000     2.610107000000    12.000000000000
         C           -0.031765000000    -1.213120000000     1.915444000000    12.000000000000
         C           -0.036678000000    -1.219375000000     0.524165000000    12.000000000000
         C            0.000000000000     0.000000000000    -1.644734000000    12.000000000000
         H            0.018170000000     2.164705000000    -0.010854000000     1.007825032070
         H            0.042402000000     2.152895000000     2.457886000000     1.007825032070
         H            0.000000000000     0.000000000000     3.695756000000     1.007825032070
         H           -0.042402000000    -2.152895000000     2.457886000000     1.007825032070
         H           -0.018170000000    -2.164705000000    -0.010853000000     1.007825032070
         N           -0.904833000000    -0.714007000000    -2.308461000000    14.003074004780
         N            0.904833000000     0.714007000000    -2.308460000000    14.003074004780
         H            0.890289000000     0.820900000000    -3.315997000000     1.007825032070
         H            1.686726000000     1.122369000000    -1.813316000000     1.007825032070
         H           -1.686726000000    -1.122369000000    -1.813317000000     1.007825032070
         H           -0.890289000000    -0.820900000000    -3.315997000000     1.007825032070

  Nuclear repulsion =  416.470555948272136

  ==> Basis Set <==

  Basis Set: 6-31G*
    Blend: 6-31G*
    Number of shells: 72
    Number of basis function: 153
    Number of Cartesian functions: 153
    Spherical Harmonics?: false
    Max angular momentum: 2

  ==> DFJKGrad: Density-Fitted SCF Gradients <==

    Gradient:                    1
    J tasked:                  Yes
    K tasked:                  Yes
    wK tasked:                  No
    OpenMP threads:              4
    Integrals threads:           4
    Memory (MB):              2002
    Schwarz Cutoff:          0E+00
    Fitting Condition:       1E-12

   => Auxiliary Basis Set <=

  Basis Set: (6-31G* AUX)
    Blend: CC-PVDZ-JKFIT
    Number of shells: 297
    Number of basis function: 954
    Number of Cartesian functions: 954
    Spherical Harmonics?: false
    Max angular momentum: 3

  ==> DFT Potential <==

   => Composite Functional: B3LYP-D3ZERO <= 

    B3LYP-d3zero Hyb-GGA Exchange-Correlation Functional

    P. J. Stephens, F. J. Devlin, C. F. Chabalowski, and M. J. Frisch, J. Phys. Chem. 98, 11623 (1994)

    Deriv               =              1
    GGA                 =           TRUE
    Meta                =          FALSE

    Exchange Hybrid     =           TRUE
    MP2 Hybrid          =          FALSE

   => Exchange Functionals <=

    0.0800   Slater exchange
    0.7200         Becke 88

   => Exact (HF) Exchange <=

    0.2000               HF 

   => Correlation Functionals <=

    0.1900   Vosko, Wilk & Nusair (VWN5_RPA)
    0.8100   Lee, Yang & Parr

   => Molecular Quadrature <=

    Radial Scheme       =       TREUTLER
    Pruning Scheme      =           FLAT
    Nuclear Scheme      =       TREUTLER

    BS radius alpha     =              1
    Pruning alpha       =              1
    Radial Points       =             75
    Spherical Points    =            302
    Total Points        =         397112
    Total Blocks        =           3032
    Max Points          =            256
    Max Functions       =            149


  -Total Gradient:
     Atom            X                  Y                   Z
    ------   -----------------  -----------------  -----------------
       1        0.000000062308     0.000000550685    -0.004024925579
       2       -0.000794710734    -0.000719752885     0.001707173843
       3        0.000377308001     0.000863932721    -0.000679635644
       4        0.000000000363    -0.000000051336    -0.000001948081
       5       -0.000377312624    -0.000863715498    -0.000679524785
       6        0.000794718697     0.000718284513     0.001706779307
       7        0.000000202050     0.000000182912     0.004477056977
       8       -0.001016284544     0.000345276526     0.000860030182
       9        0.000031238766    -0.000058140548     0.000049605496
      10        0.000000001399     0.000000005940    -0.000022141128
      11       -0.000031239788     0.000058128594     0.000049554463
      12        0.001016273280    -0.000344490792     0.000860516243
      13       -0.001415672596     0.000100636785    -0.001622278146
      14        0.001415463575    -0.000100906798    -0.001621046080
      15       -0.000120071550    -0.000047193859     0.000511386831
      16        0.000383053324    -0.000702831888    -0.001048458772
      17       -0.000383029382     0.000702842230    -0.001048457337
      18        0.000119999598     0.000047242710     0.000512250580


*** tstop() called on arancio.prib.upf.edu at Sat Sep 29 20:43:25 2018
Module time:
	user time   =      26.07 seconds =       0.43 minutes
	system time =       0.22 seconds =       0.00 minutes
	total time  =          6 seconds =       0.10 minutes
Total time:
	user time   =     118.27 seconds =       1.97 minutes
	system time =       0.74 seconds =       0.01 minutes
	total time  =         32 seconds =       0.53 minutes

			-----------------------------------------
			 OPTKING 2.0: for geometry optimizations 
			  - R.A. King,  Bethel University        
			-----------------------------------------
	At level 1: Red. Int., RFO, no backsteps, dynamic trust

	Internal coordinates to be generated automatically.
	Detected frag 1 with atoms:  1 2 3 4 5 6 7 8 9 10 11 12 13 14 15 16 17 18
	---Fragment 1 Bond Connectivity---
	 1 : 2 6 7
	 2 : 1 3 8
	 3 : 2 4 9
	 4 : 3 5 10
	 5 : 4 6 11
	 6 : 1 5 12
	 7 : 1 13 14
	 8 : 2
	 9 : 3
	 10 : 4
	 11 : 5
	 12 : 6
	 13 : 7 17 18
	 14 : 7 15 16
	 15 : 14
	 16 : 14
	 17 : 13
	 18 : 13

	Assuming in current code that numbering for constraints corresponds to unified fragment.
	Frozen dihedral atom list: 
	     2     1     7    13
	---Fragment 1 Geometry and Gradient---
	 C           0.0000000000        0.0000000000       -0.3361142489
	 C           0.0693113751        2.3042829136        0.9905282984
	 C           0.0600271506        2.2924645663        3.6196645829
	 C           0.0000000000        0.0000000000        4.9323874075
	 C          -0.0600271506       -2.2924645663        3.6196645829
	 C          -0.0693113751       -2.3042848033        0.9905282984
	 C           0.0000000000        0.0000000000       -3.1080968214
	 H           0.0343363238        4.0906996085       -0.0205110874
	 H           0.0801281675        4.0683819429        4.6447314059
	 H           0.0000000000        0.0000000000        6.9839666940
	 H          -0.0801281675       -4.0683819429        4.6447314059
	 H          -0.0343363238       -4.0906996085       -0.0205091977
	 N          -1.7098865660       -1.3492776870       -4.3623590784
	 N           1.7098865660        1.3492776870       -4.3623571887
	 H           1.6824023891        1.5512761825       -6.2663261875
	 H           3.1874502012        2.1209700300       -3.4266706324
	 H          -3.1874502012       -2.1209700300       -3.4266725221
	 H          -1.6824023891       -1.5512761825       -6.2663261875
	             0.0000000623        0.0000005507       -0.0040249256
	            -0.0007947107       -0.0007197529        0.0017071738
	             0.0003773080        0.0008639327       -0.0006796356
	             0.0000000004       -0.0000000513       -0.0000019481
	            -0.0003773126       -0.0008637155       -0.0006795248
	             0.0007947187        0.0007182845        0.0017067793
	             0.0000002021        0.0000001829        0.0044770570
	            -0.0010162845        0.0003452765        0.0008600302
	             0.0000312388       -0.0000581405        0.0000496055
	             0.0000000014        0.0000000059       -0.0000221411
	            -0.0000312398        0.0000581286        0.0000495545
	             0.0010162733       -0.0003444908        0.0008605162
	            -0.0014156726        0.0001006368       -0.0016222781
	             0.0014154636       -0.0001009068       -0.0016210461
	            -0.0001200716       -0.0000471939        0.0005113868
	             0.0003830533       -0.0007028319       -0.0010484588
	            -0.0003830294        0.0007028422       -0.0010484573
	             0.0001199996        0.0000472427        0.0005122506

	Previous optimization step data not found.  Starting new optimization.

	---Fragment 1 Intrafragment Coordinates---
	 - Coordinate -           - BOHR/RAD -       - ANG/DEG -
	 R(1,2)           =         2.659794	       1.407502
	 R(1,6)           =         2.659796	       1.407503
	 R(1,7)           =         2.771983	       1.466870
	 R(2,3)           =         2.629179	       1.391302
	 R(2,8)           =         2.052976	       1.086388
	 R(3,4)           =         2.642393	       1.398294
	 R(3,9)           =         2.050622	       1.085142
	 R(4,5)           =         2.642393	       1.398294
	 R(4,10)          =         2.051579	       1.085649
	 R(5,6)           =         2.629179	       1.391302
	 R(5,11)          =         2.050622	       1.085142
	 R(6,12)          =         2.052973	       1.086386
	 R(7,13)          =         2.513451	       1.330061
	 R(7,14)          =         2.513450	       1.330061
	 R(13,17)         =         1.911600	       1.011575
	 R(13,18)         =         1.914850	       1.013295
	 R(14,15)         =         1.914852	       1.013296
	 R(14,16)         =         1.911600	       1.011575
	 B(1,2,3)         =         2.088380	     119.655376
	 B(1,2,8)         =         2.103396	     120.515689
	 B(1,6,5)         =         2.088379	     119.655315
	 B(1,6,12)        =         2.103396	     120.515729
	 B(1,7,13)        =         2.093264	     119.935183
	 B(1,7,14)        =         2.093263	     119.935145
	 B(2,1,6)         =         2.097220	     120.161857
	 B(2,1,7)         =         2.092983	     119.919082
	 B(2,3,4)         =         2.095279	     120.050636
	 B(2,3,9)         =         2.089719	     119.732108
	 B(3,2,8)         =         2.090149	     119.756722
	 B(3,4,5)         =         2.101793	     120.423859
	 B(3,4,10)        =         2.090696	     119.788070
	 B(4,3,9)         =         2.098135	     120.214297
	 B(4,5,6)         =         2.095280	     120.050677
	 B(4,5,11)        =         2.098135	     120.214297
	 B(5,4,10)        =         2.090696	     119.788070
	 B(5,6,12)        =         2.090149	     119.756743
	 B(6,1,7)         =         2.092982	     119.919061
	 B(6,5,11)        =         2.089719	     119.732067
	 B(7,13,17)       =         2.092411	     119.886344
	 B(7,13,18)       =         2.144861	     122.891455
	 B(7,14,15)       =         2.144860	     122.891415
	 B(7,14,16)       =         2.092412	     119.886381
	 B(13,7,14)       =         2.096658	     120.129672
	 B(15,14,16)      =         2.043399	     117.078149
	 B(17,13,18)      =         2.043399	     117.078146
	 D(1,2,3,4)       =         0.007799	       0.446825
	 D(1,2,3,9)       =        -3.122896	    -178.928735
	 D(1,6,5,4)       =         0.007799	       0.446822
	 D(1,6,5,11)      =        -3.122896	    -178.928737
	 D(1,7,13,17)     =         0.187844	      10.762667
	 D(1,7,13,18)     =        -3.032164	    -173.730212
	 D(1,7,14,15)     =        -3.032164	    -173.730221
	 D(1,7,14,16)     =         0.187844	      10.762671
	 D(2,1,6,5)       =        -0.003906	      -0.223802
	 D(2,1,6,12)      =        -3.091437	    -177.126283
	*D(2,1,7,13)      =        -2.268928	    -130.000000
	 D(2,1,7,14)      =         0.872665	      50.000000
	 D(2,3,4,5)       =        -0.003942	      -0.225875
	 D(2,3,4,10)      =         3.137650	     179.774125
	 D(3,2,1,6)       =        -0.003906	      -0.223806
	 D(3,2,1,7)       =         3.137687	     179.776196
	 D(3,4,5,6)       =        -0.003942	      -0.225874
	 D(3,4,5,11)      =         3.126699	     179.146646
	 D(4,3,2,8)       =         3.095744	     177.373058
	 D(4,5,6,12)      =         3.095744	     177.373055
	 D(5,4,3,9)       =         3.126699	     179.146646
	 D(5,6,1,7)       =         3.137687	     179.776197
	 D(6,1,2,8)       =        -3.091437	    -177.126287
	 D(6,1,7,13)      =         0.872665	      50.000001
	 D(6,1,7,14)      =        -2.268928	    -129.999999
	 D(6,5,4,10)      =         3.137650	     179.774126
	 D(7,1,2,8)       =         0.050156	       2.873714
	 D(7,1,6,12)      =         0.050156	       2.873716
	 D(8,2,3,9)       =        -0.034950	      -2.002503
	 D(9,3,4,10)      =        -0.014894	      -0.853354
	 D(10,4,5,11)     =        -0.014894	      -0.853354
	 D(11,5,6,12)     =        -0.034950	      -2.002504
	 D(13,7,14,15)    =         0.109428	       6.269779
	 D(13,7,14,16)    =        -2.953749	    -169.237329
	 D(14,7,13,17)    =        -2.953749	    -169.237333
	 D(14,7,13,18)    =         0.109428	       6.269788

	Current energy   :      -381.4692151663

	Generating empirical Hessian (Schlegel '84) for each fragment.
	Taking RFO optimization step.
	Going to follow RFO solution 1.
	Using RFO vector 1.
	Norm of target step-size    0.24098
	Projected energy change by RFO approximation:        -0.0017466602

	Back-transformation to cartesian coordinates...
	Could not converge backtransformation.
	Using first guess instead.

	Back-transformation to cartesian coordinates to adjust frozen coordinates...
	Successfully converged to displaced geometry.

	--- Internal Coordinate Step in ANG or DEG, aJ/ANG or AJ/DEG ---
	 ---------------------------------------------------------------------------
	   Coordinate                Previous        Force       Change         New 
	   ----------                --------       ------       ------       ------
	    1 R(1,2)          =      1.407502    -0.011730    -0.001700     1.405803
	    2 R(1,6)          =      1.407503    -0.011730    -0.000324     1.407179
	    3 R(1,7)          =      1.466870     0.001367     0.000390     1.467260
	    4 R(2,3)          =      1.391302     0.005302     0.001052     1.392354
	    5 R(2,8)          =      1.086388     0.000874     0.001193     1.087581
	    6 R(3,4)          =      1.398294     0.001079     0.000670     1.398963
	    7 R(3,9)          =      1.085142     0.000205     0.000088     1.085230
	    8 R(4,5)          =      1.398294     0.001084     0.000333     1.398627
	    9 R(4,10)         =      1.085649     0.000176     0.000271     1.085920
	   10 R(5,6)          =      1.391302     0.005312     0.000914     1.392216
	   11 R(5,11)         =      1.085142     0.000205     0.000928     1.086070
	   12 R(6,12)         =      1.086386     0.000882     0.001202     1.087589
	   13 R(7,13)         =      1.330061    -0.014511    -0.001266     1.328795
	   14 R(7,14)         =      1.330061    -0.014507     0.001589     1.331649
	   15 R(13,17)        =      1.011575     0.004124     0.003536     1.015111
	   16 R(13,18)        =      1.013295     0.004229     0.001503     1.014798
	   17 R(14,15)        =      1.013296     0.004222     0.001207     1.014503
	   18 R(14,16)        =      1.011575     0.004124     0.002712     1.014287
	   19 B(1,2,3)        =    119.655376    -0.000079    -0.268096   119.387280
	   20 B(1,2,8)        =    120.515689    -0.000030    -0.195162   120.320528
	   21 B(1,6,5)        =    119.655315    -0.000079    -0.257799   119.397515
	   22 B(1,6,12)       =    120.515729    -0.000031    -0.112843   120.402886
	   23 B(1,7,13)       =    119.935183    -0.000139    -0.420998   119.514184
	   24 B(1,7,14)       =    119.935145    -0.000139    -0.468215   119.466930
	   25 B(2,1,6)        =    120.161857     0.000158     0.419345   120.581202
	   26 B(2,1,7)        =    119.919082    -0.000079    -0.234044   119.685038
	   27 B(2,3,4)        =    120.050636    -0.000002     0.031159   120.081796
	   28 B(2,3,9)        =    119.732108    -0.000005    -0.052396   119.679712
	   29 B(3,2,8)        =    119.756722     0.000111     0.515526   120.272247
	   30 B(3,4,5)        =    120.423859     0.000003     0.049006   120.472865
	   31 B(3,4,10)       =    119.788070    -0.000002    -0.003681   119.784390
	   32 B(4,3,9)        =    120.214297     0.000006     0.023326   120.237622
	   33 B(4,5,6)        =    120.050677    -0.000002    -0.005963   120.044714
	   34 B(4,5,11)       =    120.214297     0.000007     0.028178   120.242474
	   35 B(5,4,10)       =    119.788070    -0.000002    -0.047227   119.740844
	   36 B(5,6,12)       =    119.756743     0.000111     0.408982   120.165725
	   37 B(6,1,7)        =    119.919061    -0.000079    -0.305123   119.613938
	   38 B(6,5,11)       =    119.732067    -0.000005    -0.019439   119.712627
	   39 B(7,13,17)      =    119.886344    -0.000077    -0.366520   119.519824
	   40 B(7,13,18)      =    122.891455     0.000047     0.210992   123.102447
	   41 B(7,14,15)      =    122.891415     0.000048     0.305461   123.196876
	   42 B(7,14,16)      =    119.886381    -0.000077    -0.188126   119.698255
	   43 B(13,7,14)      =    120.129672     0.000278     0.778484   120.908156
	   44 B(15,14,16)     =    117.078149     0.000033    -0.025240   117.052909
	   45 B(17,13,18)     =    117.078146     0.000033     0.247189   117.325336
	   46 D(1,2,3,4)      =      0.446825    -0.000001    -0.385174     0.061651
	   47 D(1,2,3,9)      =   -178.928735    -0.000003    -0.671020  -179.599755
	   48 D(1,6,5,4)      =      0.446822     0.000005     1.088484     1.535306
	   49 D(1,6,5,11)     =   -178.928737     0.000001     0.308349  -178.620389
	   50 D(1,7,13,17)    =     10.762667    -0.000022    -3.917361     6.845305
	   51 D(1,7,13,18)    =   -173.730212    -0.000010    -2.129436  -175.859648
	   52 D(1,7,14,15)    =   -173.730221     0.000008     1.648241  -172.081980
	   53 D(1,7,14,16)    =     10.762671    -0.000005    -0.143723    10.618947
	   54 D(2,1,6,5)      =     -0.223802    -0.000009    -2.042580    -2.266382
	   55 D(2,1,6,12)     =   -177.126283    -0.000015    -3.026863  -180.153146
	   56 *D(2,1,7,13)    =   -130.000000     0.000000     0.000000  -130.000000
	   57 D(2,1,7,14)     =     50.000000    -0.000018    -3.790226    46.209774
	   58 D(2,3,4,5)      =     -0.225875    -0.000003    -0.557819    -0.783695
	   59 D(2,3,4,10)     =    179.774125    -0.000001    -0.054940   179.719184
	   60 D(3,2,1,6)      =     -0.223806     0.000007     1.689916     1.466110
	   61 D(3,2,1,7)      =    179.776196    -0.000010    -2.304725   177.471470
	   62 D(3,4,5,6)      =     -0.225874     0.000000     0.199217    -0.026657
	   63 D(3,4,5,11)     =    179.146646     0.000004     0.983224   180.129870
	   64 D(4,3,2,8)      =    177.373058     0.000007     1.069448   178.442505
	   65 D(4,5,6,12)     =    177.373055     0.000011     2.054119   179.427175
	   66 D(5,4,3,9)      =    179.146646    -0.000001    -0.270840   178.875806
	   67 D(5,6,1,7)      =    179.776197     0.000008     1.949236   181.725433
	   68 D(6,1,2,8)      =   -177.126287    -0.000002     0.212341  -176.913946
	   69 D(6,1,7,13)     =     50.000001    -0.000016    -3.955680    46.044321
	   70 D(6,1,7,14)     =   -129.999999    -0.000034    -7.745906  -137.745905
	   71 D(6,5,4,10)     =    179.774126    -0.000002    -0.303443   179.470682
	   72 D(7,1,2,8)      =      2.873714    -0.000018    -3.782300    -0.908586
	   73 D(7,1,6,12)     =      2.873716     0.000001     0.964952     3.838668
	   74 D(8,2,3,9)      =     -2.002503     0.000005     0.783601    -1.218901
	   75 D(9,3,4,10)     =     -0.853354     0.000001     0.232039    -0.621315
	   76 D(10,4,5,11)    =     -0.853354     0.000002     0.480563    -0.372790
	   77 D(11,5,6,12)    =     -2.002504     0.000007     1.273984    -0.728520
	   78 D(13,7,14,15)   =      6.269779    -0.000010    -2.196145     4.073634
	   79 D(13,7,14,16)   =   -169.237329    -0.000022    -3.988109  -173.225439
	   80 D(14,7,13,17)   =   -169.237333    -0.000005    -0.071179  -169.308512
	   81 D(14,7,13,18)   =      6.269788     0.000008     1.716746     7.986534
	 ---------------------------------------------------------------------------
	Successfully symmetrized geometry.

  ==> Convergence Check <==

  Measures of convergence in internal coordinates in au.
  Criteria marked as inactive (o), active & met (*), and active & unmet ( ).
  --------------------------------------------------------------------------------------------- ~
   Step     Total Energy     Delta E     MAX Force     RMS Force      MAX Disp      RMS Disp    ~
  --------------------------------------------------------------------------------------------- ~
    Convergence Criteria    1.00e-06 *    3.00e-04 *             o    1.20e-03 *             o  ~
  --------------------------------------------------------------------------------------------- ~
      1    -381.46921517   -3.81e+02      3.65e-03      8.80e-04 o    1.35e-01      2.68e-02 o  ~
  ---------------------------------------------------------------------------------------------

	Writing optimization data to binary file.
	Structure for next step:
	Cartesian Geometry (in Angstrom)
	    C     0.0524637915  -0.0145336244  -0.1787962984
	    C     0.0870318594   1.2091885106   0.5122826527
	    C     0.0523825909   1.2090032421   1.9042055611
	    C    -0.0148944123  -0.0006014023   2.6037976546
	    C    -0.0643854126  -1.2167010651   1.9147331255
	    C    -0.0474582471  -1.2303010777   0.5226869399
	    C     0.0324339006  -0.0201892088  -1.6459086887
	    H     0.1138228789   2.1484473911  -0.0353549010
	    H     0.0722532725   2.1512001143   2.4423447274
	    H    -0.0370717342   0.0046901246   3.6894785721
	    H    -0.1186830449  -2.1534698812   2.4616012742
	    H    -0.0764722119  -2.1752254544  -0.0150171241
	    N    -0.8773121766  -0.7476173384  -2.2853661146
	    N     0.8766389051   0.7622075389  -2.3155827291
	    H     0.8352384521   0.8917761334  -3.3209253224
	    H     1.6288835105   1.2292696503  -1.8208512949
	    H    -1.6119075747  -1.2073123053  -1.7566884103
	    H    -0.9029643473  -0.8398323476  -3.2956396241
			--------------------------
			 OPTKING Finished Execution 
			--------------------------

    Structure for next step:
    Molecular point group: c1
    Full point group: C1

    Geometry (in Angstrom), charge = 1, multiplicity = 1:

    C            0.052463791472    -0.014533624405    -0.178796298378
    C            0.087031859373     1.209188510600     0.512282652715
    C            0.052382590927     1.209003242135     1.904205561085
    C           -0.014894412257    -0.000601402343     2.603797654566
    C           -0.064385412604    -1.216701065079     1.914733125471
    C           -0.047458247132    -1.230301077748     0.522686939936
    C            0.032433900575    -0.020189208782    -1.645908688674
    H            0.113822878948     2.148447391090    -0.035354900969
    H            0.072253272537     2.151200114263     2.442344727376
    H           -0.037071734185     0.004690124568     3.689478572086
    H           -0.118683044919    -2.153469881153     2.461601274232
    H           -0.076472211861    -2.175225454359    -0.015017124130
    N           -0.877312176560    -0.747617338422    -2.285366114584
    N            0.876638905135     0.762207538860    -2.315582729131
    H            0.835238452078     0.891776133405    -3.320925322367
    H            1.628883510463     1.229269650332    -1.820851294871
    H           -1.611907574661    -1.207312305337    -1.756688410310
    H           -0.902964347329    -0.839832347624    -3.295639624053

gradient() will perform analytic gradient computation.

*** tstart() called on arancio.prib.upf.edu
*** at Sat Sep 29 20:43:26 2018

   => Loading Basis Set <=

    Name: 6-31G*
    Role: ORBITAL
    Keyword: BASIS
    atoms 1-7         entry C          line   111 file /shared/joao/test_parameterize/miniconda3/share/psi4/basis/6-31gs.gbs 
    atoms 8-12, 15-18 entry H          line    44 file /shared/joao/test_parameterize/miniconda3/share/psi4/basis/6-31gs.gbs 
    atoms 13-14       entry N          line   128 file /shared/joao/test_parameterize/miniconda3/share/psi4/basis/6-31gs.gbs 


         ---------------------------------------------------------
                                   SCF
            by Justin Turney, Rob Parrish, Andy Simmonett
                             and Daniel Smith
                              RKS Reference
                        4 Threads,   2861 MiB Core
         ---------------------------------------------------------

  ==> Geometry <==

    Molecular point group: c1
    Full point group: C1

    Geometry (in Angstrom), charge = 1, multiplicity = 1:

       Center              X                  Y                   Z               Mass       
    ------------   -----------------  -----------------  -----------------  -----------------
         C            0.052463791472    -0.014533624405    -0.178796298378    12.000000000000
         C            0.087031859373     1.209188510600     0.512282652715    12.000000000000
         C            0.052382590927     1.209003242135     1.904205561085    12.000000000000
         C           -0.014894412257    -0.000601402343     2.603797654566    12.000000000000
         C           -0.064385412604    -1.216701065079     1.914733125471    12.000000000000
         C           -0.047458247132    -1.230301077748     0.522686939936    12.000000000000
         C            0.032433900575    -0.020189208782    -1.645908688674    12.000000000000
         H            0.113822878948     2.148447391090    -0.035354900969     1.007825032070
         H            0.072253272537     2.151200114263     2.442344727376     1.007825032070
         H           -0.037071734185     0.004690124568     3.689478572086     1.007825032070
         H           -0.118683044919    -2.153469881153     2.461601274232     1.007825032070
         H           -0.076472211861    -2.175225454359    -0.015017124130     1.007825032070
         N           -0.877312176560    -0.747617338422    -2.285366114584    14.003074004780
         N            0.876638905135     0.762207538860    -2.315582729131    14.003074004780
         H            0.835238452078     0.891776133405    -3.320925322367     1.007825032070
         H            1.628883510463     1.229269650332    -1.820851294871     1.007825032070
         H           -1.611907574661    -1.207312305337    -1.756688410310     1.007825032070
         H           -0.902964347329    -0.839832347624    -3.295639624053     1.007825032070

  Running in c1 symmetry.

  Rotational constants: A =      0.12139  B =      0.03916  C =      0.03181 [cm^-1]
  Rotational constants: A =   3639.09546  B =   1174.10552  C =    953.58339 [MHz]
  Nuclear repulsion =  416.817284391417218

  Charge       = 1
  Multiplicity = 1
  Electrons    = 64
  Nalpha       = 32
  Nbeta        = 32

  ==> Algorithm <==

  SCF Algorithm Type is DF.
  DIIS enabled.
  MOM disabled.
  Fractional occupation disabled.
  Guess Type is READ.
  Energy threshold   = 1.00e-08
  Density threshold  = 1.00e-08
  Integral threshold = 0.00e+00

  ==> Primary Basis <==

  Basis Set: 6-31G*
    Blend: 6-31G*
    Number of shells: 72
    Number of basis function: 153
    Number of Cartesian functions: 153
    Spherical Harmonics?: false
    Max angular momentum: 2

  ==> DFT Potential <==

   => Composite Functional: B3LYP-D3ZERO <= 

    B3LYP-d3zero Hyb-GGA Exchange-Correlation Functional

    P. J. Stephens, F. J. Devlin, C. F. Chabalowski, and M. J. Frisch, J. Phys. Chem. 98, 11623 (1994)

    Deriv               =              1
    GGA                 =           TRUE
    Meta                =          FALSE

    Exchange Hybrid     =           TRUE
    MP2 Hybrid          =          FALSE

   => Exchange Functionals <=

    0.0800   Slater exchange
    0.7200         Becke 88

   => Exact (HF) Exchange <=

    0.2000               HF 

   => Correlation Functionals <=

    0.1900   Vosko, Wilk & Nusair (VWN5_RPA)
    0.8100   Lee, Yang & Parr

   => Molecular Quadrature <=

    Radial Scheme       =       TREUTLER
    Pruning Scheme      =           FLAT
    Nuclear Scheme      =       TREUTLER

    BS radius alpha     =              1
    Pruning alpha       =              1
    Radial Points       =             75
    Spherical Points    =            302
    Total Points        =         397057
    Total Blocks        =           3004
    Max Points          =            256
    Max Functions       =            149

   => -D3ZERO: Empirical Dispersion <=

    Grimme's -D3 (zero-damping) Dispersion Correction
    Grimme S.; Antony J.; Ehrlich S.; Krieg H. (2010), J. Chem. Phys., 132: 154104

        S6 =   1.000000E+00
        S8 =   1.703000E+00
       SR6 =   1.261000E+00
       SR8 =   1.000000E+00
    ALPHA6 =   1.400000E+01

   => Loading Basis Set <=

    Name: (6-31G* AUX)
    Role: JKFIT
    Keyword: DF_BASIS_SCF
    atoms 1-7         entry C          line   121 file /shared/joao/test_parameterize/miniconda3/share/psi4/basis/cc-pvdz-jkfit.gbs 
    atoms 8-12, 15-18 entry H          line    51 file /shared/joao/test_parameterize/miniconda3/share/psi4/basis/cc-pvdz-jkfit.gbs 
    atoms 13-14       entry N          line   171 file /shared/joao/test_parameterize/miniconda3/share/psi4/basis/cc-pvdz-jkfit.gbs 

  Reading orbitals from file 180, no projection.

  ==> Pre-Iterations <==

   -------------------------------------------------------
    Irrep   Nso     Nmo     Nalpha   Nbeta   Ndocc  Nsocc
   -------------------------------------------------------
     A        153     153       0       0       0       0
   -------------------------------------------------------
    Total     153     153      32      32      32       0
   -------------------------------------------------------

  ==> Integral Setup <==

  ==> DiskDFJK: Density-Fitted J/K Matrices <==

    J tasked:                  Yes
    K tasked:                  Yes
    wK tasked:                  No
    OpenMP threads:              4
    Integrals threads:           4
    Memory (MB):              2002
    Algorithm:                Core
    Integral Cache:           NONE
    Schwarz Cutoff:          1E-12
    Fitting Condition:       1E-12

   => Auxiliary Basis Set <=

  Basis Set: (6-31G* AUX)
    Blend: CC-PVDZ-JKFIT
    Number of shells: 297
    Number of basis function: 954
    Number of Cartesian functions: 954
    Spherical Harmonics?: false
    Max angular momentum: 3

  Minimum eigenvalue in the overlap matrix is 4.8918662692E-04.
  Using Symmetric Orthogonalization.

  SCF Guess: Orbitals guess was supplied from a previous computation.

  ==> Iterations <==

                           Total Energy        Delta E     RMS |[F,P]|

   @DF-RKS iter   0:  -381.45583614278030   -3.81456e+02   1.82062e-03 
   @DF-RKS iter   1:  -381.46942299962814   -1.35869e-02   1.64589e-04 
   @DF-RKS iter   2:  -381.46941810440302    4.89523e-06   2.11413e-04 DIIS
   @DF-RKS iter   3:  -381.46954631069843   -1.28206e-04   5.13200e-05 DIIS
   @DF-RKS iter   4:  -381.46955333078301   -7.02008e-06   2.35161e-05 DIIS
   @DF-RKS iter   5:  -381.46955483411926   -1.50334e-06   6.99006e-06 DIIS
   @DF-RKS iter   6:  -381.46955497042717   -1.36308e-07   2.51907e-06 DIIS
   @DF-RKS iter   7:  -381.46955498783757   -1.74104e-08   5.80063e-07 DIIS
   @DF-RKS iter   8:  -381.46955498874451   -9.06937e-10   1.81299e-07 DIIS
   @DF-RKS iter   9:  -381.46955498884216   -9.76570e-11   3.74724e-08 DIIS
   @DF-RKS iter  10:  -381.46955498884506   -2.89901e-12   1.43226e-08 DIIS
   @DF-RKS iter  11:  -381.46955498884626   -1.19371e-12   4.59516e-09 DIIS

  ==> Post-Iterations <==

    Orbital Energies [Eh]
    ---------------------

    Doubly Occupied:                                                      

       1A    -14.570371     2A    -14.569864     3A    -10.498191  
       4A    -10.371553     5A    -10.354791     6A    -10.354214  
       7A    -10.340973     8A    -10.339061     9A    -10.338964  
      10A     -1.183981    11A     -1.092949    12A     -1.012860  
      13A     -0.925519    14A     -0.900407    15A     -0.844525  
      16A     -0.785285    17A     -0.771412    18A     -0.744522  
      19A     -0.730770    20A     -0.688667    21A     -0.668388  
      22A     -0.622919    23A     -0.619078    24A     -0.583184  
      25A     -0.577357    26A     -0.571263    27A     -0.517828  
      28A     -0.503350    29A     -0.496539    30A     -0.474034  
      31A     -0.410127    32A     -0.404029  

    Virtual:                                                              

      33A     -0.212483    34A     -0.156069    35A     -0.137101  
      36A     -0.108531    37A     -0.066591    38A     -0.062543  
      39A     -0.038810    40A     -0.033816    41A      0.007258  
      42A      0.016313    43A      0.021505    44A      0.054940  
      45A      0.061640    46A      0.080893    47A      0.131308  
      48A      0.149326    49A      0.157766    50A      0.159223  
      51A      0.200645    52A      0.239371    53A      0.296698  
      54A      0.347582    55A      0.356612    56A      0.382403  
      57A      0.386814    58A      0.397932    59A      0.418720  
      60A      0.423860    61A      0.444728    62A      0.447308  
      63A      0.451537    64A      0.470491    65A      0.472622  
      66A      0.477050    67A      0.486275    68A      0.511550  
      69A      0.518042    70A      0.537130    71A      0.540267  
      72A      0.581900    73A      0.602200    74A      0.649134  
      75A      0.658336    76A      0.682287    77A      0.685017  
      78A      0.704585    79A      0.711131    80A      0.712618  
      81A      0.731543    82A      0.758037    83A      0.775732  
      84A      0.798662    85A      0.810436    86A      0.831177  
      87A      0.850237    88A      0.941003    89A      0.965082  
      90A      0.987707    91A      1.009324    92A      1.025659  
      93A      1.048237    94A      1.077406    95A      1.151578  
      96A      1.167559    97A      1.224764    98A      1.272129  
      99A      1.295583   100A      1.310289   101A      1.320434  
     102A      1.341595   103A      1.358102   104A      1.375428  
     105A      1.445222   106A      1.454408   107A      1.470495  
     108A      1.602267   109A      1.629280   110A      1.654060  
     111A      1.667924   112A      1.737350   113A      1.756903  
     114A      1.793612   115A      1.826745   116A      1.855525  
     117A      1.898142   118A      1.909428   119A      1.963414  
     120A      1.976690   121A      1.998008   122A      2.012732  
     123A      2.044449   124A      2.068713   125A      2.121678  
     126A      2.133152   127A      2.154109   128A      2.202837  
     129A      2.223598   130A      2.261227   131A      2.363733  
     132A      2.370330   133A      2.430083   134A      2.454933  
     135A      2.491388   136A      2.535847   137A      2.557337  
     138A      2.588625   139A      2.603023   140A      2.630146  
     141A      2.735184   142A      2.882881   143A      2.969244  
     144A      3.258423   145A      3.634585   146A      3.651507  
     147A      3.922559   148A      3.952160   149A      3.966785  
     150A      4.064570   151A      4.179149   152A      4.258447  
     153A      4.547215  

    Final Occupation by Irrep:
              A 
    DOCC [    32 ]

  Energy converged.

  @DF-RKS Final Energy:  -381.46955498884626

   => Energetics <=

    Nuclear Repulsion Energy =            416.8172843914172176
    One-Electron Energy =               -1328.8957607127820211
    Two-Electron Energy =                 575.0210269045953737
    DFT Exchange-Correlation Energy =     -44.4001074720767193
    Empirical Dispersion Energy =          -0.0119981000000000
    VV10 Nonlocal Energy =                  0.0000000000000000
    Total Energy =                       -381.4695549888462551



Properties will be evaluated at   0.000000,   0.000000,   0.000000 [a0]

Properties computed using the SCF density matrix

  Nuclear Dipole Moment: [e a0]
     X:     0.9143      Y:    -0.4406      Z:    -0.1128

  Electronic Dipole Moment: [e a0]
     X:    -0.9444      Y:     0.4595      Z:    -2.2020

  Dipole Moment: [e a0]
     X:    -0.0301      Y:     0.0189      Z:    -2.3148     Total:     2.3150

  Dipole Moment: [D]
     X:    -0.0765      Y:     0.0480      Z:    -5.8836     Total:     5.8842


*** tstop() called on arancio.prib.upf.edu at Sat Sep 29 20:43:47 2018
Module time:
	user time   =      73.35 seconds =       1.22 minutes
	system time =       0.37 seconds =       0.01 minutes
	total time  =         21 seconds =       0.35 minutes
Total time:
	user time   =     192.69 seconds =       3.21 minutes
	system time =       1.19 seconds =       0.02 minutes
	total time  =         54 seconds =       0.90 minutes

*** tstart() called on arancio.prib.upf.edu
*** at Sat Sep 29 20:43:47 2018


         ------------------------------------------------------------
                                   SCF GRAD                          
                          Rob Parrish, Justin Turney,                
                       Andy Simmonett, and Alex Sokolov              
         ------------------------------------------------------------

  ==> Geometry <==

    Molecular point group: c1
    Full point group: C1

    Geometry (in Angstrom), charge = 1, multiplicity = 1:

       Center              X                  Y                   Z               Mass       
    ------------   -----------------  -----------------  -----------------  -----------------
         C            0.052463791472    -0.014533624405    -0.178796298378    12.000000000000
         C            0.087031859373     1.209188510600     0.512282652715    12.000000000000
         C            0.052382590927     1.209003242135     1.904205561085    12.000000000000
         C           -0.014894412257    -0.000601402343     2.603797654566    12.000000000000
         C           -0.064385412604    -1.216701065079     1.914733125471    12.000000000000
         C           -0.047458247132    -1.230301077748     0.522686939936    12.000000000000
         C            0.032433900575    -0.020189208782    -1.645908688674    12.000000000000
         H            0.113822878948     2.148447391090    -0.035354900969     1.007825032070
         H            0.072253272537     2.151200114263     2.442344727376     1.007825032070
         H           -0.037071734185     0.004690124568     3.689478572086     1.007825032070
         H           -0.118683044919    -2.153469881153     2.461601274232     1.007825032070
         H           -0.076472211861    -2.175225454359    -0.015017124130     1.007825032070
         N           -0.877312176560    -0.747617338422    -2.285366114584    14.003074004780
         N            0.876638905135     0.762207538860    -2.315582729131    14.003074004780
         H            0.835238452078     0.891776133405    -3.320925322367     1.007825032070
         H            1.628883510463     1.229269650332    -1.820851294871     1.007825032070
         H           -1.611907574661    -1.207312305337    -1.756688410310     1.007825032070
         H           -0.902964347329    -0.839832347624    -3.295639624053     1.007825032070

  Nuclear repulsion =  416.817284391417218

  ==> Basis Set <==

  Basis Set: 6-31G*
    Blend: 6-31G*
    Number of shells: 72
    Number of basis function: 153
    Number of Cartesian functions: 153
    Spherical Harmonics?: false
    Max angular momentum: 2

  ==> DFJKGrad: Density-Fitted SCF Gradients <==

    Gradient:                    1
    J tasked:                  Yes
    K tasked:                  Yes
    wK tasked:                  No
    OpenMP threads:              4
    Integrals threads:           4
    Memory (MB):              2002
    Schwarz Cutoff:          0E+00
    Fitting Condition:       1E-12

   => Auxiliary Basis Set <=

  Basis Set: (6-31G* AUX)
    Blend: CC-PVDZ-JKFIT
    Number of shells: 297
    Number of basis function: 954
    Number of Cartesian functions: 954
    Spherical Harmonics?: false
    Max angular momentum: 3

  ==> DFT Potential <==

   => Composite Functional: B3LYP-D3ZERO <= 

    B3LYP-d3zero Hyb-GGA Exchange-Correlation Functional

    P. J. Stephens, F. J. Devlin, C. F. Chabalowski, and M. J. Frisch, J. Phys. Chem. 98, 11623 (1994)

    Deriv               =              1
    GGA                 =           TRUE
    Meta                =          FALSE

    Exchange Hybrid     =           TRUE
    MP2 Hybrid          =          FALSE

   => Exchange Functionals <=

    0.0800   Slater exchange
    0.7200         Becke 88

   => Exact (HF) Exchange <=

    0.2000               HF 

   => Correlation Functionals <=

    0.1900   Vosko, Wilk & Nusair (VWN5_RPA)
    0.8100   Lee, Yang & Parr

   => Molecular Quadrature <=

    Radial Scheme       =       TREUTLER
    Pruning Scheme      =           FLAT
    Nuclear Scheme      =       TREUTLER

    BS radius alpha     =              1
    Pruning alpha       =              1
    Radial Points       =             75
    Spherical Points    =            302
    Total Points        =         397057
    Total Blocks        =           3004
    Max Points          =            256
    Max Functions       =            149


  -Total Gradient:
     Atom            X                  Y                   Z
    ------   -----------------  -----------------  -----------------
       1        0.003660700566     0.003121558063    -0.001123797206
       2       -0.003822127908    -0.000501389576     0.000207824343
       3       -0.000273338382     0.000382620533    -0.000173863460
       4        0.000170891448    -0.000408414611     0.000386749014
       5        0.000506965479     0.000511865292     0.000013667379
       6        0.000089580198    -0.000278699083    -0.000251301170
       7        0.002112328495    -0.008350598740     0.001968918475
       8        0.000125872510     0.000636551633    -0.000631643387
       9        0.000233751477     0.000056817556    -0.000060277621
      10       -0.000099551588    -0.000065688135     0.000199705965
      11       -0.000188760092    -0.000559818940     0.000211040334
      12       -0.000690073745    -0.000667161454    -0.000342721884
      13       -0.001058383777     0.003213105425    -0.000034134202
      14        0.000130447127     0.001690162459    -0.000903471884
      15        0.000091920247     0.000348690306    -0.000668152276
      16        0.001431180431     0.001494608793     0.000631915918
      17       -0.002381530146    -0.000791031812     0.001466175645
      18       -0.000048736096     0.000164125480    -0.000914120018


*** tstop() called on arancio.prib.upf.edu at Sat Sep 29 20:43:54 2018
Module time:
	user time   =      27.97 seconds =       0.47 minutes
	system time =       0.18 seconds =       0.00 minutes
	total time  =          7 seconds =       0.12 minutes
Total time:
	user time   =     220.72 seconds =       3.68 minutes
	system time =       1.38 seconds =       0.02 minutes
	total time  =         61 seconds =       1.02 minutes

			-----------------------------------------
			 OPTKING 2.0: for geometry optimizations 
			  - R.A. King,  Bethel University        
			-----------------------------------------
	At level 1: Red. Int., RFO, no backsteps, dynamic trust

	Previous internal coordinate definitions found.
	---Fragment 1 Geometry and Gradient---
	 C           0.0991421978       -0.0274645698       -0.3378760375
	 C           0.1644663791        2.2850351281        0.9680739163
	 C           0.0989887510        2.2846850214        3.5984270112
	 C          -0.0281463601       -0.0011364857        4.9204644726
	 C          -0.1216707968       -2.2992317986        3.6183212247
	 C          -0.0896830898       -2.3249320979        0.9877351697
	 C           0.0612911895       -0.0381520754       -3.1103166613
	 H           0.2150940689        4.0599771801       -0.0668110803
	 H           0.1365388973        4.0651790730        4.6153626568
	 H          -0.0700554249        0.0088630510        6.9721040744
	 H          -0.2242784515       -4.0694683108        4.6517522567
	 H          -0.1445115372       -4.1105803860       -0.0283782519
	 N          -1.6578797467       -1.4127920218       -4.3187160699
	 N           1.6566074481        1.4403635049       -4.3758171961
	 H           1.5783719301        1.6852126640       -6.2756393670
	 H           3.0781437371        2.3229829826       -3.4409102760
	 H          -3.0460638676       -2.2814896139       -3.3196599963
	 H          -1.7063553242       -1.5870531345       -6.2278563221
	             0.0036607006        0.0031215581       -0.0011237972
	            -0.0038221279       -0.0005013896        0.0002078243
	            -0.0002733384        0.0003826205       -0.0001738635
	             0.0001708914       -0.0004084146        0.0003867490
	             0.0005069655        0.0005118653        0.0000136674
	             0.0000895802       -0.0002786991       -0.0002513012
	             0.0021123285       -0.0083505987        0.0019689185
	             0.0001258725        0.0006365516       -0.0006316434
	             0.0002337515        0.0000568176       -0.0000602776
	            -0.0000995516       -0.0000656881        0.0001997060
	            -0.0001887601       -0.0005598189        0.0002110403
	            -0.0006900737       -0.0006671615       -0.0003427219
	            -0.0010583838        0.0032131054       -0.0000341342
	             0.0001304471        0.0016901625       -0.0009034719
	             0.0000919202        0.0003486903       -0.0006681523
	             0.0014311804        0.0014946088        0.0006319159
	            -0.0023815301       -0.0007910318        0.0014661756
	            -0.0000487361        0.0001641255       -0.0009141200

	---Fragment 1 Intrafragment Coordinates---
	 - Coordinate -           - BOHR/RAD -       - ANG/DEG -
	 R(1,2)           =         2.656582	       1.405803
	 R(1,6)           =         2.659184	       1.407179
	 R(1,7)           =         2.772720	       1.467260
	 R(2,3)           =         2.631168	       1.392354
	 R(2,8)           =         2.055230	       1.087581
	 R(3,4)           =         2.643658	       1.398963
	 R(3,9)           =         2.050787	       1.085230
	 R(4,5)           =         2.643022	       1.398627
	 R(4,10)          =         2.052092	       1.085920
	 R(5,6)           =         2.630906	       1.392216
	 R(5,11)          =         2.052376	       1.086070
	 R(6,12)          =         2.055245	       1.087589
	 R(7,13)          =         2.511058	       1.328795
	 R(7,14)          =         2.516453	       1.331649
	 R(13,17)         =         1.918281	       1.015111
	 R(13,18)         =         1.917690	       1.014798
	 R(14,15)         =         1.917132	       1.014503
	 R(14,16)         =         1.916725	       1.014287
	 B(1,2,3)         =         2.083701	     119.387280
	 B(1,2,8)         =         2.099989	     120.320528
	 B(1,6,5)         =         2.083880	     119.397515
	 B(1,6,12)        =         2.101427	     120.402886
	 B(1,7,13)        =         2.085916	     119.514184
	 B(1,7,14)        =         2.085091	     119.466930
	 B(2,1,6)         =         2.104539	     120.581202
	 B(2,1,7)         =         2.088898	     119.685038
	 B(2,3,4)         =         2.095823	     120.081796
	 B(2,3,9)         =         2.088805	     119.679712
	 B(3,2,8)         =         2.099147	     120.272247
	 B(3,4,5)         =         2.102648	     120.472865
	 B(3,4,10)        =         2.090632	     119.784390
	 B(4,3,9)         =         2.098542	     120.237622
	 B(4,5,6)         =         2.095176	     120.044714
	 B(4,5,11)        =         2.098627	     120.242474
	 B(5,4,10)        =         2.089872	     119.740844
	 B(5,6,12)        =         2.097288	     120.165725
	 B(6,1,7)         =         2.087657	     119.613938
	 B(6,5,11)        =         2.089380	     119.712627
	 B(7,13,17)       =         2.086014	     119.519824
	 B(7,13,18)       =         2.148543	     123.102447
	 B(7,14,15)       =         2.150191	     123.196876
	 B(7,14,16)       =         2.089129	     119.698255
	 B(13,7,14)       =         2.110245	     120.908156
	 B(15,14,16)      =         2.042959	     117.052909
	 B(17,13,18)      =         2.047713	     117.325336
	 D(1,2,3,4)       =         0.001076	       0.061651
	 D(1,2,3,9)       =        -3.134607	    -179.599755
	 D(1,6,5,4)       =         0.026796	       1.535306
	 D(1,6,5,11)      =        -3.117514	    -178.620389
	 D(1,7,13,17)     =         0.119473	       6.845305
	 D(1,7,13,18)     =        -3.069330	    -175.859648
	 D(1,7,14,15)     =        -3.003397	    -172.081980
	 D(1,7,14,16)     =         0.185336	      10.618947
	 D(2,1,6,5)       =        -0.039556	      -2.266382
	 D(2,1,6,12)      =         3.138920	     179.846854
	*D(2,1,7,13)      =        -2.268928	    -130.000000
	 D(2,1,7,14)      =         0.806513	      46.209774
	 D(2,3,4,5)       =        -0.013678	      -0.783695
	 D(2,3,4,10)      =         3.136691	     179.719184
	 D(3,2,1,6)       =         0.025588	       1.466110
	 D(3,2,1,7)       =         3.097461	     177.471470
	 D(3,4,5,6)       =        -0.000465	      -0.026657
	 D(3,4,5,11)      =        -3.139326	    -179.870130
	 D(4,3,2,8)       =         3.114409	     178.442505
	 D(4,5,6,12)      =         3.131595	     179.427175
	 D(5,4,3,9)       =         3.121972	     178.875806
	 D(5,6,1,7)       =        -3.111478	    -178.274567
	 D(6,1,2,8)       =        -3.087731	    -176.913946
	 D(6,1,7,13)      =         0.803625	      46.044321
	 D(6,1,7,14)      =        -2.404120	    -137.745905
	 D(6,5,4,10)      =         3.132354	     179.470682
	 D(7,1,2,8)       =        -0.015858	      -0.908586
	 D(7,1,6,12)      =         0.066997	       3.838668
	 D(8,2,3,9)       =        -0.021274	      -1.218901
	 D(9,3,4,10)      =        -0.010844	      -0.621315
	 D(10,4,5,11)     =        -0.006506	      -0.372790
	 D(11,5,6,12)     =        -0.012715	      -0.728520
	 D(13,7,14,15)    =         0.071098	       4.073634
	 D(13,7,14,16)    =        -3.023354	    -173.225439
	 D(14,7,13,17)    =        -2.954991	    -169.308512
	 D(14,7,13,18)    =         0.139391	       7.986534

	Current energy   :      -381.4695549888

	Energy change for the previous step:
		Projected    :        -0.0017466602
		Actual       :        -0.0003398226
	Energy ratio indicates iffy step: Trust radius decreased to 1.250e-01.


	Performing BFGS update.
	Previous computed or guess Hessian on step 1.
	Steps to be used in Hessian update: 1
	Taking RFO optimization step.
	Going to follow RFO solution 1.
	Using RFO vector 1.
	Norm of target step-size    0.08191
	Projected energy change by RFO approximation:        -0.0002483709

	Back-transformation to cartesian coordinates...
	Could not converge backtransformation.
	Using first guess instead.

	Back-transformation to cartesian coordinates to adjust frozen coordinates...
	Successfully converged to displaced geometry.

	--- Internal Coordinate Step in ANG or DEG, aJ/ANG or AJ/DEG ---
	 ---------------------------------------------------------------------------
	   Coordinate                Previous        Force       Change         New 
	   ----------                --------       ------       ------       ------
	    1 R(1,2)          =      1.405803     0.002316     0.000137     1.405940
	    2 R(1,6)          =      1.407179    -0.004710    -0.000859     1.406320
	    3 R(1,7)          =      1.467260     0.012763     0.001675     1.468935
	    4 R(2,3)          =      1.392354    -0.001956    -0.000189     1.392165
	    5 R(2,8)          =      1.087581    -0.007171    -0.001118     1.086463
	    6 R(3,4)          =      1.398963    -0.006829    -0.000784     1.398179
	    7 R(3,9)          =      1.085230    -0.000199    -0.000001     1.085228
	    8 R(4,5)          =      1.398627    -0.002015    -0.000221     1.398406
	    9 R(4,10)         =      1.085920    -0.001667    -0.000260     1.085660
	   10 R(5,6)          =      1.392216    -0.002805    -0.000257     1.391959
	   11 R(5,11)         =      1.086070    -0.004935    -0.000781     1.085290
	   12 R(6,12)         =      1.087589    -0.006319    -0.000942     1.086646
	   13 R(7,13)         =      1.328795    -0.005925    -0.000642     1.328152
	   14 R(7,14)         =      1.331649    -0.029644    -0.002762     1.328888
	   15 R(13,17)        =      1.015111    -0.023434    -0.002860     1.012251
	   16 R(13,18)        =      1.014798    -0.007380    -0.000821     1.013977
	   17 R(14,15)        =      1.014503    -0.005779    -0.000597     1.013906
	   18 R(14,16)        =      1.014287    -0.016971    -0.001851     1.012436
	   19 B(1,2,3)        =    119.387280     0.000014     0.019741   119.407021
	   20 B(1,2,8)        =    120.320528     0.000011     0.025016   120.345544
	   21 B(1,6,5)        =    119.397515     0.000020     0.027984   119.425499
	   22 B(1,6,12)       =    120.402886    -0.000016    -0.077520   120.325367
	   23 B(1,7,13)       =    119.514184     0.000054     0.112551   119.626735
	   24 B(1,7,14)       =    119.466930     0.000050     0.096190   119.563120
	   25 B(2,1,6)        =    120.581202    -0.000033    -0.028796   120.552406
	   26 B(2,1,7)        =    119.685038    -0.000022    -0.082223   119.602815
	   27 B(2,3,4)        =    120.081796    -0.000003    -0.012146   120.069649
	   28 B(2,3,9)        =    119.679712     0.000009     0.028912   119.708624
	   29 B(3,2,8)        =    120.272247    -0.000025    -0.054468   120.217779
	   30 B(3,4,5)        =    120.472865     0.000006     0.009381   120.482246
	   31 B(3,4,10)       =    119.784390    -0.000008    -0.026896   119.757494
	   32 B(4,3,9)        =    120.237622    -0.000005    -0.018403   120.219219
	   33 B(4,5,6)        =    120.044714    -0.000002    -0.005713   120.039001
	   34 B(4,5,11)       =    120.242474    -0.000007    -0.019387   120.223087
	   35 B(5,4,10)       =    119.740844     0.000003     0.018902   119.759746
	   36 B(5,6,12)       =    120.165725    -0.000005     0.037991   120.203716
	   37 B(6,1,7)        =    119.613938     0.000055     0.102229   119.716167
	   38 B(6,5,11)       =    119.712627     0.000009     0.025164   119.737791
	   39 B(7,13,17)      =    119.519824    -0.000001    -0.009534   119.510291
	   40 B(7,13,18)      =    123.102447     0.000011     0.075436   123.177884
	   41 B(7,14,15)      =    123.196876    -0.000001     0.001476   123.198351
	   42 B(7,14,16)      =    119.698255    -0.000038    -0.180036   119.518219
	   43 B(13,7,14)      =    120.908156    -0.000101    -0.124251   120.783905
	   44 B(15,14,16)     =    117.052909     0.000037     0.145142   117.198051
	   45 B(17,13,18)     =    117.325336    -0.000008    -0.024356   117.300980
	   46 D(1,2,3,4)      =      0.061651     0.000001     0.158829     0.220480
	   47 D(1,2,3,9)      =   -179.599755     0.000003     0.395002  -179.204753
	   48 D(1,6,5,4)      =      1.535306    -0.000001    -0.109869     1.425437
	   49 D(1,6,5,11)     =   -178.620389     0.000001     0.171927  -178.448461
	   50 D(1,7,13,17)    =      6.845305    -0.000001    -0.172316     6.672989
	   51 D(1,7,13,18)    =   -175.859648     0.000011     1.301303  -174.558345
	   52 D(1,7,14,15)    =   -172.081980    -0.000010    -1.211111  -173.293090
	   53 D(1,7,14,16)    =     10.618947    -0.000002    -0.455220    10.163727
	   54 D(2,1,6,5)      =     -2.266382     0.000004     0.397850    -1.868531
	   55 D(2,1,6,12)     =    179.846854     0.000007     0.730483   180.577337
	   56 *D(2,1,7,13)    =   -130.000000     0.000000    -0.000000  -130.000000
	   57 D(2,1,7,14)     =     46.209774     0.000014     1.941897    48.151670
	   58 D(2,3,4,5)      =     -0.783695     0.000001     0.125724    -0.657971
	   59 D(2,3,4,10)     =    179.719184    -0.000001    -0.115663   179.603522
	   60 D(3,2,1,6)      =      1.466110    -0.000004    -0.422045     1.044065
	   61 D(3,2,1,7)      =    177.471470    -0.000003    -0.561522   176.909948
	   62 D(3,4,5,6)      =     -0.026657    -0.000001    -0.149780    -0.176437
	   63 D(3,4,5,11)     =   -179.870130    -0.000004    -0.433027  -180.303157
	   64 D(4,3,2,8)      =    178.442505    -0.000002    -0.195758   178.246747
	   65 D(4,5,6,12)     =    179.427175    -0.000005    -0.444576   178.982599
	   66 D(5,4,3,9)      =    178.875806    -0.000001    -0.111505   178.764301
	   67 D(5,6,1,7)      =   -178.274567     0.000004     0.544821  -177.729746
	   68 D(6,1,2,8)      =   -176.913946    -0.000000    -0.065683  -176.979629
	   69 D(6,1,7,13)     =     46.044321     0.000000    -0.143500    45.900821
	   70 D(6,1,7,14)     =   -137.745905     0.000015     1.798396  -135.947509
	   71 D(6,5,4,10)     =    179.470682     0.000001     0.091382   179.562065
	   72 D(7,1,2,8)      =     -0.908586     0.000001    -0.205160    -1.113746
	   73 D(7,1,6,12)     =      3.838668     0.000007     0.877453     4.716122
	   74 D(8,2,3,9)      =     -1.218901    -0.000000     0.040415    -1.178486
	   75 D(9,3,4,10)     =     -0.621315    -0.000003    -0.352891    -0.974206
	   76 D(10,4,5,11)    =     -0.372790    -0.000002    -0.191865    -0.564655
	   77 D(11,5,6,12)    =     -0.728520    -0.000002    -0.162779    -0.891299
	   78 D(13,7,14,15)   =      4.073634     0.000006     0.763078     4.836712
	   79 D(13,7,14,16)   =   -173.225439     0.000014     1.518969  -171.706470
	   80 D(14,7,13,17)   =   -169.308512    -0.000017    -2.147121  -171.455633
	   81 D(14,7,13,18)   =      7.986534    -0.000005    -0.673502     7.313032
	 ---------------------------------------------------------------------------
	Successfully symmetrized geometry.

  ==> Convergence Check <==

  Measures of convergence in internal coordinates in au.
  Criteria marked as inactive (o), active & met (*), and active & unmet ( ).
  ---------------------------------------------------------------------------------------------
   Step     Total Energy     Delta E     MAX Force     RMS Force      MAX Disp      RMS Disp   
  ---------------------------------------------------------------------------------------------
    Convergence Criteria    1.00e-06 *    3.00e-04 *             o    1.20e-03 *             o
  ---------------------------------------------------------------------------------------------
      2    -381.46955499   -3.40e-04      3.60e-03      7.17e-04 o    3.75e-02      9.10e-03 o  ~
  ---------------------------------------------------------------------------------------------

	Writing optimization data to binary file.
	Structure for next step:
	Cartesian Geometry (in Angstrom)
	    C     0.0505857242  -0.0078677201  -0.1778741668
	    C     0.0836890100   1.2137936512   0.5171898243
	    C     0.0467694139   1.2096826973   1.9088591667
	    C    -0.0179484102  -0.0015044797   2.6043749995
	    C    -0.0599743791  -1.2157442652   1.9119918770
	    C    -0.0412168618  -1.2252468130   0.5201921274
	    C     0.0204862457  -0.0065648231  -1.6464997026
	    H     0.1052793838   2.1542097517  -0.0264580713
	    H     0.0590013928   2.1502983548   2.4499815312
	    H    -0.0399987134   0.0009396223   3.6898081902
	    H    -0.1052146586  -2.1536464911   2.4561849372
	    H    -0.0571056631  -2.1677966921  -0.0203148768
	    N    -0.8885433522  -0.7343615359  -2.2852218057
	    N     0.8797067532   0.7518049679  -2.3192239881
	    H     0.8448272191   0.8715433540  -3.3254305296
	    H     1.6426088420   1.1989126657  -1.8261712123
	    H    -1.6143174699  -1.2017270035  -1.7565701323
	    H    -0.9086344763  -0.8367262413  -3.2938181680
			--------------------------
			 OPTKING Finished Execution 
			--------------------------

    Structure for next step:
    Molecular point group: c1
    Full point group: C1

    Geometry (in Angstrom), charge = 1, multiplicity = 1:

    C            0.050585724239    -0.007867720148    -0.177874166789
    C            0.083689010040     1.213793651206     0.517189824348
    C            0.046769413944     1.209682697330     1.908859166711
    C           -0.017948410202    -0.001504479696     2.604374999498
    C           -0.059974379123    -1.215744265213     1.911991877031
    C           -0.041216861827    -1.225246813015     0.520192127405
    C            0.020486245662    -0.006564823135    -1.646499702634
    H            0.105279383802     2.154209751672    -0.026458071327
    H            0.059001392814     2.150298354849     2.449981531238
    H           -0.039998713413     0.000939622346     3.689808190241
    H           -0.105214658647    -2.153646491116     2.456184937218
    H           -0.057105663088    -2.167796692114    -0.020314876825
    N           -0.888543352225    -0.734361535858    -2.285221805734
    N            0.879706753166     0.751804967924    -2.319223988140
    H            0.844827219076     0.871543353983    -3.325430529571
    H            1.642608841987     1.198912665729    -1.826171212318
    H           -1.614317469943    -1.201727003490    -1.756570132335
    H           -0.908634476261    -0.836726241254    -3.293818168017

gradient() will perform analytic gradient computation.

*** tstart() called on arancio.prib.upf.edu
*** at Sat Sep 29 20:43:54 2018

   => Loading Basis Set <=

    Name: 6-31G*
    Role: ORBITAL
    Keyword: BASIS
    atoms 1-7         entry C          line   111 file /shared/joao/test_parameterize/miniconda3/share/psi4/basis/6-31gs.gbs 
    atoms 8-12, 15-18 entry H          line    44 file /shared/joao/test_parameterize/miniconda3/share/psi4/basis/6-31gs.gbs 
    atoms 13-14       entry N          line   128 file /shared/joao/test_parameterize/miniconda3/share/psi4/basis/6-31gs.gbs 


         ---------------------------------------------------------
                                   SCF
            by Justin Turney, Rob Parrish, Andy Simmonett
                             and Daniel Smith
                              RKS Reference
                        4 Threads,   2861 MiB Core
         ---------------------------------------------------------

  ==> Geometry <==

    Molecular point group: c1
    Full point group: C1

    Geometry (in Angstrom), charge = 1, multiplicity = 1:

[...]
	            -0.0000003862       -0.0000060049       -0.0000013030
	            -0.0000074711        0.0000005868        0.0000003516
	            -0.0000044667        0.0000036625       -0.0000010992

	---Fragment 1 Intrafragment Coordinates---
	 - Coordinate -           - BOHR/RAD -       - ANG/DEG -
	 R(1,2)           =         2.656962	       1.406004
	 R(1,6)           =         2.657097	       1.406075
	 R(1,7)           =         2.777532	       1.469807
	 R(2,3)           =         2.631022	       1.392277
	 R(2,8)           =         2.052917	       1.086357
	 R(3,4)           =         2.641898	       1.398032
	 R(3,9)           =         2.050735	       1.085202
	 R(4,5)           =         2.642651	       1.398431
	 R(4,10)          =         2.051591	       1.085655
	 R(5,6)           =         2.630336	       1.391914
	 R(5,11)          =         2.050718	       1.085193
	 R(6,12)          =         2.053304	       1.086561
	 R(7,13)          =         2.509711	       1.328082
	 R(7,14)          =         2.510085	       1.328280
	 R(13,17)         =         1.912345	       1.011969
	 R(13,18)         =         1.915785	       1.013790
	 R(14,15)         =         1.915677	       1.013732
	 R(14,16)         =         1.912432	       1.012015
	 B(1,2,3)         =         2.083912	     119.399391
	 B(1,2,8)         =         2.101177	     120.388576
	 B(1,6,5)         =         2.084477	     119.431756
	 B(1,6,12)        =         2.100369	     120.342255
	 B(1,7,13)        =         2.086885	     119.569699
	 B(1,7,14)        =         2.087020	     119.577424
	 B(2,1,6)         =         2.104198	     120.561659
	 B(2,1,7)         =         2.085960	     119.516719
	 B(2,3,4)         =         2.095510	     120.063883
	 B(2,3,9)         =         2.089474	     119.718041
	 B(3,2,8)         =         2.097571	     120.181988
	 B(3,4,5)         =         2.103011	     120.493662
	 B(3,4,10)        =         2.090131	     119.755708
	 B(4,3,9)         =         2.098156	     120.215510
	 B(4,5,6)         =         2.094936	     120.031008
	 B(4,5,11)        =         2.098099	     120.212245
	 B(5,4,10)        =         2.090037	     119.750271
	 B(5,6,12)        =         2.097439	     120.174413
	 B(6,1,7)         =         2.091350	     119.825512
	 B(6,5,11)        =         2.090145	     119.756470
	 B(7,13,17)       =         2.086142	     119.527135
	 B(7,13,18)       =         2.149934	     123.182160
	 B(7,14,15)       =         2.150152	     123.194650
	 B(7,14,16)       =         2.085666	     119.499867
	 B(13,7,14)       =         2.108582	     120.812848
	 B(15,14,16)      =         2.046243	     117.241060
	 B(17,13,18)      =         2.047092	     117.289738
	 D(1,2,3,4)       =         0.003734	       0.213915
	 D(1,2,3,9)       =        -3.127710	    -179.204596
	 D(1,6,5,4)       =         0.022931	       1.313831
	 D(1,6,5,11)      =        -3.115329	    -178.495183
	 D(1,7,13,17)     =         0.103389	       5.923756
	 D(1,7,13,18)     =        -3.044623	    -174.444045
	 D(1,7,14,15)     =        -3.020959	    -173.088197
	 D(1,7,14,16)     =         0.173026	       9.913656
	 D(2,1,6,5)       =        -0.028525	      -1.634344
	 D(2,1,6,12)      =        -3.124615	    -179.027249
	*D(2,1,7,13)      =        -2.268928	    -130.000000
	 D(2,1,7,14)      =         0.832835	      47.717958
	 D(2,3,4,5)       =        -0.009238	      -0.529299
	 D(2,3,4,10)      =         3.136165	     179.689036
	 D(3,2,1,6)       =         0.015167	       0.868980
	 D(3,2,1,7)       =         3.094441	     177.298428
	 D(3,4,5,6)       =        -0.004277	      -0.245058
	 D(3,4,5,11)      =         3.133967	     179.563077
	 D(4,3,2,8)       =         3.110668	     178.228144
	 D(4,5,6,12)      =         3.119099	     178.711191
	 D(5,4,3,9)       =         3.122155	     178.886293
	 D(5,6,1,7)       =        -3.107608	    -178.052796
	 D(6,1,2,8)       =        -3.091695	    -177.141062
	 D(6,1,7,13)      =         0.810811	      46.456075
	 D(6,1,7,14)      =        -2.370610	    -135.825966
	 D(6,5,4,10)      =         3.133505	     179.536619
	 D(7,1,2,8)       =        -0.012420	      -0.711614
	 D(7,1,6,12)      =         0.079487	       4.554298
	 D(8,2,3,9)       =        -0.020776	      -1.190366
	 D(9,3,4,10)      =        -0.015627	      -0.895372
	 D(10,4,5,11)     =        -0.011436	      -0.655247
	 D(11,5,6,12)     =        -0.019161	      -1.097822
	 D(13,7,14,15)    =         0.080298	       4.600754
	 D(13,7,14,16)    =        -3.008902	    -172.397392
	 D(14,7,13,17)    =        -2.997871	    -171.765373
	 D(14,7,13,18)    =         0.137302	       7.866827

	Current energy   :      -381.4696759131

	Energy change for the previous step:
		Projected    :        -0.0000003743
		Actual       :        -0.0000001373

	Performing BFGS update.
	Previous computed or guess Hessian on step 1.
	Steps to be used in Hessian update: 5 4
	Taking RFO optimization step.
	Going to follow RFO solution 1.
	Rejecting RFO root 1 because normalization gives large value.
	Using RFO vector 2.

	Determining step-restricting scale parameter for RS-RFO.
	Maximum step size allowed    1.00000

	 Iter      |step|        alpha        rfo_root  
	------------------------------------------------
	    0    39.03424       1.00000           2
	    1    19.77528       1.97489           2
	    2    10.14890       3.85182           2
	    3     5.34191       7.33101           2
	    4     2.95077      13.31209           2
	    5     1.77951      22.17248           2
	    6     1.23925      31.99356           2
	    7     1.03922      38.26857           2
	    8     1.00145      39.74005           2
	    9     1.00000      39.79878           2
	------------------------------------------------
	Norm of target step-size    1.00000
	Projected energy change by RFO approximation:         0.0028056172

	Back-transformation to cartesian coordinates...
	Could not converge backtransformation.
	Using first guess instead.

	Back-transformation to cartesian coordinates to adjust frozen coordinates...
	Successfully converged to displaced geometry.

	--- Internal Coordinate Step in ANG or DEG, aJ/ANG or AJ/DEG ---
	 ---------------------------------------------------------------------------
	   Coordinate                Previous        Force       Change         New 
	   ----------                --------       ------       ------       ------
	    1 R(1,2)          =      1.406004    -0.000046     0.000467     1.406471
	    2 R(1,6)          =      1.406075     0.000012    -0.004132     1.401944
	    3 R(1,7)          =      1.469807    -0.000148     0.007571     1.477378
	    4 R(2,3)          =      1.392277    -0.000066     0.007069     1.399346
	    5 R(2,8)          =      1.086357     0.000001     0.001247     1.087604
	    6 R(3,4)          =      1.398032     0.000047     0.002621     1.400653
	    7 R(3,9)          =      1.085202     0.000002     0.012594     1.097796
	    8 R(4,5)          =      1.398431    -0.000054     0.005106     1.403537
	    9 R(4,10)         =      1.085655    -0.000016     0.000591     1.086246
	   10 R(5,6)          =      1.391914     0.000048     0.017252     1.409166
	   11 R(5,11)         =      1.085193    -0.000001     0.015726     1.100919
	   12 R(6,12)         =      1.086561    -0.000022     0.006404     1.092965
	   13 R(7,13)         =      1.328082    -0.000026     0.003802     1.331884
	   14 R(7,14)         =      1.328280     0.000082     0.000834     1.329114
	   15 R(13,17)        =      1.011969    -0.000038     0.004151     1.016121
	   16 R(13,18)        =      1.013790     0.000000     0.004019     1.017808
	   17 R(14,15)        =      1.013732     0.000025     0.002212     1.015944
	   18 R(14,16)        =      1.012015     0.000014     0.004124     1.016140
	   19 B(1,2,3)        =    119.399391     0.000000    -0.884721   118.514669
	   20 B(1,2,8)        =    120.388576    -0.000000     0.772206   121.160782
	   21 B(1,6,5)        =    119.431756    -0.000000    -0.919732   118.512024
	   22 B(1,6,12)       =    120.342255     0.000000     0.265657   120.607911
	   23 B(1,7,13)       =    119.569699     0.000001    -1.588643   117.981056
	   24 B(1,7,14)       =    119.577424    -0.000000    -0.692013   118.885411
	   25 B(2,1,6)        =    120.561659    -0.000000     1.459974   122.021633
	   26 B(2,1,7)        =    119.516719     0.000002    -0.654241   118.862478
	   27 B(2,3,4)        =    120.063883     0.000000    -0.219304   119.844579
	   28 B(2,3,9)        =    119.718041    -0.000000    -1.422265   118.295776
	   29 B(3,2,8)        =    120.181988    -0.000000     0.133350   120.315338
	   30 B(3,4,5)        =    120.493662    -0.000000     0.251864   120.745526
	   31 B(3,4,10)       =    119.755708     0.000000    -0.088716   119.666993
	   32 B(4,3,9)        =    120.215510     0.000000    -0.454917   119.760593
	   33 B(4,5,6)        =    120.031008     0.000000    -1.148589   118.882419
	   34 B(4,5,11)       =    120.212245     0.000000    -1.233896   118.978349
	   35 B(5,4,10)       =    119.750271     0.000000    -0.242606   119.507665
	   36 B(5,6,12)       =    120.174413    -0.000000     0.634241   120.808654
	   37 B(6,1,7)        =    119.825512    -0.000001    -1.238999   118.586513
	   38 B(6,5,11)       =    119.756470    -0.000000    -2.364047   117.392423
	   39 B(7,13,17)      =    119.527135    -0.000000    -0.438947   119.088189
	   40 B(7,13,18)      =    123.182160     0.000000    -0.166391   123.015769
	   41 B(7,14,15)      =    123.194650     0.000000    -0.316907   122.877743
	   42 B(7,14,16)      =    119.499867     0.000000     0.247456   119.747323
	   43 B(13,7,14)      =    120.812848    -0.000001     1.435641   122.248489
	   44 B(15,14,16)     =    117.241060    -0.000000     0.080256   117.321316
	   45 B(17,13,18)     =    117.289738     0.000000    -0.364217   116.925520
	   46 D(1,2,3,4)      =      0.213915    -0.000000    -2.697329    -2.483414
	   47 D(1,2,3,9)      =   -179.204596    -0.000000    13.224438  -165.980158
	   48 D(1,6,5,4)      =      1.313831     0.000000    10.743848    12.057679
	   49 D(1,6,5,11)     =   -178.495183     0.000000   -14.076773  -192.571956
	   50 D(1,7,13,17)    =      5.923756    -0.000000   -11.303706    -5.379951
	   51 D(1,7,13,18)    =   -174.444045     0.000000     0.691456  -173.752589
	   52 D(1,7,14,15)    =   -173.088197     0.000000     3.164760  -169.923437
	   53 D(1,7,14,16)    =      9.913656    -0.000000     2.898940    12.812597
	   54 D(2,1,6,5)      =     -1.634344    -0.000000    -3.160124    -4.794468
	   55 D(2,1,6,12)     =   -179.027249    -0.000000    -2.718970  -181.746219
	   56 *D(2,1,7,13)    =   -130.000000     0.000000     0.000000  -130.000000
	   57 D(2,1,7,14)     =     47.717958    -0.000000    -8.239105    39.478853
	   58 D(2,3,4,5)      =     -0.529299    -0.000000    10.596302    10.067003
	   59 D(2,3,4,10)     =    179.689036     0.000000     7.113381   186.802417
	   60 D(3,2,1,6)      =      0.868980     0.000000    -0.915082    -0.046101
	   61 D(3,2,1,7)      =    177.298428     0.000000    11.122235   188.420662
	   62 D(3,4,5,6)      =     -0.245058     0.000000   -14.649283   -14.894341
	   63 D(3,4,5,11)     =    179.563077     0.000000    10.565396   190.128473
	   64 D(4,3,2,8)      =    178.228144     0.000000    -1.802729   176.425415
	   65 D(4,5,6,12)     =    178.711191    -0.000000    10.291883   189.003074
	   66 D(5,4,3,9)      =    178.886293    -0.000000    -5.565276   173.321016
	   67 D(5,6,1,7)      =   -178.052796    -0.000000   -15.185952  -193.238748
	   68 D(6,1,2,8)      =   -177.141062     0.000000    -1.804250  -178.945312
	   69 D(6,1,7,13)     =     46.456075    -0.000000    11.717003    58.173078
	   70 D(6,1,7,14)     =   -135.825966    -0.000000     3.477898  -132.348068
	   71 D(6,5,4,10)     =    179.536619    -0.000000   -11.171530   168.365089
	   72 D(7,1,2,8)      =     -0.711614    -0.000000    10.233066     9.521452
	   73 D(7,1,6,12)     =      4.554298    -0.000000   -14.744797   -10.190500
	   74 D(8,2,3,9)      =     -1.190366     0.000000    14.119037    12.928671
	   75 D(9,3,4,10)     =     -0.895372    -0.000000    -9.048197    -9.943569
	   76 D(10,4,5,11)    =     -0.655247    -0.000000    14.043149    13.387903
	   77 D(11,5,6,12)    =     -1.097822    -0.000000   -14.528738   -15.626560
	   78 D(13,7,14,15)   =      4.600754     0.000000    -5.515772    -0.915018
	   79 D(13,7,14,16)   =   -172.397392    -0.000000    -5.781592  -178.178984
	   80 D(14,7,13,17)   =   -171.765373    -0.000000    -2.717685  -174.483058
	   81 D(14,7,13,18)   =      7.866827     0.000000     9.277477    17.144304
	 ---------------------------------------------------------------------------
	Successfully symmetrized geometry.

  ==> Convergence Check <==

  Measures of convergence in internal coordinates in au.
  Criteria marked as inactive (o), active & met (*), and active & unmet ( ).
  ---------------------------------------------------------------------------------------------
   Step     Total Energy     Delta E     MAX Force     RMS Force      MAX Disp      RMS Disp   
  ---------------------------------------------------------------------------------------------
    Convergence Criteria    1.00e-06 *    3.00e-04 *             o    1.20e-03 *             o
  ---------------------------------------------------------------------------------------------
      6    -381.46967591   -1.37e-07 *    2.21e-05 *    5.58e-06 o    2.65e-01      1.10e-01 o  ~
  ---------------------------------------------------------------------------------------------


  **** Optimization is complete! (in 6 steps) ****

  ==> Optimization Summary <==

  Measures of convergence in internal coordinates in au.
  --------------------------------------------------------------------------------------------------------------- ~
   Step         Total Energy             Delta E       MAX Force       RMS Force        MAX Disp        RMS Disp  ~
  --------------------------------------------------------------------------------------------------------------- ~
      1    -381.469215166277   -381.469215166277      0.00365098      0.00088017      0.13519156      0.02679446  ~
      2    -381.469554988846     -0.000339822570      0.00359818      0.00071666      0.03747433      0.00910418  ~
      3    -381.469665602236     -0.000110613390      0.00050489      0.00013880      0.01107657      0.00340073  ~
      4    -381.469674096265     -0.000008494029      0.00027672      0.00007070      0.00426122      0.00108316  ~
      5    -381.469675775838     -0.000001679573      0.00005545      0.00001477      0.00163300      0.00044148  ~
      6    -381.469675913090     -0.000000137253      0.00002208      0.00000558      0.26504486      0.10958306  ~
  --------------------------------------------------------------------------------------------------------------- ~

	Writing optimization data to binary file.
	Final energy is   -381.4696759130903
	Final (previous) structure:
	Cartesian Geometry (in Angstrom)
	    C     0.0453805657  -0.0101884102  -0.1779430910
	    C     0.0826288096   1.2122462567   0.5156799922
	    C     0.0488405363   1.2096107078   1.9075441185
	    C    -0.0169818221  -0.0006759810   2.6042277943
	    C    -0.0605625014  -1.2157253599   1.9133124391
	    C    -0.0436920445  -1.2266719104   0.5215437413
	    C     0.0206469146  -0.0084513670  -1.6475406774
	    H     0.1047563273   2.1523187392  -0.0283286768
	    H     0.0642605650   2.1506302537   2.4478293523
	    H    -0.0379832281   0.0028898461   3.6896737671
	    H    -0.1044660440  -2.1528248432   2.4588040888
	    H    -0.0563498352  -2.1700735944  -0.0173893132
	    N    -0.8904566004  -0.7315098322  -2.2885390936
	    N     0.8802207755   0.7514816401  -2.3168405442
	    H     0.8467032164   0.8736480767  -3.3226264221
	    H     1.6378204443   1.2028491783  -1.8203675899
	    H    -1.6135039348  -1.2039578036  -1.7612086942
	    H    -0.9072621442  -0.8355965967  -3.2968311913
	Saving final (previous) structure.
	Removing binary optimization data file.
			--------------------------
			 OPTKING Finished Execution 
			--------------------------

    Final optimized geometry and variables:
    Molecular point group: c1
    Full point group: C1

    Geometry (in Angstrom), charge = 1, multiplicity = 1:

    C            0.045380565714    -0.010188410183    -0.177943090981
    C            0.082628809624     1.212246256692     0.515679992152
    C            0.048840536253     1.209610707756     1.907544118467
    C           -0.016981822126    -0.000675981019     2.604227794305
    C           -0.060562501447    -1.215725359898     1.913312439133
    C           -0.043692044511    -1.226671910429     0.521543741347
    C            0.020646914623    -0.008451366984    -1.647540677369
    H            0.104756327310     2.152318739212    -0.028328676809
    H            0.064260565002     2.150630253672     2.447829352308
    H           -0.037983228095     0.002889846149     3.689673767102
    H           -0.104466043994    -2.152824843221     2.458804088845
    H           -0.056349835197    -2.170073594447    -0.017389313224
    N           -0.890456600446    -0.731509832206    -2.288539093566
    N            0.880220775549     0.751481640125    -2.316840544236
    H            0.846703216446     0.873648076731    -3.322626422050
    H            1.637820444349     1.202849178282    -1.820367589856
    H           -1.613503934805    -1.203957803552    -1.761208694249
    H           -0.907262144249    -0.835596596681    -3.296831191317

	Removing binary optimization data file.
	Cleaning optimization helper files.


Properties will be evaluated at   0.000000,   0.000000,   0.000000 [a0]
OEProp: No title given, name of density matrix used for the following properties is 'SCF density'
  Nuclear Dipole Moment: [e a0]
     X:     0.6045      Y:    -0.1501      Z:    -0.1269

  Electronic Dipole Moment: [e a0]
     X:    -0.6172      Y:     0.1522      Z:    -2.1990

  Dipole Moment: [e a0]
     X:    -0.0127      Y:     0.0021      Z:    -2.3259     Total:     2.3260

  Dipole Moment: [D]
     X:    -0.0323      Y:     0.0053      Z:    -5.9119     Total:     5.9120

  Quadrupole Moment: [D A]
    XX:   -46.9934     YY:   -40.2459     ZZ:   -13.4814
    XY:     6.5946     XZ:    -0.1248     YZ:    -0.1956

  Traceless Quadrupole Moment: [D A]
    XX:   -13.4199     YY:    -6.6723     ZZ:    20.0921
    XY:     6.5946     XZ:    -0.1248     YZ:    -0.1956

  Mulliken Charges: (a.u.)
   Center  Symbol    Alpha    Beta     Spin     Total
       1     C     2.96839  2.96839  0.00000  0.06323
       2     C     3.07728  3.07728  0.00000 -0.15455
       3     C     3.06224  3.06224  0.00000 -0.12448
       4     C     3.05197  3.05197  0.00000 -0.10395
       5     C     3.06297  3.06297  0.00000 -0.12595
       6     C     3.08030  3.08030  0.00000 -0.16059
       7     C     2.73023  2.73023  0.00000  0.53954
       8     H     0.41358  0.41358  0.00000  0.17285
       9     H     0.40586  0.40586  0.00000  0.18828
      10     H     0.40461  0.40461  0.00000  0.19078
      11     H     0.40588  0.40588  0.00000  0.18825
      12     H     0.41358  0.41358  0.00000  0.17285
      13     N     3.85687  3.85687  0.00000 -0.71374
      14     N     3.85822  3.85822  0.00000 -0.71644
      15     H     0.30557  0.30557  0.00000  0.38887
      16     H     0.29848  0.29848  0.00000  0.40305
      17     H     0.29844  0.29844  0.00000  0.40313
      18     H     0.30556  0.30556  0.00000  0.38887

   Total alpha = 32.00000, Total beta = 32.00000, Total charge =  1.00000


    Psi4 stopped on: Saturday, 29 September 2018 08:45PM
    Psi4 wall time for execution: 0:02:37.88

*** Psi4 exiting successfully. Buy a developer a beer!
