
    -----------------------------------------------------------------------
          Psi4: An Open-Source Ab Initio Electronic Structure Package
                               Psi4 1.2.1 release

                         Git: Rev {HEAD} 406f4de 


    R. M. Parrish, L. A. Burns, D. G. A. Smith, A. C. Simmonett,
    A. E. DePrince III, E. G. Hohenstein, U. Bozkaya, A. Yu. Sokolov,
    R. Di Remigio, R. M. Richard, J. F. Gonthier, A. M. James,
    H. R. McAlexander, A. Kumar, M. Saitow, X. Wang, B. P. Pritchard,
    P. Verma, H. F. Schaefer III, K. Patkowski, R. A. King, E. F. Valeev,
    F. A. Evangelista, J. M. Turney, T. D. Crawford, and C. D. Sherrill,
    J. Chem. Theory Comput. 13(7) pp 3185--3197 (2017).
    (doi: 10.1021/acs.jctc.7b00174)


                         Additional Contributions by
    P. Kraus, H. Kruse, M. H. Lechner, M. C. Schieber, and R. A. Shaw

    -----------------------------------------------------------------------


    Psi4 started on: Saturday, 29 September 2018 04:27PM

    Process ID: 26789
    Host:       loro.prib.upf.edu
    PSIDATADIR: /shared/joao/test_parameterize/miniconda3/share/psi4
    Memory:     500.0 MiB
    Threads:    1
    
  ==> Input File <==

--------------------------------------------------------------------------
set_num_threads(1)
set_memory('5348 MB')

set { scf_mem_safety_factor 0.7 }

set { reference rks }
set { basis cc-pVDZ }

molecule MOL {
    0 1
    noreorient
    nocom
    symmetry c1
    O    1.014300  -0.002300   0.060500
    O    2.462400  -0.107500  -0.002400
    H    0.821200  -0.823600  -0.430600
    H    2.573716   0.382077  -0.839513
}

set optking { frozen_dihedral = (" 3 1 2 4 ") }

energy, wfn = energy('B3LYP-D3', return_wfn=True)

import os
os.chdir(os.environ['HTMD_PSI4_WORKDIR'])

oeprop(wfn, 'DIPOLE', 'QUADRUPOLE', 'MULLIKEN_CHARGES')

with open('psi4out.xyz', 'w') as f:
    f.write('4 ' )
    f.write('%.12f\n' % energy)
    f.write(MOL.save_string_xyz())
--------------------------------------------------------------------------
  Threads set to 1 by Python driver.

  Memory set to   4.981 GiB by Python driver.

*** tstart() called on loro.prib.upf.edu
*** at Sat Sep 29 16:27:20 2018

   => Loading Basis Set <=

    Name: CC-PVDZ
    Role: ORBITAL
    Keyword: BASIS
    atoms 1-2 entry O          line   198 file /shared/joao/test_parameterize/miniconda3/share/psi4/basis/cc-pvdz.gbs 
    atoms 3-4 entry H          line    22 file /shared/joao/test_parameterize/miniconda3/share/psi4/basis/cc-pvdz.gbs 


         ---------------------------------------------------------
                                   SCF
            by Justin Turney, Rob Parrish, Andy Simmonett
                             and Daniel Smith
                              RKS Reference
                        1 Threads,   5100 MiB Core
         ---------------------------------------------------------

  ==> Geometry <==

    Molecular point group: c1
    Full point group: C1

    Geometry (in Angstrom), charge = 0, multiplicity = 1:

       Center              X                  Y                   Z               Mass       
    ------------   -----------------  -----------------  -----------------  -----------------
         O            1.014300000000    -0.002300000000     0.060500000000    15.994914619560
         O            2.462400000000    -0.107500000000    -0.002400000000    15.994914619560
         H            0.821200000000    -0.823600000000    -0.430600000000     1.007825032070
         H            2.573716000000     0.382077000000    -0.839513000000     1.007825032070

  Running in c1 symmetry.

  Rotational constants: A =      9.27281  B =      0.13837  C =      0.13830 [cm^-1]
  Rotational constants: A = 277991.95840  B =   4148.33210  C =   4146.26426 [MHz]
  Nuclear repulsion =   36.820689816867180

  Charge       = 0
  Multiplicity = 1
  Electrons    = 18
  Nalpha       = 9
  Nbeta        = 9

  ==> Algorithm <==

  SCF Algorithm Type is DF.
  DIIS enabled.
  MOM disabled.
  Fractional occupation disabled.
  Guess Type is SAD.
  Energy threshold   = 1.00e-06
  Density threshold  = 1.00e-06
  Integral threshold = 0.00e+00

  ==> Primary Basis <==

  Basis Set: CC-PVDZ
    Blend: CC-PVDZ
    Number of shells: 18
    Number of basis function: 38
    Number of Cartesian functions: 40
    Spherical Harmonics?: true
    Max angular momentum: 2

  ==> DFT Potential <==

   => Composite Functional: B3LYP-D3ZERO <= 

    B3LYP-d3zero Hyb-GGA Exchange-Correlation Functional

    P. J. Stephens, F. J. Devlin, C. F. Chabalowski, and M. J. Frisch, J. Phys. Chem. 98, 11623 (1994)

    Deriv               =              1
    GGA                 =           TRUE
    Meta                =          FALSE

    Exchange Hybrid     =           TRUE
    MP2 Hybrid          =          FALSE

   => Exchange Functionals <=

    0.0800   Slater exchange
    0.7200         Becke 88

   => Exact (HF) Exchange <=

    0.2000               HF 

   => Correlation Functionals <=

    0.1900   Vosko, Wilk & Nusair (VWN5_RPA)
    0.8100   Lee, Yang & Parr

   => Molecular Quadrature <=

    Radial Scheme       =       TREUTLER
    Pruning Scheme      =           FLAT
    Nuclear Scheme      =       TREUTLER

    BS radius alpha     =              1
    Pruning alpha       =              1
    Radial Points       =             75
    Spherical Points    =            302
    Total Points        =          88312
    Total Blocks        =            714
    Max Points          =            256
    Max Functions       =             38

   => -D3ZERO: Empirical Dispersion <=

    Grimme's -D3 (zero-damping) Dispersion Correction
    Grimme S.; Antony J.; Ehrlich S.; Krieg H. (2010), J. Chem. Phys., 132: 154104

        S6 =   1.000000E+00
        S8 =   1.703000E+00
       SR6 =   1.261000E+00
       SR8 =   1.000000E+00
    ALPHA6 =   1.400000E+01

   => Loading Basis Set <=

    Name: (CC-PVDZ AUX)
    Role: JKFIT
    Keyword: DF_BASIS_SCF
    atoms 1-2 entry O          line   221 file /shared/joao/test_parameterize/miniconda3/share/psi4/basis/cc-pvdz-jkfit.gbs 
    atoms 3-4 entry H          line    51 file /shared/joao/test_parameterize/miniconda3/share/psi4/basis/cc-pvdz-jkfit.gbs 

  ==> Pre-Iterations <==

   -------------------------------------------------------
    Irrep   Nso     Nmo     Nalpha   Nbeta   Ndocc  Nsocc
   -------------------------------------------------------
     A         38      38       0       0       0       0
   -------------------------------------------------------
    Total      38      38       9       9       9       0
   -------------------------------------------------------

  ==> Integral Setup <==

  DFHelper Memory: AOs need 0.003 [GiB]; user supplied 3.486 [GiB]. Using in-core AOs.

  ==> MemDFJK: Density-Fitted J/K Matrices <==

    J tasked:                   Yes
    K tasked:                   Yes
    wK tasked:                   No
    OpenMP threads:               1
    Memory (MB):               3570
    Algorithm:                 Core
    Schwarz Cutoff:           1E-12
    Mask sparsity (%):       0.0000
    Fitting Condition:        1E-12

   => Auxiliary Basis Set <=

  Basis Set: (CC-PVDZ AUX)
    Blend: CC-PVDZ-JKFIT
    Number of shells: 66
    Number of basis function: 186
    Number of Cartesian functions: 212
    Spherical Harmonics?: true
    Max angular momentum: 3

  Minimum eigenvalue in the overlap matrix is 2.5902082090E-02.
  Using Symmetric Orthogonalization.

  SCF Guess: Superposition of Atomic Densities via on-the-fly atomic UHF.

  ==> Iterations <==

                           Total Energy        Delta E     RMS |[F,P]|

   @DF-RKS iter   0:  -151.63856079885034   -1.51639e+02   4.88747e-02 
   @DF-RKS iter   1:  -151.51113099360117    1.27430e-01   7.96572e-03 
   @DF-RKS iter   2:  -151.51194687076907   -8.15877e-04   8.25145e-03 DIIS
   @DF-RKS iter   3:  -151.54811115177171   -3.61643e-02   1.00363e-03 DIIS
   @DF-RKS iter   4:  -151.54851813176668   -4.06980e-04   4.58084e-04 DIIS
   @DF-RKS iter   5:  -151.54861552425731   -9.73925e-05   1.60687e-04 DIIS
   @DF-RKS iter   6:  -151.54862926453350   -1.37403e-05   7.22198e-06 DIIS
   @DF-RKS iter   7:  -151.54862931278780   -4.82543e-08   1.63136e-06 DIIS
   @DF-RKS iter   8:  -151.54862931501381   -2.22602e-09   2.21717e-07 DIIS

  ==> Post-Iterations <==

    Orbital Energies [Eh]
    ---------------------

    Doubly Occupied:                                                      

       1A    -19.189728     2A    -19.189687     3A     -1.115004  
       4A     -0.886760     5A     -0.526782     6A     -0.473576  
       7A     -0.419842     8A     -0.291101     9A     -0.290739  

    Virtual:                                                              

      10A      0.023404    11A      0.043205    12A      0.105838  
      13A      0.573785    14A      0.579782    15A      0.851125  
      16A      0.872777    17A      0.918825    18A      0.921679  
      19A      1.011266    20A      1.048270    21A      1.238165  
      22A      1.254108    23A      1.357288    24A      1.402404  
      25A      1.684247    26A      1.701143    27A      2.062956  
      28A      2.077235    29A      2.411829    30A      2.491880  
      31A      2.516298    32A      2.863324    33A      2.930612  
      34A      3.072236    35A      3.103673    36A      3.463349  
      37A      3.561240    38A      3.820984  

    Final Occupation by Irrep:
              A 
    DOCC [     9 ]

  Energy converged.

  @DF-RKS Final Energy:  -151.54862931501381

   => Energetics <=

    Nuclear Repulsion Energy =             36.8206898168671799
    One-Electron Energy =                -281.5883629176835257
    Two-Electron Energy =                 107.6809313025176067
    DFT Exchange-Correlation Energy =     -14.4616187867150430
    Empirical Dispersion Energy =          -0.0002687300000000
    VV10 Nonlocal Energy =                  0.0000000000000000
    Total Energy =                       -151.5486293150137840



Properties will be evaluated at   0.000000,   0.000000,   0.000000 [a0]

Properties computed using the SCF density matrix

  Nuclear Dipole Moment: [e a0]
     X:    58.9755      Y:    -2.4943      Z:    -1.5218

  Electronic Dipole Moment: [e a0]
     X:   -59.0298      Y:     2.2742      Z:     0.6403

  Dipole Moment: [e a0]
     X:    -0.0543      Y:    -0.2201      Z:    -0.8815     Total:     0.9102

  Dipole Moment: [D]
     X:    -0.1380      Y:    -0.5595      Z:    -2.2407     Total:     2.3136


*** tstop() called on loro.prib.upf.edu at Sat Sep 29 16:27:24 2018
Module time:
	user time   =       2.58 seconds =       0.04 minutes
	system time =       0.06 seconds =       0.00 minutes
	total time  =          4 seconds =       0.07 minutes
Total time:
	user time   =       2.58 seconds =       0.04 minutes
	system time =       0.06 seconds =       0.00 minutes
	total time  =          4 seconds =       0.07 minutes


Properties will be evaluated at   0.000000,   0.000000,   0.000000 [a0]
OEProp: No title given, name of density matrix used for the following properties is 'SCF density'
  Nuclear Dipole Moment: [e a0]
     X:    58.9755      Y:    -2.4943      Z:    -1.5218

  Electronic Dipole Moment: [e a0]
     X:   -59.0298      Y:     2.2742      Z:     0.6403

  Dipole Moment: [e a0]
     X:    -0.0543      Y:    -0.2201      Z:    -0.8815     Total:     0.9102

  Dipole Moment: [D]
     X:    -0.1380      Y:    -0.5595      Z:    -2.2407     Total:     2.3136

  Quadrupole Moment: [D A]
    XX:   -11.5658     YY:   -10.3672     ZZ:   -10.2253
    XY:     1.2288     XZ:    -4.3887     YZ:     0.0436

  Traceless Quadrupole Moment: [D A]
    XX:    -0.8464     YY:     0.3522     ZZ:     0.4942
    XY:     1.2288     XZ:    -4.3887     YZ:     0.0436

  Mulliken Charges: (a.u.)
   Center  Symbol    Alpha    Beta     Spin     Total
       1     O     4.08822  4.08822  0.00000 -0.17645
       2     O     4.08820  4.08820  0.00000 -0.17641
       3     H     0.41178  0.41178  0.00000  0.17645
       4     H     0.41179  0.41179  0.00000  0.17641

   Total alpha =  9.00000, Total beta =  9.00000, Total charge =  0.00000


    Psi4 stopped on: Saturday, 29 September 2018 04:27PM
    Psi4 wall time for execution: 0:00:04.11

*** Psi4 exiting successfully. Buy a developer a beer!
