
    -----------------------------------------------------------------------
          Psi4: An Open-Source Ab Initio Electronic Structure Package
                               Psi4 1.2.1 release

                         Git: Rev {HEAD} 406f4de 


    R. M. Parrish, L. A. Burns, D. G. A. Smith, A. C. Simmonett,
    A. E. DePrince III, E. G. Hohenstein, U. Bozkaya, A. Yu. Sokolov,
    R. Di Remigio, R. M. Richard, J. F. Gonthier, A. M. James,
    H. R. McAlexander, A. Kumar, M. Saitow, X. Wang, B. P. Pritchard,
    P. Verma, H. F. Schaefer III, K. Patkowski, R. A. King, E. F. Valeev,
    F. A. Evangelista, J. M. Turney, T. D. Crawford, and C. D. Sherrill,
    J. Chem. Theory Comput. 13(7) pp 3185--3197 (2017).
    (doi: 10.1021/acs.jctc.7b00174)


                         Additional Contributions by
    P. Kraus, H. Kruse, M. H. Lechner, M. C. Schieber, and R. A. Shaw

    -----------------------------------------------------------------------


    Psi4 started on: Saturday, 29 September 2018 04:50PM

    Process ID: 5344
    Host:       loro.prib.upf.edu
    PSIDATADIR: /shared/joao/test_parameterize/miniconda3/share/psi4
    Memory:     500.0 MiB
    Threads:    1
    
  ==> Input File <==

--------------------------------------------------------------------------
set_num_threads(1)
set_memory('5348 MB')

set { scf_mem_safety_factor 0.7 }

set { reference rks }
set { basis cc-pVDZ }

molecule MOL {
    0 1
    noreorient
    nocom
    symmetry c1
    O    1.141000   0.017000   0.083000
    C    2.558000   0.086000  -0.005000
    C    3.192000  -0.789000   1.067000
    O    4.610000  -0.719000   0.979000
    H    0.789000   0.590000  -0.620000
    H    2.874000   1.128000   0.115000
    H    2.871000  -0.243000  -1.001000
    H    2.876000  -1.830000   0.947000
    H    2.879000  -0.459000   2.064000
    H    4.823011  -0.557822   0.043300
}

set optking { frozen_dihedral = (" 2 3 4 10 ") }

energy, wfn = energy('B3LYP-D3', return_wfn=True)

import os
os.chdir(os.environ['HTMD_PSI4_WORKDIR'])

oeprop(wfn, 'DIPOLE', 'QUADRUPOLE', 'MULLIKEN_CHARGES')

with open('psi4out.xyz', 'w') as f:
    f.write('10 ' )
    f.write('%.12f\n' % energy)
    f.write(MOL.save_string_xyz())
--------------------------------------------------------------------------
  Threads set to 1 by Python driver.

  Memory set to   4.981 GiB by Python driver.

*** tstart() called on loro.prib.upf.edu
*** at Sat Sep 29 16:50:24 2018

   => Loading Basis Set <=

    Name: CC-PVDZ
    Role: ORBITAL
    Keyword: BASIS
    atoms 1, 4 entry O          line   198 file /shared/joao/test_parameterize/miniconda3/share/psi4/basis/cc-pvdz.gbs 
    atoms 2-3  entry C          line   138 file /shared/joao/test_parameterize/miniconda3/share/psi4/basis/cc-pvdz.gbs 
    atoms 5-10 entry H          line    22 file /shared/joao/test_parameterize/miniconda3/share/psi4/basis/cc-pvdz.gbs 


         ---------------------------------------------------------
                                   SCF
            by Justin Turney, Rob Parrish, Andy Simmonett
                             and Daniel Smith
                              RKS Reference
                        1 Threads,   5100 MiB Core
         ---------------------------------------------------------

  ==> Geometry <==

    Molecular point group: c1
    Full point group: C1

    Geometry (in Angstrom), charge = 0, multiplicity = 1:

       Center              X                  Y                   Z               Mass       
    ------------   -----------------  -----------------  -----------------  -----------------
         O            1.141000000000     0.017000000000     0.083000000000    15.994914619560
         C            2.558000000000     0.086000000000    -0.005000000000    12.000000000000
         C            3.192000000000    -0.789000000000     1.067000000000    12.000000000000
         O            4.610000000000    -0.719000000000     0.979000000000    15.994914619560
         H            0.789000000000     0.590000000000    -0.620000000000     1.007825032070
         H            2.874000000000     1.128000000000     0.115000000000     1.007825032070
         H            2.871000000000    -0.243000000000    -1.001000000000     1.007825032070
         H            2.876000000000    -1.830000000000     0.947000000000     1.007825032070
         H            2.879000000000    -0.459000000000     2.064000000000     1.007825032070
         H            4.823011000000    -0.557822000000     0.043300000000     1.007825032070

  Running in c1 symmetry.

  Rotational constants: A =      0.81738  B =      0.02559  C =      0.02506 [cm^-1]
  Rotational constants: A =  24504.54457  B =    767.03333  C =    751.34370 [MHz]
  Nuclear repulsion =  130.073024247464616

  Charge       = 0
  Multiplicity = 1
  Electrons    = 34
  Nalpha       = 17
  Nbeta        = 17

  ==> Algorithm <==

  SCF Algorithm Type is DF.
  DIIS enabled.
  MOM disabled.
  Fractional occupation disabled.
  Guess Type is SAD.
  Energy threshold   = 1.00e-06
  Density threshold  = 1.00e-06
  Integral threshold = 0.00e+00

  ==> Primary Basis <==

  Basis Set: CC-PVDZ
    Blend: CC-PVDZ
    Number of shells: 42
    Number of basis function: 86
    Number of Cartesian functions: 90
    Spherical Harmonics?: true
    Max angular momentum: 2

  ==> DFT Potential <==

   => Composite Functional: B3LYP-D3ZERO <= 

    B3LYP-d3zero Hyb-GGA Exchange-Correlation Functional

    P. J. Stephens, F. J. Devlin, C. F. Chabalowski, and M. J. Frisch, J. Phys. Chem. 98, 11623 (1994)

    Deriv               =              1
    GGA                 =           TRUE
    Meta                =          FALSE

    Exchange Hybrid     =           TRUE
    MP2 Hybrid          =          FALSE

   => Exchange Functionals <=

    0.0800   Slater exchange
    0.7200         Becke 88

   => Exact (HF) Exchange <=

    0.2000               HF 

   => Correlation Functionals <=

    0.1900   Vosko, Wilk & Nusair (VWN5_RPA)
    0.8100   Lee, Yang & Parr

   => Molecular Quadrature <=

    Radial Scheme       =       TREUTLER
    Pruning Scheme      =           FLAT
    Nuclear Scheme      =       TREUTLER

    BS radius alpha     =              1
    Pruning alpha       =              1
    Radial Points       =             75
    Spherical Points    =            302
    Total Points        =         222532
    Total Blocks        =           1738
    Max Points          =            256
    Max Functions       =             86

   => -D3ZERO: Empirical Dispersion <=

    Grimme's -D3 (zero-damping) Dispersion Correction
    Grimme S.; Antony J.; Ehrlich S.; Krieg H. (2010), J. Chem. Phys., 132: 154104

        S6 =   1.000000E+00
        S8 =   1.703000E+00
       SR6 =   1.261000E+00
       SR8 =   1.000000E+00
    ALPHA6 =   1.400000E+01

   => Loading Basis Set <=

    Name: (CC-PVDZ AUX)
    Role: JKFIT
    Keyword: DF_BASIS_SCF
    atoms 1, 4 entry O          line   221 file /shared/joao/test_parameterize/miniconda3/share/psi4/basis/cc-pvdz-jkfit.gbs 
    atoms 2-3  entry C          line   121 file /shared/joao/test_parameterize/miniconda3/share/psi4/basis/cc-pvdz-jkfit.gbs 
    atoms 5-10 entry H          line    51 file /shared/joao/test_parameterize/miniconda3/share/psi4/basis/cc-pvdz-jkfit.gbs 

  ==> Pre-Iterations <==

   -------------------------------------------------------
    Irrep   Nso     Nmo     Nalpha   Nbeta   Ndocc  Nsocc
   -------------------------------------------------------
     A         86      86       0       0       0       0
   -------------------------------------------------------
    Total      86      86      17      17      17       0
   -------------------------------------------------------

  ==> Integral Setup <==

  DFHelper Memory: AOs need 0.030 [GiB]; user supplied 3.486 [GiB]. Using in-core AOs.

  ==> MemDFJK: Density-Fitted J/K Matrices <==

    J tasked:                   Yes
    K tasked:                   Yes
    wK tasked:                   No
    OpenMP threads:               1
    Memory (MB):               3570
    Algorithm:                 Core
    Schwarz Cutoff:           1E-12
    Mask sparsity (%):       0.2704
    Fitting Condition:        1E-12

   => Auxiliary Basis Set <=

  Basis Set: (CC-PVDZ AUX)
    Blend: CC-PVDZ-JKFIT
    Number of shells: 150
    Number of basis function: 418
    Number of Cartesian functions: 474
    Spherical Harmonics?: true
    Max angular momentum: 3

  Minimum eigenvalue in the overlap matrix is 5.0285354926E-03.
  Using Symmetric Orthogonalization.

  SCF Guess: Superposition of Atomic Densities via on-the-fly atomic UHF.

  ==> Iterations <==

                           Total Energy        Delta E     RMS |[F,P]|

   @DF-RKS iter   0:  -231.05569881677678   -2.31056e+02   4.14800e-02 
   @DF-RKS iter   1:  -230.18975983571011    8.65939e-01   4.72417e-03 
   @DF-RKS iter   2:  -230.15872023860265    3.10396e-02   6.04661e-03 DIIS
   @DF-RKS iter   3:  -230.25550799626137   -9.67878e-02   7.10800e-04 DIIS
   @DF-RKS iter   4:  -230.25687389177631   -1.36590e-03   2.12662e-04 DIIS
   @DF-RKS iter   5:  -230.25703283045803   -1.58939e-04   4.74038e-05 DIIS
   @DF-RKS iter   6:  -230.25704066953037   -7.83907e-06   5.68169e-06 DIIS
   @DF-RKS iter   7:  -230.25704073299994   -6.34696e-08   3.58631e-06 DIIS
   @DF-RKS iter   8:  -230.25704076636043   -3.33605e-08   5.59456e-07 DIIS

  ==> Post-Iterations <==

    Orbital Energies [Eh]
    ---------------------

    Doubly Occupied:                                                      

       1A    -19.138245     2A    -19.133769     3A    -10.235183  
       4A    -10.226975     5A     -1.024824     6A     -1.012157  
       7A     -0.733101     8A     -0.623938     9A     -0.518151  
      10A     -0.492004    11A     -0.468560    12A     -0.425365  
      13A     -0.398937    14A     -0.352705    15A     -0.323874  
      16A     -0.271993    17A     -0.266747  

    Virtual:                                                              

      18A      0.040979    19A      0.052049    20A      0.100026  
      21A      0.111139    22A      0.125464    23A      0.164640  
      24A      0.199124    25A      0.230546    26A      0.243870  
      27A      0.432957    28A      0.439638    29A      0.496189  
      30A      0.525059    31A      0.552999    32A      0.575215  
      33A      0.599492    34A      0.621521    35A      0.635726  
      36A      0.652252    37A      0.659121    38A      0.673897  
      39A      0.875014    40A      0.885728    41A      0.908851  
      42A      0.973156    43A      1.023870    44A      1.050251  
      45A      1.055208    46A      1.155513    47A      1.164731  
      48A      1.206500    49A      1.238065    50A      1.309259  
      51A      1.337732    52A      1.383014    53A      1.511952  
      54A      1.515785    55A      1.589595    56A      1.621478  
      57A      1.644265    58A      1.653005    59A      1.660080  
      60A      1.678123    61A      1.728766    62A      1.775364  
      63A      1.805137    64A      1.859538    65A      1.903599  
      66A      1.980382    67A      2.033786    68A      2.053953  
      69A      2.121161    70A      2.131811    71A      2.248200  
      72A      2.285208    73A      2.405797    74A      2.439845  
      75A      2.474337    76A      2.513775    77A      2.923445  
      78A      2.933302    79A      3.004071    80A      3.008522  
      81A      3.078578    82A      3.086632    83A      3.184369  
      84A      3.255754    85A      3.667817    86A      3.691334  

    Final Occupation by Irrep:
              A 
    DOCC [    17 ]

  Energy converged.

  @DF-RKS Final Energy:  -230.25704076636043

   => Energetics <=

    Nuclear Repulsion Energy =            130.0730242474646161
    One-Electron Energy =                -571.7344532316964205
    Two-Electron Energy =                 235.9471972685183800
    DFT Exchange-Correlation Energy =     -24.5381664406470215
    Empirical Dispersion Energy =          -0.0046426100000000
    VV10 Nonlocal Energy =                  0.0000000000000000
    Total Energy =                       -230.2570407663604328



Properties will be evaluated at   0.000000,   0.000000,   0.000000 [a0]

Properties computed using the SCF density matrix

  Nuclear Dipole Moment: [e a0]
     X:   184.4751      Y:   -21.1759      Z:    31.0223

  Electronic Dipole Moment: [e a0]
     X:  -184.6206      Y:    21.6143      Z:   -31.9300

  Dipole Moment: [e a0]
     X:    -0.1455      Y:     0.4384      Z:    -0.9076     Total:     1.0184

  Dipole Moment: [D]
     X:    -0.3698      Y:     1.1142      Z:    -2.3070     Total:     2.5885


*** tstop() called on loro.prib.upf.edu at Sat Sep 29 16:50:39 2018
Module time:
	user time   =      12.90 seconds =       0.21 minutes
	system time =       0.20 seconds =       0.00 minutes
	total time  =         15 seconds =       0.25 minutes
Total time:
	user time   =      12.90 seconds =       0.21 minutes
	system time =       0.20 seconds =       0.00 minutes
	total time  =         15 seconds =       0.25 minutes


Properties will be evaluated at   0.000000,   0.000000,   0.000000 [a0]
OEProp: No title given, name of density matrix used for the following properties is 'SCF density'
  Nuclear Dipole Moment: [e a0]
     X:   184.4751      Y:   -21.1759      Z:    31.0223

  Electronic Dipole Moment: [e a0]
     X:  -184.6206      Y:    21.6143      Z:   -31.9300

  Dipole Moment: [e a0]
     X:    -0.1455      Y:     0.4384      Z:    -0.9076     Total:     1.0184

  Dipole Moment: [D]
     X:    -0.3698      Y:     1.1142      Z:    -2.3070     Total:     2.5885

  Quadrupole Moment: [D A]
    XX:   -29.6191     YY:   -24.6224     ZZ:   -24.7752
    XY:     2.2064     XZ:    -7.9030     YZ:     0.0757

  Traceless Quadrupole Moment: [D A]
    XX:    -3.2802     YY:     1.7165     ZZ:     1.5637
    XY:     2.2064     XZ:    -7.9030     YZ:     0.0757

  Mulliken Charges: (a.u.)
   Center  Symbol    Alpha    Beta     Spin     Total
       1     O     4.13734  4.13734  0.00000 -0.27467
       2     C     2.95758  2.95758  0.00000  0.08483
       3     C     2.92120  2.92120  0.00000  0.15759
       4     O     4.13758  4.13758  0.00000 -0.27516
       5     H     0.42801  0.42801  0.00000  0.14397
       6     H     0.49799  0.49799  0.00000  0.00402
       7     H     0.50414  0.50414  0.00000 -0.00828
       8     H     0.49592  0.49592  0.00000  0.00816
       9     H     0.48768  0.48768  0.00000  0.02465
      10     H     0.43256  0.43256  0.00000  0.13488

   Total alpha = 17.00000, Total beta = 17.00000, Total charge = -0.00000


    Psi4 stopped on: Saturday, 29 September 2018 04:50PM
    Psi4 wall time for execution: 0:00:15.88

*** Psi4 exiting successfully. Buy a developer a beer!
