
    -----------------------------------------------------------------------
          Psi4: An Open-Source Ab Initio Electronic Structure Package
                               Psi4 1.2.1 release

                         Git: Rev {HEAD} 406f4de 


    R. M. Parrish, L. A. Burns, D. G. A. Smith, A. C. Simmonett,
    A. E. DePrince III, E. G. Hohenstein, U. Bozkaya, A. Yu. Sokolov,
    R. Di Remigio, R. M. Richard, J. F. Gonthier, A. M. James,
    H. R. McAlexander, A. Kumar, M. Saitow, X. Wang, B. P. Pritchard,
    P. Verma, H. F. Schaefer III, K. Patkowski, R. A. King, E. F. Valeev,
    F. A. Evangelista, J. M. Turney, T. D. Crawford, and C. D. Sherrill,
    J. Chem. Theory Comput. 13(7) pp 3185--3197 (2017).
    (doi: 10.1021/acs.jctc.7b00174)


                         Additional Contributions by
    P. Kraus, H. Kruse, M. H. Lechner, M. C. Schieber, and R. A. Shaw

    -----------------------------------------------------------------------


    Psi4 started on: Saturday, 29 September 2018 08:52PM

    Process ID: 19594
    Host:       green.prib.upf.edu
    PSIDATADIR: /shared/joao/test_parameterize/miniconda3/share/psi4
    Memory:     500.0 MiB
    Threads:    1
    
  ==> Input File <==

--------------------------------------------------------------------------
set_num_threads(4)
set_memory('3000 MB')

set { scf_mem_safety_factor 0.7 }

set { reference rks }
set { basis 6-31G* }

molecule MOL {
    1 1
    noreorient
    nocom
    symmetry c1
    C   -0.000000  -0.000000  -0.177864
    C    0.036678   1.219374   0.524165
    C    0.031765   1.213120   1.915444
    C    0.000000   0.000000   2.610107
    C   -0.031765  -1.213120   1.915444
    C   -0.036678  -1.219375   0.524165
    C   -0.000000   0.000000  -1.644734
    H    0.018170   2.164705  -0.010854
    H    0.042402   2.152895   2.457886
    H    0.000000   0.000000   3.695756
    H   -0.042402  -2.152895   2.457886
    H   -0.018170  -2.164705  -0.010853
    N    0.165932  -1.140612  -2.308461
    N   -0.165932   1.140612  -2.308460
    H   -0.265775   1.181463  -3.315997
    H   -0.128637   2.021932  -1.813316
    H    0.128637  -2.021932  -1.813317
    H    0.265775  -1.181463  -3.315997
}

set optking { frozen_dihedral = (" 2 1 7 13 ") }

set optking { dynamic_level = 1 
 geom_maxiter = 250
 print_trajectory_xyz_file = True }

energy, wfn = optimize('B3LYP-D3', return_wfn=True)

import os
os.chdir(os.environ['HTMD_PSI4_WORKDIR'])

oeprop(wfn, 'DIPOLE', 'QUADRUPOLE', 'MULLIKEN_CHARGES')

with open('psi4out.xyz', 'w') as f:
    f.write('18 ' )
    f.write('%.12f\n' % energy)
    f.write(MOL.save_string_xyz())
--------------------------------------------------------------------------
  Threads set to 4 by Python driver.

  Memory set to   2.794 GiB by Python driver.
gradient() will perform analytic gradient computation.

*** tstart() called on green.prib.upf.edu
*** at Sat Sep 29 20:52:02 2018

   => Loading Basis Set <=

    Name: 6-31G*
    Role: ORBITAL
    Keyword: BASIS
    atoms 1-7         entry C          line   111 file /shared/joao/test_parameterize/miniconda3/share/psi4/basis/6-31gs.gbs 
    atoms 8-12, 15-18 entry H          line    44 file /shared/joao/test_parameterize/miniconda3/share/psi4/basis/6-31gs.gbs 
    atoms 13-14       entry N          line   128 file /shared/joao/test_parameterize/miniconda3/share/psi4/basis/6-31gs.gbs 


         ---------------------------------------------------------
                                   SCF
            by Justin Turney, Rob Parrish, Andy Simmonett
                             and Daniel Smith
                              RKS Reference
                        4 Threads,   2861 MiB Core
         ---------------------------------------------------------

  ==> Geometry <==

    Molecular point group: c1
    Full point group: C1

    Geometry (in Angstrom), charge = 1, multiplicity = 1:

       Center              X                  Y                   Z               Mass       
    ------------   -----------------  -----------------  -----------------  -----------------
         C            0.000000000000     0.000000000000    -0.177864000000    12.000000000000
         C            0.036678000000     1.219374000000     0.524165000000    12.000000000000
         C            0.031765000000     1.213120000000     1.915444000000    12.000000000000
         C            0.000000000000     0.000000000000     2.610107000000    12.000000000000
         C           -0.031765000000    -1.213120000000     1.915444000000    12.000000000000
         C           -0.036678000000    -1.219375000000     0.524165000000    12.000000000000
         C            0.000000000000     0.000000000000    -1.644734000000    12.000000000000
         H            0.018170000000     2.164705000000    -0.010854000000     1.007825032070
         H            0.042402000000     2.152895000000     2.457886000000     1.007825032070
         H            0.000000000000     0.000000000000     3.695756000000     1.007825032070
         H           -0.042402000000    -2.152895000000     2.457886000000     1.007825032070
         H           -0.018170000000    -2.164705000000    -0.010853000000     1.007825032070
         N            0.165932000000    -1.140612000000    -2.308461000000    14.003074004780
         N           -0.165932000000     1.140612000000    -2.308460000000    14.003074004780
         H           -0.265775000000     1.181463000000    -3.315997000000     1.007825032070
         H           -0.128637000000     2.021932000000    -1.813316000000     1.007825032070
         H            0.128637000000    -2.021932000000    -1.813317000000     1.007825032070
         H            0.265775000000    -1.181463000000    -3.315997000000     1.007825032070

  Running in c1 symmetry.

  Rotational constants: A =      0.12190  B =      0.04071  C =      0.03062 [cm^-1]
  Rotational constants: A =   3654.48783  B =   1220.43136  C =    917.81700 [MHz]
  Nuclear repulsion =  417.689226956341031

  Charge       = 1
  Multiplicity = 1
  Electrons    = 64
  Nalpha       = 32
  Nbeta        = 32

  ==> Algorithm <==

  SCF Algorithm Type is DF.
  DIIS enabled.
  MOM disabled.
  Fractional occupation disabled.
  Guess Type is SAD.
  Energy threshold   = 1.00e-08
  Density threshold  = 1.00e-08
  Integral threshold = 0.00e+00

  ==> Primary Basis <==

  Basis Set: 6-31G*
    Blend: 6-31G*
    Number of shells: 72
    Number of basis function: 153
    Number of Cartesian functions: 153
    Spherical Harmonics?: false
    Max angular momentum: 2

  ==> DFT Potential <==

   => Composite Functional: B3LYP-D3ZERO <= 

    B3LYP-d3zero Hyb-GGA Exchange-Correlation Functional

    P. J. Stephens, F. J. Devlin, C. F. Chabalowski, and M. J. Frisch, J. Phys. Chem. 98, 11623 (1994)

    Deriv               =              1
    GGA                 =           TRUE
    Meta                =          FALSE

    Exchange Hybrid     =           TRUE
    MP2 Hybrid          =          FALSE

   => Exchange Functionals <=

    0.0800   Slater exchange
    0.7200         Becke 88

   => Exact (HF) Exchange <=

    0.2000               HF 

   => Correlation Functionals <=

    0.1900   Vosko, Wilk & Nusair (VWN5_RPA)
    0.8100   Lee, Yang & Parr

   => Molecular Quadrature <=

    Radial Scheme       =       TREUTLER
    Pruning Scheme      =           FLAT
    Nuclear Scheme      =       TREUTLER

    BS radius alpha     =              1
    Pruning alpha       =              1
    Radial Points       =             75
    Spherical Points    =            302
    Total Points        =         396504
    Total Blocks        =           2951
    Max Points          =            256
    Max Functions       =            149

   => -D3ZERO: Empirical Dispersion <=

    Grimme's -D3 (zero-damping) Dispersion Correction
    Grimme S.; Antony J.; Ehrlich S.; Krieg H. (2010), J. Chem. Phys., 132: 154104

        S6 =   1.000000E+00
        S8 =   1.703000E+00
       SR6 =   1.261000E+00
       SR8 =   1.000000E+00
    ALPHA6 =   1.400000E+01

   => Loading Basis Set <=

    Name: (6-31G* AUX)
    Role: JKFIT
    Keyword: DF_BASIS_SCF
    atoms 1-7         entry C          line   121 file /shared/joao/test_parameterize/miniconda3/share/psi4/basis/cc-pvdz-jkfit.gbs 
    atoms 8-12, 15-18 entry H          line    51 file /shared/joao/test_parameterize/miniconda3/share/psi4/basis/cc-pvdz-jkfit.gbs 
    atoms 13-14       entry N          line   171 file /shared/joao/test_parameterize/miniconda3/share/psi4/basis/cc-pvdz-jkfit.gbs 

  ==> Pre-Iterations <==

   -------------------------------------------------------
    Irrep   Nso     Nmo     Nalpha   Nbeta   Ndocc  Nsocc
   -------------------------------------------------------
     A        153     153       0       0       0       0
   -------------------------------------------------------
    Total     153     153      32      32      32       0
   -------------------------------------------------------

  ==> Integral Setup <==

  ==> DiskDFJK: Density-Fitted J/K Matrices <==

    J tasked:                  Yes
    K tasked:                  Yes
    wK tasked:                  No
    OpenMP threads:              4
    Integrals threads:           4
    Memory (MB):              2002
    Algorithm:                Core
    Integral Cache:           NONE
    Schwarz Cutoff:          1E-12
    Fitting Condition:       1E-12

   => Auxiliary Basis Set <=

  Basis Set: (6-31G* AUX)
    Blend: CC-PVDZ-JKFIT
    Number of shells: 297
    Number of basis function: 954
    Number of Cartesian functions: 954
    Spherical Harmonics?: false
    Max angular momentum: 3

  Minimum eigenvalue in the overlap matrix is 4.7264302649E-04.
  Using Symmetric Orthogonalization.

  SCF Guess: Superposition of Atomic Densities via on-the-fly atomic UHF.

  ==> Iterations <==

                           Total Energy        Delta E     RMS |[F,P]|

   @DF-RKS iter   0:  -379.47473193354335   -3.79475e+02   6.75548e-02 
   @DF-RKS iter   1:  -380.99847266789413   -1.52374e+00   1.26304e-02 
   @DF-RKS iter   2:  -380.88482060991532    1.13652e-01   1.41007e-02 DIIS
   @DF-RKS iter   3:  -381.45163398120178   -5.66813e-01   2.05860e-03 DIIS
   @DF-RKS iter   4:  -381.46088152490165   -9.24754e-03   8.91607e-04 DIIS
   @DF-RKS iter   5:  -381.46286693599131   -1.98541e-03   2.51230e-04 DIIS
   @DF-RKS iter   6:  -381.46302472106885   -1.57785e-04   8.88434e-05 DIIS
   @DF-RKS iter   7:  -381.46304583676795   -2.11157e-05   2.43848e-05 DIIS
   @DF-RKS iter   8:  -381.46304761980770   -1.78304e-06   6.48314e-06 DIIS
   @DF-RKS iter   9:  -381.46304774998697   -1.30179e-07   2.19877e-06 DIIS
   @DF-RKS iter  10:  -381.46304776330584   -1.33189e-08   6.38771e-07 DIIS
   @DF-RKS iter  11:  -381.46304776435858   -1.05274e-09   1.77429e-07 DIIS
   @DF-RKS iter  12:  -381.46304776444703   -8.84484e-11   8.21234e-08 DIIS
   @DF-RKS iter  13:  -381.46304776447084   -2.38174e-11   1.10867e-08 DIIS
   @DF-RKS iter  14:  -381.46304776447113   -2.84217e-13   6.24003e-09 DIIS

  ==> Post-Iterations <==

    Orbital Energies [Eh]
    ---------------------

    Doubly Occupied:                                                      

       1A    -14.565494     2A    -14.565487     3A    -10.497249  
       4A    -10.376520     5A    -10.362661     6A    -10.362651  
       7A    -10.346837     8A    -10.344397     9A    -10.344337  
      10A     -1.183250    11A     -1.091848    12A     -1.017962  
      13A     -0.929028    14A     -0.907415    15A     -0.848311  
      16A     -0.786056    17A     -0.780358    18A     -0.739461  
      19A     -0.737846    20A     -0.690113    21A     -0.668555  
      22A     -0.634222    23A     -0.609641    24A     -0.602802  
      25A     -0.581040    26A     -0.580959    27A     -0.518080  
      28A     -0.511127    29A     -0.503302    30A     -0.471629  
      31A     -0.412771    32A     -0.408984  

    Virtual:                                                              

      33A     -0.223625    34A     -0.157007    35A     -0.117230  
      36A     -0.116392    37A     -0.079395    38A     -0.072104  
      39A     -0.044490    40A     -0.025844    41A      0.013652  
      42A      0.028156    43A      0.029956    44A      0.066581  
      45A      0.083968    46A      0.096108    47A      0.116292  
      48A      0.135243    49A      0.150493    50A      0.188104  
      51A      0.244275    52A      0.250478    53A      0.303628  
      54A      0.344825    55A      0.349944    56A      0.374171  
      57A      0.393620    58A      0.395551    59A      0.416848  
      60A      0.425102    61A      0.434238    62A      0.447084  
      63A      0.455927    64A      0.470486    65A      0.471462  
      66A      0.474729    67A      0.481418    68A      0.489296  
      69A      0.493393    70A      0.538455    71A      0.569219  
      72A      0.587803    73A      0.630128    74A      0.643301  
      75A      0.663960    76A      0.697902    77A      0.698144  
      78A      0.703075    79A      0.716884    80A      0.753727  
      81A      0.777966    82A      0.789783    83A      0.799018  
      84A      0.821737    85A      0.854397    86A      0.875165  
      87A      0.899716    88A      0.922149    89A      0.966206  
      90A      1.022862    91A      1.051515    92A      1.058007  
      93A      1.067706    94A      1.078836    95A      1.139174  
      96A      1.180488    97A      1.187299    98A      1.274335  
      99A      1.277071   100A      1.314785   101A      1.320933  
     102A      1.340112   103A      1.353245   104A      1.384419  
     105A      1.390918   106A      1.455692   107A      1.524648  
     108A      1.597333   109A      1.638601   110A      1.652271  
     111A      1.666070   112A      1.735268   113A      1.751468  
     114A      1.800014   115A      1.813336   116A      1.872988  
     117A      1.898606   118A      1.910546   119A      1.927160  
     120A      1.981723   121A      1.988492   122A      2.025393  
     123A      2.037573   124A      2.065520   125A      2.109164  
     126A      2.120014   127A      2.150690   128A      2.227406  
     129A      2.259881   130A      2.284968   131A      2.322977  
     132A      2.359737   133A      2.441367   134A      2.481073  
     135A      2.498054   136A      2.498407   137A      2.521092  
     138A      2.590021   139A      2.592506   140A      2.660538  
     141A      2.740780   142A      2.887574   143A      3.013893  
     144A      3.257610   145A      3.648546   146A      3.709507  
     147A      3.904415   148A      3.942030   149A      3.961615  
     150A      4.034686   151A      4.169689   152A      4.259029  
     153A      4.549277  

    Final Occupation by Irrep:
              A 
    DOCC [    32 ]

  Energy converged.

  @DF-RKS Final Energy:  -381.46304776447113

   => Energetics <=

    Nuclear Repulsion Energy =            417.6892269563410309
    One-Electron Energy =               -1330.3927585408318919
    Two-Electron Energy =                 575.6638927855188967
    DFT Exchange-Correlation Energy =     -44.4120163654991558
    Empirical Dispersion Energy =          -0.0113926000000000
    VV10 Nonlocal Energy =                  0.0000000000000000
    Total Energy =                       -381.4630477644711277



Properties will be evaluated at   0.000000,   0.000000,   0.000000 [a0]

Properties computed using the SCF density matrix

  Nuclear Dipole Moment: [e a0]
     X:     0.0000      Y:    -0.0000      Z:     0.0248

  Electronic Dipole Moment: [e a0]
     X:    -0.0000      Y:     0.0000      Z:    -2.1732

  Dipole Moment: [e a0]
     X:    -0.0000      Y:     0.0000      Z:    -2.1485     Total:     2.1485

  Dipole Moment: [D]
     X:    -0.0000      Y:     0.0000      Z:    -5.4608     Total:     5.4608


*** tstop() called on green.prib.upf.edu at Sat Sep 29 20:52:29 2018
Module time:
	user time   =      96.12 seconds =       1.60 minutes
	system time =       0.47 seconds =       0.01 minutes
	total time  =         27 seconds =       0.45 minutes
Total time:
	user time   =      96.12 seconds =       1.60 minutes
	system time =       0.47 seconds =       0.01 minutes
	total time  =         27 seconds =       0.45 minutes

*** tstart() called on green.prib.upf.edu
*** at Sat Sep 29 20:52:29 2018


         ------------------------------------------------------------
                                   SCF GRAD                          
                          Rob Parrish, Justin Turney,                
                       Andy Simmonett, and Alex Sokolov              
         ------------------------------------------------------------

  ==> Geometry <==

    Molecular point group: c1
    Full point group: C1

    Geometry (in Angstrom), charge = 1, multiplicity = 1:

       Center              X                  Y                   Z               Mass       
    ------------   -----------------  -----------------  -----------------  -----------------
         C            0.000000000000     0.000000000000    -0.177864000000    12.000000000000
         C            0.036678000000     1.219374000000     0.524165000000    12.000000000000
         C            0.031765000000     1.213120000000     1.915444000000    12.000000000000
         C            0.000000000000     0.000000000000     2.610107000000    12.000000000000
         C           -0.031765000000    -1.213120000000     1.915444000000    12.000000000000
         C           -0.036678000000    -1.219375000000     0.524165000000    12.000000000000
         C            0.000000000000     0.000000000000    -1.644734000000    12.000000000000
         H            0.018170000000     2.164705000000    -0.010854000000     1.007825032070
         H            0.042402000000     2.152895000000     2.457886000000     1.007825032070
         H            0.000000000000     0.000000000000     3.695756000000     1.007825032070
         H           -0.042402000000    -2.152895000000     2.457886000000     1.007825032070
         H           -0.018170000000    -2.164705000000    -0.010853000000     1.007825032070
         N            0.165932000000    -1.140612000000    -2.308461000000    14.003074004780
         N           -0.165932000000     1.140612000000    -2.308460000000    14.003074004780
         H           -0.265775000000     1.181463000000    -3.315997000000     1.007825032070
         H           -0.128637000000     2.021932000000    -1.813316000000     1.007825032070
         H            0.128637000000    -2.021932000000    -1.813317000000     1.007825032070
         H            0.265775000000    -1.181463000000    -3.315997000000     1.007825032070

  Nuclear repulsion =  417.689226956341031

  ==> Basis Set <==

  Basis Set: 6-31G*
    Blend: 6-31G*
    Number of shells: 72
    Number of basis function: 153
    Number of Cartesian functions: 153
    Spherical Harmonics?: false
    Max angular momentum: 2

  ==> DFJKGrad: Density-Fitted SCF Gradients <==

    Gradient:                    1
    J tasked:                  Yes
    K tasked:                  Yes
    wK tasked:                  No
    OpenMP threads:              4
    Integrals threads:           4
    Memory (MB):              2002
    Schwarz Cutoff:          0E+00
    Fitting Condition:       1E-12

   => Auxiliary Basis Set <=

  Basis Set: (6-31G* AUX)
    Blend: CC-PVDZ-JKFIT
    Number of shells: 297
    Number of basis function: 954
    Number of Cartesian functions: 954
    Spherical Harmonics?: false
    Max angular momentum: 3

  ==> DFT Potential <==

   => Composite Functional: B3LYP-D3ZERO <= 

    B3LYP-d3zero Hyb-GGA Exchange-Correlation Functional

    P. J. Stephens, F. J. Devlin, C. F. Chabalowski, and M. J. Frisch, J. Phys. Chem. 98, 11623 (1994)

    Deriv               =              1
    GGA                 =           TRUE
    Meta                =          FALSE

    Exchange Hybrid     =           TRUE
    MP2 Hybrid          =          FALSE

   => Exchange Functionals <=

    0.0800   Slater exchange
    0.7200         Becke 88

   => Exact (HF) Exchange <=

    0.2000               HF 

   => Correlation Functionals <=

    0.1900   Vosko, Wilk & Nusair (VWN5_RPA)
    0.8100   Lee, Yang & Parr

   => Molecular Quadrature <=

    Radial Scheme       =       TREUTLER
    Pruning Scheme      =           FLAT
    Nuclear Scheme      =       TREUTLER

    BS radius alpha     =              1
    Pruning alpha       =              1
    Radial Points       =             75
    Spherical Points    =            302
    Total Points        =         396504
    Total Blocks        =           2951
    Max Points          =            256
    Max Functions       =            149


  -Total Gradient:
     Atom            X                  Y                   Z
    ------   -----------------  -----------------  -----------------
       1        0.000000006423     0.000000734798     0.000625042768
       2        0.005547397914     0.004919384471    -0.002712859436
       3        0.000109173707    -0.001848166979     0.001167636357
       4       -0.000000000462    -0.000000036664     0.000589751131
       5       -0.000109165902     0.001848411597     0.001167782893
       6       -0.005547409555    -0.004920904906    -0.002713240819
       7       -0.000000045568     0.000000197458    -0.001001335526
       8       -0.002443797975    -0.001170430411    -0.005362721141
       9       -0.000641524963     0.000099906205    -0.000063347538
      10        0.000000000146     0.000000005468     0.000116358108
      11        0.000641523420    -0.000099954822    -0.000063379200
      12        0.002443781166     0.001171165757    -0.005362231323
      13        0.003214049336    -0.000320720246     0.003278949362
      14       -0.003213909594     0.000320429425     0.003280241218
      15       -0.002222433125     0.000090832089    -0.000704138797
      16        0.002940587405     0.001159274187     0.004236465004
      17       -0.002940583877    -0.001159258336     0.004236465093
      18        0.002222351398    -0.000090869175    -0.000703272610


*** tstop() called on green.prib.upf.edu at Sat Sep 29 20:52:36 2018
Module time:
	user time   =      27.49 seconds =       0.46 minutes
	system time =       0.22 seconds =       0.00 minutes
	total time  =          7 seconds =       0.12 minutes
Total time:
	user time   =     123.66 seconds =       2.06 minutes
	system time =       0.70 seconds =       0.01 minutes
	total time  =         34 seconds =       0.57 minutes

			-----------------------------------------
			 OPTKING 2.0: for geometry optimizations 
			  - R.A. King,  Bethel University        
			-----------------------------------------
	At level 1: Red. Int., RFO, no backsteps, dynamic trust

	Internal coordinates to be generated automatically.
	Detected frag 1 with atoms:  1 2 3 4 5 6 7 8 9 10 11 12 13 14 15 16 17 18
	---Fragment 1 Bond Connectivity---
	 1 : 2 6 7
	 2 : 1 3 8
	 3 : 2 4 9
	 4 : 3 5 10
	 5 : 4 6 11
	 6 : 1 5 12
	 7 : 1 13 14
	 8 : 2
	 9 : 3
	 10 : 4
	 11 : 5
	 12 : 6
	 13 : 7 17 18
	 14 : 7 15 16
	 15 : 14
	 16 : 14
	 17 : 13
	 18 : 13

	Assuming in current code that numbering for constraints corresponds to unified fragment.
	Frozen dihedral atom list: 
	     2     1     7    13
	---Fragment 1 Geometry and Gradient---
	 C           0.0000000000        0.0000000000       -0.3361142489
	 C           0.0693113751        2.3042829136        0.9905282984
	 C           0.0600271506        2.2924645663        3.6196645829
	 C           0.0000000000        0.0000000000        4.9323874075
	 C          -0.0600271506       -2.2924645663        3.6196645829
	 C          -0.0693113751       -2.3042848033        0.9905282984
	 C           0.0000000000        0.0000000000       -3.1080968214
	 H           0.0343363238        4.0906996085       -0.0205110874
	 H           0.0801281675        4.0683819429        4.6447314059
	 H           0.0000000000        0.0000000000        6.9839666940
	 H          -0.0801281675       -4.0683819429        4.6447314059
	 H          -0.0343363238       -4.0906996085       -0.0205091977
	 N           0.3135660367       -2.1554443039       -4.3623590784
	 N          -0.3135660367        2.1554443039       -4.3623571887
	 H          -0.5022419630        2.2326415061       -6.2663261875
	 H          -0.2430887006        3.8208977393       -3.4266706324
	 H           0.2430887006       -3.8208977393       -3.4266725221
	 H           0.5022419630       -2.2326415061       -6.2663261875
	             0.0000000064        0.0000007348        0.0006250428
	             0.0055473979        0.0049193845       -0.0027128594
	             0.0001091737       -0.0018481670        0.0011676364
	            -0.0000000005       -0.0000000367        0.0005897511
	            -0.0001091659        0.0018484116        0.0011677829
	            -0.0055474096       -0.0049209049       -0.0027132408
	            -0.0000000456        0.0000001975       -0.0010013355
	            -0.0024437980       -0.0011704304       -0.0053627211
	            -0.0006415250        0.0000999062       -0.0000633475
	             0.0000000001        0.0000000055        0.0001163581
	             0.0006415234       -0.0000999548       -0.0000633792
	             0.0024437812        0.0011711658       -0.0053622313
	             0.0032140493       -0.0003207202        0.0032789494
	            -0.0032139096        0.0003204294        0.0032802412
	            -0.0022224331        0.0000908321       -0.0007041388
	             0.0029405874        0.0011592742        0.0042364650
	            -0.0029405839       -0.0011592583        0.0042364651
	             0.0022223514       -0.0000908692       -0.0007032726

	Previous optimization step data not found.  Starting new optimization.

	---Fragment 1 Intrafragment Coordinates---
	 - Coordinate -           - BOHR/RAD -       - ANG/DEG -
	 R(1,2)           =         2.659794	       1.407502
	 R(1,6)           =         2.659796	       1.407503
	 R(1,7)           =         2.771983	       1.466870
	 R(2,3)           =         2.629179	       1.391302
	 R(2,8)           =         2.052976	       1.086388
	 R(3,4)           =         2.642393	       1.398294
	 R(3,9)           =         2.050622	       1.085142
	 R(4,5)           =         2.642393	       1.398294
	 R(4,10)          =         2.051579	       1.085649
	 R(5,6)           =         2.629179	       1.391302
	 R(5,11)          =         2.050622	       1.085142
	 R(6,12)          =         2.052973	       1.086386
	 R(7,13)          =         2.513451	       1.330061
	 R(7,14)          =         2.513450	       1.330061
	 R(13,17)         =         1.911599	       1.011575
	 R(13,18)         =         1.914850	       1.013295
	 R(14,15)         =         1.914851	       1.013296
	 R(14,16)         =         1.911599	       1.011575
	 B(1,2,3)         =         2.088380	     119.655376
	 B(1,2,8)         =         2.103396	     120.515689
	 B(1,6,5)         =         2.088379	     119.655315
	 B(1,6,12)        =         2.103396	     120.515729
	 B(1,7,13)        =         2.093264	     119.935179
	 B(1,7,14)        =         2.093263	     119.935142
	 B(2,1,6)         =         2.097220	     120.161857
	 B(2,1,7)         =         2.092983	     119.919082
	 B(2,3,4)         =         2.095279	     120.050636
	 B(2,3,9)         =         2.089719	     119.732108
	 B(3,2,8)         =         2.090149	     119.756722
	 B(3,4,5)         =         2.101793	     120.423859
	 B(3,4,10)        =         2.090696	     119.788070
	 B(4,3,9)         =         2.098135	     120.214297
	 B(4,5,6)         =         2.095280	     120.050677
	 B(4,5,11)        =         2.098135	     120.214297
	 B(5,4,10)        =         2.090696	     119.788070
	 B(5,6,12)        =         2.090149	     119.756743
	 B(6,1,7)         =         2.092982	     119.919061
	 B(6,5,11)        =         2.089719	     119.732067
	 B(7,13,17)       =         2.092411	     119.886337
	 B(7,13,18)       =         2.144860	     122.891446
	 B(7,14,15)       =         2.144860	     122.891406
	 B(7,14,16)       =         2.092412	     119.886374
	 B(13,7,14)       =         2.096658	     120.129680
	 B(15,14,16)      =         2.043399	     117.078158
	 B(17,13,18)      =         2.043399	     117.078156
	 D(1,2,3,4)       =         0.007799	       0.446825
	 D(1,2,3,9)       =        -3.122896	    -178.928735
	 D(1,6,5,4)       =         0.007799	       0.446822
	 D(1,6,5,11)      =        -3.122896	    -178.928737
	 D(1,7,13,17)     =         0.187845	      10.762703
	 D(1,7,13,18)     =        -3.032165	    -173.730283
	 D(1,7,14,15)     =        -3.032166	    -173.730292
	 D(1,7,14,16)     =         0.187845	      10.762707
	 D(2,1,6,5)       =        -0.003906	      -0.223802
	 D(2,1,6,12)      =        -3.091437	    -177.126283
	*D(2,1,7,13)      =         2.967059	     169.999986
	 D(2,1,7,14)      =        -0.174533	     -10.000014
	 D(2,3,4,5)       =        -0.003942	      -0.225875
	 D(2,3,4,10)      =         3.137650	     179.774125
	 D(3,2,1,6)       =        -0.003906	      -0.223806
	 D(3,2,1,7)       =         3.137687	     179.776196
	 D(3,4,5,6)       =        -0.003942	      -0.225874
	 D(3,4,5,11)      =         3.126699	     179.146646
	 D(4,3,2,8)       =         3.095744	     177.373058
	 D(4,5,6,12)      =         3.095744	     177.373055
	 D(5,4,3,9)       =         3.126699	     179.146646
	 D(5,6,1,7)       =         3.137687	     179.776197
	 D(6,1,2,8)       =        -3.091437	    -177.126287
	 D(6,1,7,13)      =        -0.174533	     -10.000013
	 D(6,1,7,14)      =         2.967060	     169.999987
	 D(6,5,4,10)      =         3.137650	     179.774126
	 D(7,1,2,8)       =         0.050156	       2.873714
	 D(7,1,6,12)      =         0.050156	       2.873716
	 D(8,2,3,9)       =        -0.034950	      -2.002503
	 D(9,3,4,10)      =        -0.014894	      -0.853354
	 D(10,4,5,11)     =        -0.014894	      -0.853354
	 D(11,5,6,12)     =        -0.034950	      -2.002504
	 D(13,7,14,15)    =         0.109427	       6.269708
	 D(13,7,14,16)    =        -2.953748	    -169.237293
	 D(14,7,13,17)    =        -2.953748	    -169.237297
	 D(14,7,13,18)    =         0.109427	       6.269717

	Current energy   :      -381.4630477645

	Generating empirical Hessian (Schlegel '84) for each fragment.
	Taking RFO optimization step.
	Going to follow RFO solution 1.
	Using RFO vector 1.
	Norm of target step-size    0.28086
	Projected energy change by RFO approximation:        -0.0085713962

	Back-transformation to cartesian coordinates...
	Successfully converged to displaced geometry.

	Back-transformation to cartesian coordinates to adjust frozen coordinates...
	Successfully converged to displaced geometry.

	--- Internal Coordinate Step in ANG or DEG, aJ/ANG or AJ/DEG ---
	 ---------------------------------------------------------------------------
	   Coordinate                Previous        Force       Change         New 
	   ----------                --------       ------       ------       ------
	    1 R(1,2)          =      1.407502     0.030611     0.004556     1.412059
	    2 R(1,6)          =      1.407503     0.030605     0.004561     1.412064
	    3 R(1,7)          =      1.466870     0.103961     0.018209     1.485079
	    4 R(2,3)          =      1.391302    -0.012185    -0.001652     1.389650
	    5 R(2,8)          =      1.086388    -0.013713    -0.002461     1.083927
	    6 R(3,4)          =      1.398294    -0.019680    -0.002900     1.395394
	    7 R(3,9)          =      1.085142    -0.000397    -0.000071     1.085071
	    8 R(4,5)          =      1.398294    -0.019680    -0.002896     1.395398
	    9 R(4,10)         =      1.085649    -0.000953    -0.000171     1.085478
	   10 R(5,6)          =      1.391302    -0.012187    -0.001643     1.389659
	   11 R(5,11)         =      1.085142    -0.000398    -0.000071     1.085071
	   12 R(6,12)         =      1.086386    -0.013706    -0.002460     1.083927
	   13 R(7,13)         =      1.330061     0.014335     0.001533     1.331595
	   14 R(7,14)         =      1.330061     0.014339     0.001534     1.331594
	   15 R(13,17)        =      1.011575    -0.026296    -0.003651     1.007924
	   16 R(13,18)        =      1.013295    -0.007601    -0.001062     1.012233
	   17 R(14,15)        =      1.013296    -0.007608    -0.001063     1.012233
	   18 R(14,16)        =      1.011575    -0.026296    -0.003651     1.007924
	   19 B(1,2,3)        =    119.655376     0.000337     1.130129   120.785505
	   20 B(1,2,8)        =    120.515689     0.000247     1.336656   121.852345
	   21 B(1,6,5)        =    119.655315     0.000337     1.126949   120.782264
	   22 B(1,6,12)       =    120.515729     0.000247     1.342690   121.858419
	   23 B(1,7,13)       =    119.935179     0.000614     1.806489   121.741668
	   24 B(1,7,14)       =    119.935142     0.000614     1.806311   121.741452
	   25 B(2,1,6)        =    120.161857    -0.000679    -1.978040   118.183816
	   26 B(2,1,7)        =    119.919082     0.000339     0.991631   120.910712
	   27 B(2,3,4)        =    120.050636     0.000043     0.052442   120.103078
	   28 B(2,3,9)        =    119.732108    -0.000014     0.013227   119.745335
	   29 B(3,2,8)        =    119.756722    -0.000578    -2.398819   117.357903
	   30 B(3,4,5)        =    120.423859    -0.000081    -0.397470   120.026390
	   31 B(3,4,10)       =    119.788070     0.000040     0.198530   119.986600
	   32 B(4,3,9)        =    120.214297    -0.000029    -0.062866   120.151431
	   33 B(4,5,6)        =    120.050677     0.000043     0.054580   120.105257
	   34 B(4,5,11)       =    120.214297    -0.000029    -0.065557   120.148740
	   35 B(5,4,10)       =    119.788070     0.000040     0.198938   119.987008
	   36 B(5,6,12)       =    119.756743    -0.000578    -2.401870   117.354873
	   37 B(6,1,7)        =    119.919061     0.000339     0.986274   120.905336
	   38 B(6,5,11)       =    119.732067    -0.000014     0.013741   119.745807
	   39 B(7,13,17)      =    119.886337     0.000357     1.608422   121.494759
	   40 B(7,13,18)      =    122.891446    -0.000195    -0.926050   121.965396
	   41 B(7,14,15)      =    122.891406    -0.000195    -0.926438   121.964968
	   42 B(7,14,16)      =    119.886374     0.000357     1.590665   121.477039
	   43 B(13,7,14)      =    120.129680    -0.001228    -3.612930   116.516749
	   44 B(15,14,16)     =    117.078158    -0.000160    -0.624375   116.453783
	   45 B(17,13,18)     =    117.078156    -0.000160    -0.642448   116.435708
	   46 D(1,2,3,4)      =      0.446825    -0.000012    -1.524965    -1.078140
	   47 D(1,2,3,9)      =   -178.928735    -0.000016    -2.005668  -180.934403
	   48 D(1,6,5,4)      =      0.446822    -0.000012    -1.575281    -1.128459
	   49 D(1,6,5,11)     =   -178.928737    -0.000016    -2.039009  -180.967746
	   50 D(1,7,13,17)    =     10.762703    -0.000034    -4.166216     6.596487
	   51 D(1,7,13,18)    =   -173.730283    -0.000028    -3.516414  -177.246697
	   52 D(1,7,14,15)    =   -173.730292    -0.000029    -3.645988  -177.376280
	   53 D(1,7,14,16)    =     10.762707    -0.000034    -4.295125     6.467582
	   54 D(2,1,6,5)      =     -0.223802     0.000006     0.837355     0.613554
	   55 D(2,1,6,12)     =   -177.126283    -0.000019    -3.047429  -180.173712
	   56 *D(2,1,7,13)    =    169.999986     0.000000    -0.000000   169.999986
	   57 D(2,1,7,14)     =    -10.000014     0.000001     0.135984    -9.864030
	   58 D(2,3,4,5)      =     -0.225875     0.000006     0.788287     0.562411
	   59 D(2,3,4,10)     =    179.774125     0.000006     0.771049   180.545174
	   60 D(3,2,1,6)      =     -0.223806     0.000006     0.714132     0.490326
	   61 D(3,2,1,7)      =    179.776196     0.000006     0.846757   180.622953
	   62 D(3,4,5,6)      =     -0.225874     0.000006     0.762331     0.536457
	   63 D(3,4,5,11)     =    179.146646     0.000010     1.228445   180.375092
	   64 D(4,3,2,8)      =    177.373058     0.000020     2.284819   179.657876
	   65 D(4,5,6,12)     =    177.373055     0.000019     2.251337   179.624393
	   66 D(5,4,3,9)      =    179.146646     0.000010     1.271439   180.418086
	   67 D(5,6,1,7)      =    179.776197     0.000006     0.704737   180.480934
	   68 D(6,1,2,8)      =   -177.126287    -0.000020    -3.152976  -180.279263
	   69 D(6,1,7,13)     =    -10.000013     0.000001     0.136246    -9.863767
	   70 D(6,1,7,14)     =    169.999987     0.000002     0.272229   170.272217
	   71 D(6,5,4,10)     =    179.774126     0.000006     0.779569   180.553694
	   72 D(7,1,2,8)      =      2.873714    -0.000019    -3.020350    -0.146636
	   73 D(7,1,6,12)     =      2.873716    -0.000020    -3.180047    -0.306331
	   74 D(8,2,3,9)      =     -2.002503     0.000016     1.804116    -0.198386
	   75 D(9,3,4,10)     =     -0.853354     0.000010     1.254202     0.400848
	   76 D(10,4,5,11)    =     -0.853354     0.000010     1.245683     0.392329
	   77 D(11,5,6,12)    =     -2.002504     0.000016     1.787609    -0.214895
	   78 D(13,7,14,15)   =      6.269708    -0.000028    -3.516748     2.752960
	   79 D(13,7,14,16)   =   -169.237293    -0.000034    -4.165885  -173.403178
	   80 D(14,7,13,17)   =   -169.237297    -0.000034    -4.295456  -173.532753
	   81 D(14,7,13,18)   =      6.269717    -0.000029    -3.645655     2.624063
	 ---------------------------------------------------------------------------
	Successfully symmetrized geometry.

  ==> Convergence Check <==

  Measures of convergence in internal coordinates in au.
  Criteria marked as inactive (o), active & met (*), and active & unmet ( ).
  --------------------------------------------------------------------------------------------- ~
   Step     Total Energy     Delta E     MAX Force     RMS Force      MAX Disp      RMS Disp    ~
  --------------------------------------------------------------------------------------------- ~
    Convergence Criteria    1.00e-06 *    3.00e-04 *             o    1.20e-03 *             o  ~
  --------------------------------------------------------------------------------------------- ~
      1    -381.46304776   -3.81e+02      1.61e-02      3.57e-03 o    7.50e-02      3.12e-02 o  ~
  ---------------------------------------------------------------------------------------------

	Writing optimization data to binary file.
	Structure for next step:
	Cartesian Geometry (in Angstrom)
	    C    -0.0017442956  -0.0000332407  -0.1697533168
	    C     0.0095978645   1.2114251438   0.5556084262
	    C     0.0192433363   1.2083354618   1.9452216962
	    C    -0.0049064117  -0.0000585639   2.6425908376
	    C    -0.0269496807  -1.2084407129   1.9451224659
	    C    -0.0136525282  -1.2115388986   0.5555304765
	    C     0.0017837376  -0.0000873698  -1.6548282574
	    H     0.0235259891   2.1750664398   0.0595255000
	    H     0.0432549559   2.1490196081   2.4855143531
	    H    -0.0062628742  -0.0000723414   3.7280683472
	    H    -0.0518889957  -2.1491275233   2.4853683778
	    H    -0.0254978436  -2.1752231691   0.0594770276
	    N     0.1880529464  -1.1173908657  -2.3548859169
	    N    -0.1785052026   1.1176025820  -2.3558338980
	    H    -0.2156126510   1.1156143879  -3.3673844575
	    H    -0.2281182197   2.0184503060  -1.9064759349
	    H     0.2357963274  -2.0184248483  -1.9056988521
	    H     0.2318835458  -1.1151173957  -3.3661668744
			--------------------------
			 OPTKING Finished Execution 
			--------------------------

    Structure for next step:
    Molecular point group: c1
    Full point group: C1

    Geometry (in Angstrom), charge = 1, multiplicity = 1:

    C           -0.001744295640    -0.000033240733    -0.169753316839
    C            0.009597864514     1.211425143796     0.555608426156
    C            0.019243336277     1.208335461810     1.945221696185
    C           -0.004906411669    -0.000058563894     2.642590837594
    C           -0.026949680741    -1.208440712871     1.945122465914
    C           -0.013652528239    -1.211538898605     0.555530476474
    C            0.001783737582    -0.000087369836    -1.654828257442
    H            0.023525989085     2.175066439833     0.059525500020
    H            0.043254955923     2.149019608103     2.485514353056
    H           -0.006262874195    -0.000072341417     3.728068347213
    H           -0.051888995677    -2.149127523344     2.485368377785
    H           -0.025497843616    -2.175223169051     0.059477027640
    N            0.188052946392    -1.117390865724    -2.354885916898
    N           -0.178505202552     1.117602582012    -2.355833897951
    H           -0.215612650978     1.115614387933    -3.367384457519
    H           -0.228118219691     2.018450306036    -1.906475934893
    H            0.235796327427    -2.018424848314    -1.905698852077
    H            0.231883545797    -1.115117395736    -3.366166874418

gradient() will perform analytic gradient computation.

*** tstart() called on green.prib.upf.edu
*** at Sat Sep 29 20:52:36 2018

   => Loading Basis Set <=

    Name: 6-31G*
    Role: ORBITAL
    Keyword: BASIS
    atoms 1-7         entry C          line   111 file /shared/joao/test_parameterize/miniconda3/share/psi4/basis/6-31gs.gbs 
    atoms 8-12, 15-18 entry H          line    44 file /shared/joao/test_parameterize/miniconda3/share/psi4/basis/6-31gs.gbs 
    atoms 13-14       entry N          line   128 file /shared/joao/test_parameterize/miniconda3/share/psi4/basis/6-31gs.gbs 


         ---------------------------------------------------------
                                   SCF
            by Justin Turney, Rob Parrish, Andy Simmonett
                             and Daniel Smith
                              RKS Reference
                        4 Threads,   2861 MiB Core
         ---------------------------------------------------------

  ==> Geometry <==

    Molecular point group: c1
    Full point group: C1

    Geometry (in Angstrom), charge = 1, multiplicity = 1:

       Center              X                  Y                   Z               Mass       
    ------------   -----------------  -----------------  -----------------  -----------------
         C           -0.001744295640    -0.000033240733    -0.169753316839    12.000000000000
         C            0.009597864514     1.211425143796     0.555608426156    12.000000000000
         C            0.019243336277     1.208335461810     1.945221696185    12.000000000000
         C           -0.004906411669    -0.000058563894     2.642590837594    12.000000000000
         C           -0.026949680741    -1.208440712871     1.945122465914    12.000000000000
         C           -0.013652528239    -1.211538898605     0.555530476474    12.000000000000
         C            0.001783737582    -0.000087369836    -1.654828257442    12.000000000000
         H            0.023525989085     2.175066439833     0.059525500020     1.007825032070
         H            0.043254955923     2.149019608103     2.485514353056     1.007825032070
         H           -0.006262874195    -0.000072341417     3.728068347213     1.007825032070
         H           -0.051888995677    -2.149127523344     2.485368377785     1.007825032070
         H           -0.025497843616    -2.175223169051     0.059477027640     1.007825032070
         N            0.188052946392    -1.117390865724    -2.354885916898    14.003074004780
         N           -0.178505202552     1.117602582012    -2.355833897951    14.003074004780
         H           -0.215612650978     1.115614387933    -3.367384457519     1.007825032070
         H           -0.228118219691     2.018450306036    -1.906475934893     1.007825032070
         H            0.235796327427    -2.018424848314    -1.905698852077     1.007825032070
         H            0.231883545797    -1.115117395736    -3.366166874418     1.007825032070

  Running in c1 symmetry.

  Rotational constants: A =      0.12397  B =      0.03937  C =      0.02998 [cm^-1]
  Rotational constants: A =   3716.54587  B =   1180.38574  C =    898.77553 [MHz]
  Nuclear repulsion =  415.549953990520407

  Charge       = 1
  Multiplicity = 1
  Electrons    = 64
  Nalpha       = 32
  Nbeta        = 32

  ==> Algorithm <==

  SCF Algorithm Type is DF.
  DIIS enabled.
  MOM disabled.
  Fractional occupation disabled.
  Guess Type is READ.
  Energy threshold   = 1.00e-08
  Density threshold  = 1.00e-08
  Integral threshold = 0.00e+00

  ==> Primary Basis <==

  Basis Set: 6-31G*
    Blend: 6-31G*
    Number of shells: 72
    Number of basis function: 153
    Number of Cartesian functions: 153
    Spherical Harmonics?: false
    Max angular momentum: 2

  ==> DFT Potential <==

   => Composite Functional: B3LYP-D3ZERO <= 

    B3LYP-d3zero Hyb-GGA Exchange-Correlation Functional

    P. J. Stephens, F. J. Devlin, C. F. Chabalowski, and M. J. Frisch, J. Phys. Chem. 98, 11623 (1994)

    Deriv               =              1
    GGA                 =           TRUE
    Meta                =          FALSE

    Exchange Hybrid     =           TRUE
    MP2 Hybrid          =          FALSE

   => Exchange Functionals <=

    0.0800   Slater exchange
    0.7200         Becke 88

   => Exact (HF) Exchange <=

    0.2000               HF 

   => Correlation Functionals <=

    0.1900   Vosko, Wilk & Nusair (VWN5_RPA)
    0.8100   Lee, Yang & Parr

   => Molecular Quadrature <=

    Radial Scheme       =       TREUTLER
    Pruning Scheme      =           FLAT
    Nuclear Scheme      =       TREUTLER

    BS radius alpha     =              1
    Pruning alpha       =              1
    Radial Points       =             75
    Spherical Points    =            302
    Total Points        =         396545
    Total Blocks        =           2978
    Max Points          =            256
    Max Functions       =            148

   => -D3ZERO: Empirical Dispersion <=

    Grimme's -D3 (zero-damping) Dispersion Correction
    Grimme S.; Antony J.; Ehrlich S.; Krieg H. (2010), J. Chem. Phys., 132: 154104

        S6 =   1.000000E+00
        S8 =   1.703000E+00
       SR6 =   1.261000E+00
       SR8 =   1.000000E+00
    ALPHA6 =   1.400000E+01

   => Loading Basis Set <=

    Name: (6-31G* AUX)
    Role: JKFIT
    Keyword: DF_BASIS_SCF
    atoms 1-7         entry C          line   121 file /shared/joao/test_parameterize/miniconda3/share/psi4/basis/cc-pvdz-jkfit.gbs 
    atoms 8-12, 15-18 entry H          line    51 file /shared/joao/test_parameterize/miniconda3/share/psi4/basis/cc-pvdz-jkfit.gbs 
    atoms 13-14       entry N          line   171 file /shared/joao/test_parameterize/miniconda3/share/psi4/basis/cc-pvdz-jkfit.gbs 

  Reading orbitals from file 180, no projection.

  ==> Pre-Iterations <==

   -------------------------------------------------------
    Irrep   Nso     Nmo     Nalpha   Nbeta   Ndocc  Nsocc
   -------------------------------------------------------
     A        153     153       0       0       0       0
   -------------------------------------------------------
    Total     153     153      32      32      32       0
   -------------------------------------------------------

  ==> Integral Setup <==

  ==> DiskDFJK: Density-Fitted J/K Matrices <==

    J tasked:                  Yes
    K tasked:                  Yes
    wK tasked:                  No
    OpenMP threads:              4
    Integrals threads:           4
    Memory (MB):              2002
    Algorithm:                Core
    Integral Cache:           NONE
    Schwarz Cutoff:          1E-12
    Fitting Condition:       1E-12

   => Auxiliary Basis Set <=

  Basis Set: (6-31G* AUX)
    Blend: CC-PVDZ-JKFIT
    Number of shells: 297
    Number of basis function: 954
    Number of Cartesian functions: 954
    Spherical Harmonics?: false
    Max angular momentum: 3

  Minimum eigenvalue in the overlap matrix is 4.5957620924E-04.
  Using Symmetric Orthogonalization.

  SCF Guess: Orbitals guess was supplied from a previous computation.

  ==> Iterations <==

                           Total Energy        Delta E     RMS |[F,P]|

   @DF-RKS iter   0:  -381.44461543874797   -3.81445e+02   1.39658e-03 
   @DF-RKS iter   1:  -381.46505440943668   -2.04390e-02   1.66324e-04 
   @DF-RKS iter   2:  -381.46500366260403    5.07468e-05   2.23858e-04 DIIS
   @DF-RKS iter   3:  -381.46516535208133   -1.61689e-04   5.22503e-05 DIIS
   @DF-RKS iter   4:  -381.46517250879964   -7.15672e-06   2.55200e-05 DIIS
   @DF-RKS iter   5:  -381.46517438824435   -1.87944e-06   5.88869e-06 DIIS
   @DF-RKS iter   6:  -381.46517449112235   -1.02878e-07   1.68573e-06 DIIS
   @DF-RKS iter   7:  -381.46517449937926   -8.25690e-09   2.54313e-07 DIIS
   @DF-RKS iter   8:  -381.46517449952501   -1.45747e-10   1.29428e-07 DIIS
   @DF-RKS iter   9:  -381.46517449957196   -4.69527e-11   1.64663e-08 DIIS
   @DF-RKS iter  10:  -381.46517449957184    1.13687e-13   1.04471e-08 DIIS
   @DF-RKS iter  11:  -381.46517449957292   -1.08002e-12   1.72040e-09 DIIS

  ==> Post-Iterations <==

    Orbital Energies [Eh]
    ---------------------

    Doubly Occupied:                                                      

       1A    -14.565141     2A    -14.565130     3A    -10.500073  
       4A    -10.380664     5A    -10.361272     6A    -10.361259  
       7A    -10.345287     8A    -10.342180     9A    -10.342131  
      10A     -1.184620    11A     -1.088115    12A     -1.016511  
      13A     -0.927680    14A     -0.905507    15A     -0.848936  
      16A     -0.787949    17A     -0.775279    18A     -0.740275  
      19A     -0.736307    20A     -0.684955    21A     -0.670385  
      22A     -0.631577    23A     -0.610112    24A     -0.602234  
      25A     -0.582807    26A     -0.577883    27A     -0.518058  
      28A     -0.509773    29A     -0.500881    30A     -0.469523  
      31A     -0.413068    32A     -0.407404  

    Virtual:                                                              

      33A     -0.223500    34A     -0.154533    35A     -0.117306  
      36A     -0.116270    37A     -0.077101    38A     -0.073737  
      39A     -0.040536    40A     -0.029641    41A      0.014079  
      42A      0.024662    43A      0.028723    44A      0.066460  
      45A      0.075829    46A      0.085944    47A      0.113684  
      48A      0.127414    49A      0.155113    50A      0.186292  
      51A      0.240617    52A      0.247963    53A      0.301450  
      54A      0.345985    55A      0.351914    56A      0.372195  
      57A      0.393722    58A      0.396145    59A      0.418872  
      60A      0.419141    61A      0.436990    62A      0.451816  
      63A      0.457071    64A      0.468901    65A      0.474935  
      66A      0.476125    67A      0.482880    68A      0.492472  
      69A      0.500615    70A      0.536145    71A      0.565968  
      72A      0.589346    73A      0.632533    74A      0.649198  
      75A      0.662903    76A      0.693852    77A      0.696052  
      78A      0.703952    79A      0.713886    80A      0.748543  
      81A      0.775740    82A      0.783011    83A      0.797697  
      84A      0.813249    85A      0.842869    86A      0.864879  
      87A      0.901420    88A      0.922571    89A      0.968189  
      90A      1.030769    91A      1.055344    92A      1.059267  
      93A      1.073589    94A      1.082028    95A      1.139656  
      96A      1.172064    97A      1.177318    98A      1.272909  
      99A      1.290851   100A      1.321664   101A      1.322474  
     102A      1.339293   103A      1.353244   104A      1.366267  
     105A      1.394002   106A      1.454651   107A      1.510443  
     108A      1.602550   109A      1.630852   110A      1.647501  
     111A      1.652797   112A      1.742553   113A      1.744085  
     114A      1.805489   115A      1.817256   116A      1.856138  
     117A      1.895363   118A      1.925627   119A      1.944643  
     120A      1.975646   121A      1.981715   122A      2.020650  
     123A      2.028707   124A      2.086569   125A      2.103509  
     126A      2.121132   127A      2.154497   128A      2.224950  
     129A      2.255525   130A      2.264239   131A      2.312320  
     132A      2.347570   133A      2.437985   134A      2.481034  
     135A      2.494044   136A      2.505588   137A      2.519528  
     138A      2.595007   139A      2.610254   140A      2.657955  
     141A      2.736474   142A      2.893507   143A      3.001269  
     144A      3.258564   145A      3.644076   146A      3.689132  
     147A      3.895638   148A      3.945792   149A      3.962375  
     150A      4.040801   151A      4.171572   152A      4.259869  
     153A      4.546720  

    Final Occupation by Irrep:
              A 
    DOCC [    32 ]

  Energy converged.

  @DF-RKS Final Energy:  -381.46517449957292

   => Energetics <=

    Nuclear Repulsion Energy =            415.5499539905204074
    One-Electron Energy =               -1326.1778286220599057
    Two-Electron Energy =                 573.5789284691442163
    DFT Exchange-Correlation Energy =     -44.4047424471776182
    Empirical Dispersion Energy =          -0.0114858900000000
    VV10 Nonlocal Energy =                  0.0000000000000000
    Total Energy =                       -381.4651744995729246



Properties will be evaluated at   0.000000,   0.000000,   0.000000 [a0]

Properties computed using the SCF density matrix

  Nuclear Dipole Moment: [e a0]
     X:    -0.0489      Y:    -0.0014      Z:     0.4047

  Electronic Dipole Moment: [e a0]
     X:     0.0544      Y:     0.0013      Z:    -2.5966

  Dipole Moment: [e a0]
     X:     0.0055      Y:    -0.0000      Z:    -2.1919     Total:     2.1919

  Dipole Moment: [D]
     X:     0.0141      Y:    -0.0001      Z:    -5.5713     Total:     5.5714


*** tstop() called on green.prib.upf.edu at Sat Sep 29 20:52:57 2018
Module time:
	user time   =      77.08 seconds =       1.28 minutes
	system time =       0.30 seconds =       0.00 minutes
	total time  =         21 seconds =       0.35 minutes
Total time:
	user time   =     201.70 seconds =       3.36 minutes
	system time =       1.04 seconds =       0.02 minutes
	total time  =         55 seconds =       0.92 minutes

*** tstart() called on green.prib.upf.edu
*** at Sat Sep 29 20:52:57 2018


         ------------------------------------------------------------
                                   SCF GRAD                          
                          Rob Parrish, Justin Turney,                
                       Andy Simmonett, and Alex Sokolov              
         ------------------------------------------------------------

  ==> Geometry <==

    Molecular point group: c1
    Full point group: C1

    Geometry (in Angstrom), charge = 1, multiplicity = 1:

       Center              X                  Y                   Z               Mass       
    ------------   -----------------  -----------------  -----------------  -----------------
         C           -0.001744295640    -0.000033240733    -0.169753316839    12.000000000000
         C            0.009597864514     1.211425143796     0.555608426156    12.000000000000
         C            0.019243336277     1.208335461810     1.945221696185    12.000000000000
         C           -0.004906411669    -0.000058563894     2.642590837594    12.000000000000
         C           -0.026949680741    -1.208440712871     1.945122465914    12.000000000000
         C           -0.013652528239    -1.211538898605     0.555530476474    12.000000000000
         C            0.001783737582    -0.000087369836    -1.654828257442    12.000000000000
         H            0.023525989085     2.175066439833     0.059525500020     1.007825032070
         H            0.043254955923     2.149019608103     2.485514353056     1.007825032070
         H           -0.006262874195    -0.000072341417     3.728068347213     1.007825032070
         H           -0.051888995677    -2.149127523344     2.485368377785     1.007825032070
         H           -0.025497843616    -2.175223169051     0.059477027640     1.007825032070
         N            0.188052946392    -1.117390865724    -2.354885916898    14.003074004780
         N           -0.178505202552     1.117602582012    -2.355833897951    14.003074004780
         H           -0.215612650978     1.115614387933    -3.367384457519     1.007825032070
         H           -0.228118219691     2.018450306036    -1.906475934893     1.007825032070
         H            0.235796327427    -2.018424848314    -1.905698852077     1.007825032070
         H            0.231883545797    -1.115117395736    -3.366166874418     1.007825032070

  Nuclear repulsion =  415.549953990520407

  ==> Basis Set <==

  Basis Set: 6-31G*
    Blend: 6-31G*
    Number of shells: 72
    Number of basis function: 153
    Number of Cartesian functions: 153
    Spherical Harmonics?: false
    Max angular momentum: 2

  ==> DFJKGrad: Density-Fitted SCF Gradients <==

    Gradient:                    1
    J tasked:                  Yes
    K tasked:                  Yes
    wK tasked:                  No
    OpenMP threads:              4
    Integrals threads:           4
    Memory (MB):              2002
    Schwarz Cutoff:          0E+00
    Fitting Condition:       1E-12

   => Auxiliary Basis Set <=

  Basis Set: (6-31G* AUX)
    Blend: CC-PVDZ-JKFIT
    Number of shells: 297
    Number of basis function: 954
    Number of Cartesian functions: 954
    Spherical Harmonics?: false
    Max angular momentum: 3

  ==> DFT Potential <==

   => Composite Functional: B3LYP-D3ZERO <= 

    B3LYP-d3zero Hyb-GGA Exchange-Correlation Functional

    P. J. Stephens, F. J. Devlin, C. F. Chabalowski, and M. J. Frisch, J. Phys. Chem. 98, 11623 (1994)

    Deriv               =              1
    GGA                 =           TRUE
    Meta                =          FALSE

    Exchange Hybrid     =           TRUE
    MP2 Hybrid          =          FALSE

   => Exchange Functionals <=

    0.0800   Slater exchange
    0.7200         Becke 88

   => Exact (HF) Exchange <=

    0.2000               HF 

   => Correlation Functionals <=

    0.1900   Vosko, Wilk & Nusair (VWN5_RPA)
    0.8100   Lee, Yang & Parr

   => Molecular Quadrature <=

    Radial Scheme       =       TREUTLER
    Pruning Scheme      =           FLAT
    Nuclear Scheme      =       TREUTLER

    BS radius alpha     =              1
    Pruning alpha       =              1
    Radial Points       =             75
    Spherical Points    =            302
    Total Points        =         396545
    Total Blocks        =           2978
    Max Points          =            256
    Max Functions       =            148


  -Total Gradient:
     Atom            X                  Y                   Z
    ------   -----------------  -----------------  -----------------
       1       -0.000125488557     0.000038901269     0.003068870959
       2        0.000273038903     0.000999529347     0.002655519460
       3        0.000401086854    -0.000275536841     0.000303684770
       4       -0.000003266999    -0.000001322452    -0.001469943260
       5       -0.000406349678     0.000280304301     0.000302237827
       6       -0.000147910361    -0.001012465690     0.002619409320
       7       -0.000253270326    -0.000051127902    -0.002583179117
       8       -0.000691754661    -0.000978209084     0.001488000219
       9        0.000202365833    -0.000190660219     0.000482264547
      10        0.000003275592     0.000000828601    -0.000098153002
      11       -0.000207364130     0.000192327927     0.000483188303
      12        0.000715833640     0.000972436732     0.001502278024
      13        0.001715427141     0.002674447976    -0.003797007589
      14       -0.001534054485    -0.002618012806    -0.003840739531
      15       -0.000993356337    -0.000727458481    -0.000072456513
      16        0.002095684722    -0.001250779960    -0.000470477991
      17       -0.002049725748     0.001237238374    -0.000516553941
      18        0.001005805851     0.000709681580    -0.000060239214


*** tstop() called on green.prib.upf.edu at Sat Sep 29 20:53:04 2018
Module time:
	user time   =      26.96 seconds =       0.45 minutes
	system time =       0.21 seconds =       0.00 minutes
	total time  =          7 seconds =       0.12 minutes
Total time:
	user time   =     228.73 seconds =       3.81 minutes
	system time =       1.26 seconds =       0.02 minutes
	total time  =         62 seconds =       1.03 minutes

			-----------------------------------------
			 OPTKING 2.0: for geometry optimizations 
			  - R.A. King,  Bethel University        
			-----------------------------------------
	At level 1: Red. Int., RFO, no backsteps, dynamic trust

	Previous internal coordinate definitions found.
	---Fragment 1 Geometry and Gradient---
	 C          -0.0032962411       -0.0000628159       -0.3207872790
	 C           0.0181373354        2.2892617523        1.0499477626
	 C           0.0363646354        2.2834230995        3.6759362735
	 C          -0.0092717743       -0.0001106697        4.9937729643
	 C          -0.0509275160       -2.2836219952        3.6757487555
	 C          -0.0257995394       -2.2894767177        1.0498004590
	 C           0.0033707755       -0.0001651051       -3.1271722035
	 H           0.0444576764        4.1102798921        0.1124868930
	 H           0.0817400206        4.0610585135        4.6969414266
	 H          -0.0118351170       -0.0001367055        7.0450281809
	 H          -0.0980559911       -4.0612624438        4.6966655733
	 H          -0.0481839414       -4.1105760674        0.1123952934
	 N           0.3553685672       -2.1115627196       -4.4500894571
	 N          -0.3373259461        2.1119628054       -4.4518808817
	 H          -0.4074488611        2.1082056631       -6.3634344088
	 H          -0.4310809611        3.8143182912       -3.6027173959
	 H           0.4455904820       -3.8142701831       -3.6012489222
	 H           0.4381963963       -2.1072664840       -6.3611335102
	            -0.0001254886        0.0000389013        0.0030688710
	             0.0002730389        0.0009995293        0.0026555195
	             0.0004010869       -0.0002755368        0.0003036848
	            -0.0000032670       -0.0000013225       -0.0014699433
	            -0.0004063497        0.0002803043        0.0003022378
	            -0.0001479104       -0.0010124657        0.0026194093
	            -0.0002532703       -0.0000511279       -0.0025831791
	            -0.0006917547       -0.0009782091        0.0014880002
	             0.0002023658       -0.0001906602        0.0004822645
	             0.0000032756        0.0000008286       -0.0000981530
	            -0.0002073641        0.0001923279        0.0004831883
	             0.0007158336        0.0009724367        0.0015022780
	             0.0017154271        0.0026744480       -0.0037970076
	            -0.0015340545       -0.0026180128       -0.0038407395
	            -0.0009933563       -0.0007274585       -0.0000724565
	             0.0020956847       -0.0012507800       -0.0004704780
	            -0.0020497257        0.0012372384       -0.0005165539
	             0.0010058059        0.0007096816       -0.0000602392

	---Fragment 1 Intrafragment Coordinates---
	 - Coordinate -           - BOHR/RAD -       - ANG/DEG -
	 R(1,2)           =         2.668404	       1.412059
	 R(1,6)           =         2.668414	       1.412064
	 R(1,7)           =         2.806393	       1.485079
	 R(2,3)           =         2.626058	       1.389650
	 R(2,8)           =         2.048324	       1.083927
	 R(3,4)           =         2.636912	       1.395394
	 R(3,9)           =         2.050487	       1.085071
	 R(4,5)           =         2.636920	       1.395398
	 R(4,10)          =         2.051257	       1.085478
	 R(5,6)           =         2.626075	       1.389659
	 R(5,11)          =         2.050487	       1.085071
	 R(6,12)          =         2.048324	       1.083927
	 R(7,13)          =         2.516349	       1.331595
	 R(7,14)          =         2.516349	       1.331594
	 R(13,17)         =         1.904700	       1.007924
	 R(13,18)         =         1.912843	       1.012233
	 R(14,15)         =         1.912843	       1.012233
	 R(14,16)         =         1.904700	       1.007924
	 B(1,2,3)         =         2.108105	     120.785505
	 B(1,2,8)         =         2.126725	     121.852345
	 B(1,6,5)         =         2.108048	     120.782264
	 B(1,6,12)        =         2.126831	     121.858419
	 B(1,7,13)        =         2.124793	     121.741668
	 B(1,7,14)        =         2.124789	     121.741452
	 B(2,1,6)         =         2.062697	     118.183816
	 B(2,1,7)         =         2.110290	     120.910712
	 B(2,3,4)         =         2.096194	     120.103078
	 B(2,3,9)         =         2.089950	     119.745335
	 B(3,2,8)         =         2.048282	     117.357903
	 B(3,4,5)         =         2.094856	     120.026390
	 B(3,4,10)        =         2.094161	     119.986600
	 B(4,3,9)         =         2.097038	     120.151431
	 B(4,5,6)         =         2.096232	     120.105257
	 B(4,5,11)        =         2.096991	     120.148740
	 B(5,4,10)        =         2.094168	     119.987008
	 B(5,6,12)        =         2.048229	     117.354873
	 B(6,1,7)         =         2.110196	     120.905336
	 B(6,5,11)        =         2.089959	     119.745807
	 B(7,13,17)       =         2.120484	     121.494759
	 B(7,13,18)       =         2.128698	     121.965396
	 B(7,14,15)       =         2.128690	     121.964968
	 B(7,14,16)       =         2.120174	     121.477039
	 B(13,7,14)       =         2.033601	     116.516749
	 B(15,14,16)      =         2.032502	     116.453783
	 B(17,13,18)      =         2.032186	     116.435708
	 D(1,2,3,4)       =        -0.018817	      -1.078140
	 D(1,2,3,9)       =         3.125284	     179.065597
	 D(1,6,5,4)       =        -0.019695	      -1.128459
	 D(1,6,5,11)      =         3.124702	     179.032254
	 D(1,7,13,17)     =         0.115130	       6.596487
	 D(1,7,13,18)     =        -3.093538	    -177.246697
	 D(1,7,14,15)     =        -3.095800	    -177.376280
	 D(1,7,14,16)     =         0.112881	       6.467582
	 D(2,1,6,5)       =         0.010709	       0.613554
	 D(2,1,6,12)      =         3.138561	     179.826288
	*D(2,1,7,13)      =         2.967059	     169.999986
	 D(2,1,7,14)      =        -0.172160	      -9.864030
	 D(2,3,4,5)       =         0.009816	       0.562411
	 D(2,3,4,10)      =        -3.132078	    -179.454826
	 D(3,2,1,6)       =         0.008558	       0.490326
	 D(3,2,1,7)       =        -3.130720	    -179.377047
	 D(3,4,5,6)       =         0.009363	       0.536457
	 D(3,4,5,11)      =        -3.135046	    -179.624908
	 D(4,3,2,8)       =         3.135621	     179.657876
	 D(4,5,6,12)      =         3.135037	     179.624393
	 D(5,4,3,9)       =        -3.134296	    -179.581914
	 D(5,6,1,7)       =        -3.133199	    -179.519066
	 D(6,1,2,8)       =         3.136719	     179.720737
	 D(6,1,7,13)      =        -0.172155	      -9.863767
	 D(6,1,7,14)      =         2.971811	     170.272217
	 D(6,5,4,10)      =        -3.131929	    -179.446306
	 D(7,1,2,8)       =        -0.002559	      -0.146636
	 D(7,1,6,12)      =        -0.005346	      -0.306331
	 D(8,2,3,9)       =        -0.003462	      -0.198386
	 D(9,3,4,10)      =         0.006996	       0.400848
	 D(10,4,5,11)     =         0.006847	       0.392329
	 D(11,5,6,12)     =        -0.003751	      -0.214895
	 D(13,7,14,15)    =         0.048048	       2.752960
	 D(13,7,14,16)    =        -3.026456	    -173.403178
	 D(14,7,13,17)    =        -3.028718	    -173.532753
	 D(14,7,13,18)    =         0.045799	       2.624063

	Current energy   :      -381.4651744996

	Energy change for the previous step:
		Projected    :        -0.0085713962
		Actual       :        -0.0021267351
	Energy ratio indicates iffy step: Trust radius decreased to 1.250e-01.


	Performing BFGS update.
	Previous computed or guess Hessian on step 1.
	Steps to be used in Hessian update: 1
	Taking RFO optimization step.
	Going to follow RFO solution 1.
	Using RFO vector 1.

	Determining step-restricting scale parameter for RS-RFO.
	Maximum step size allowed    0.12500

	 Iter      |step|        alpha        rfo_root  
	------------------------------------------------
	    0     0.19404       1.00000           1
	    1     0.14822       5.79029           1
	    2     0.12920       9.36080           1
	    3     0.12519      10.31981           1
	    4     0.12500      10.36642           1
	------------------------------------------------
	Norm of target step-size    0.12500
	Projected energy change by RFO approximation:        -0.0008835226

	Back-transformation to cartesian coordinates...
	Successfully converged to displaced geometry.

	Back-transformation to cartesian coordinates to adjust frozen coordinates...
	Successfully converged to displaced geometry.

	--- Internal Coordinate Step in ANG or DEG, aJ/ANG or AJ/DEG ---
	 ---------------------------------------------------------------------------
	   Coordinate                Previous        Force       Change         New 
	   ----------                --------       ------       ------       ------
	    1 R(1,2)          =      1.412059    -0.026574    -0.002472     1.409587
	    2 R(1,6)          =      1.412064    -0.026592    -0.002474     1.409590
	    3 R(1,7)          =      1.485079    -0.093421    -0.010167     1.474912
	    4 R(2,3)          =      1.389650     0.000020    -0.000222     1.389429
	    5 R(2,8)          =      1.083927     0.012849     0.001447     1.085373
	    6 R(3,4)          =      1.395394     0.015511     0.001412     1.396806
	    7 R(3,9)          =      1.085071    -0.000654    -0.000100     1.084971
	    8 R(4,5)          =      1.395398     0.015485     0.001410     1.396808
	    9 R(4,10)         =      1.085478     0.000807     0.000088     1.085567
	   10 R(5,6)          =      1.389659    -0.000051    -0.000228     1.389431
	   11 R(5,11)         =      1.085071    -0.000648    -0.000099     1.084972
	   12 R(6,12)         =      1.083927     0.012852     0.001447     1.085374
	   13 R(7,13)         =      1.331595     0.012231     0.001228     1.332822
	   14 R(7,14)         =      1.331594     0.012293     0.001233     1.332828
	   15 R(13,17)        =      1.007924     0.011808     0.000774     1.008697
	   16 R(13,18)        =      1.012233    -0.000866    -0.000239     1.011994
	   17 R(14,15)        =      1.012233    -0.000907    -0.000243     1.011990
	   18 R(14,16)        =      1.007924     0.011788     0.000771     1.008695
	   19 B(1,2,3)        =    120.785505    -0.000120    -0.180235   120.605270
	   20 B(1,2,8)        =    121.852345    -0.000008     0.081890   121.934235
	   21 B(1,6,5)        =    120.782264    -0.000119    -0.160499   120.621765
	   22 B(1,6,12)       =    121.858419    -0.000009     0.112431   121.970851
	   23 B(1,7,13)       =    121.741668    -0.000402    -0.669058   121.072610
	   24 B(1,7,14)       =    121.741452    -0.000401    -0.651324   121.090129
	   25 B(2,1,6)        =    118.183816     0.000316     0.391415   118.575231
	   26 B(2,1,7)        =    120.910712    -0.000159    -0.206213   120.704499
	   27 B(2,3,4)        =    120.103078    -0.000024     0.010942   120.114020
	   28 B(2,3,9)        =    119.745335    -0.000028    -0.143076   119.602258
	   29 B(3,2,8)        =    117.357903     0.000128     0.087269   117.445173
	   30 B(3,4,5)        =    120.026390    -0.000027    -0.048521   119.977868
	   31 B(3,4,10)       =    119.986600     0.000014     0.034589   120.021189
	   32 B(4,3,9)        =    120.151431     0.000052     0.132144   120.283575
	   33 B(4,5,6)        =    120.105257    -0.000025    -0.007693   120.097564
	   34 B(4,5,11)       =    120.148740     0.000052     0.124078   120.272818
	   35 B(5,4,10)       =    119.987008     0.000014     0.013932   120.000940
	   36 B(5,6,12)       =    117.354873     0.000128     0.037321   117.392194
	   37 B(6,1,7)        =    120.905336    -0.000157    -0.185145   120.720191
	   38 B(6,5,11)       =    119.745807    -0.000028    -0.116367   119.629440
	   39 B(7,13,17)      =    121.494759     0.000008     0.258743   121.753502
	   40 B(7,13,18)      =    121.965396     0.000039     0.036562   122.001958
	   41 B(7,14,15)      =    121.964968     0.000039     0.057426   122.022394
	   42 B(7,14,16)      =    121.477039     0.000011     0.195096   121.672135
	   43 B(13,7,14)      =    116.516749     0.000803     1.320324   117.837074
	   44 B(15,14,16)     =    116.453783    -0.000047    -0.199845   116.253938
	   45 B(17,13,18)     =    116.435708    -0.000044    -0.244761   116.190948
	   46 D(1,2,3,4)      =     -1.078140     0.000005     0.199177    -0.878964
	   47 D(1,2,3,9)      =    179.065597     0.000002    -0.083188   178.982409
	   48 D(1,6,5,4)      =     -1.128459     0.000006     0.294269    -0.834190
	   49 D(1,6,5,11)     =    179.032254     0.000003    -0.019514   179.012739
	   50 D(1,7,13,17)    =      6.596487    -0.000029    -2.854174     3.742314
	   51 D(1,7,13,18)    =   -177.246697    -0.000017    -1.775387  -179.022084
	   52 D(1,7,14,15)    =   -177.376280    -0.000014    -1.478749  -178.855029
	   53 D(1,7,14,16)    =      6.467582    -0.000027    -2.613475     3.854107
	   54 D(2,1,6,5)      =      0.613554    -0.000004    -0.242143     0.371411
	   55 D(2,1,6,12)     =    179.826288    -0.000006    -0.909877   178.916411
	   56 *D(2,1,7,13)    =    169.999986    -0.000000    -0.000000   169.999986
	   57 D(2,1,7,14)     =     -9.864030    -0.000003    -0.296872   -10.160902
	   58 D(2,3,4,5)      =      0.562411    -0.000003    -0.148841     0.413570
	   59 D(2,3,4,10)     =   -179.454826    -0.000002    -0.112165  -179.566991
	   60 D(3,2,1,6)      =      0.490326    -0.000001    -0.004254     0.486072
	   61 D(3,2,1,7)      =   -179.377047    -0.000004    -0.238064  -179.615111
	   62 D(3,4,5,6)      =      0.536457    -0.000002    -0.095320     0.441137
	   63 D(3,4,5,11)     =   -179.624908     0.000001     0.220110  -179.404799
	   64 D(4,3,2,8)      =    179.657876     0.000007     0.859865   180.517741
	   65 D(4,5,6,12)     =    179.624393     0.000008     0.931575   180.555968
	   66 D(5,4,3,9)      =   -179.581914    -0.000000     0.135064  -179.446850
	   67 D(5,6,1,7)      =   -179.519066    -0.000001    -0.008324  -179.527389
	   68 D(6,1,2,8)      =    179.720737    -0.000004    -0.695234   179.025503
	   69 D(6,1,7,13)     =     -9.863767    -0.000002    -0.239609   -10.103377
	   70 D(6,1,7,14)     =    170.272217    -0.000006    -0.536481   169.735735
	   71 D(6,5,4,10)     =   -179.446306    -0.000003    -0.131992  -179.578298
	   72 D(7,1,2,8)      =     -0.146636    -0.000006    -0.929043    -1.075679
	   73 D(7,1,6,12)     =     -0.306331    -0.000004    -0.676059    -0.982390
	   74 D(8,2,3,9)      =     -0.198386     0.000004     0.577500     0.379114
	   75 D(9,3,4,10)     =      0.400848     0.000000     0.171741     0.572589
	   76 D(10,4,5,11)    =      0.392329     0.000000     0.183437     0.575767
	   77 D(11,5,6,12)    =     -0.214895     0.000005     0.617792     0.402897
	   78 D(13,7,14,15)   =      2.752960    -0.000016    -1.763826     0.989135
	   79 D(13,7,14,16)   =   -173.403178    -0.000030    -2.898552  -176.301730
	   80 D(14,7,13,17)   =   -173.532753    -0.000027    -2.569126  -176.101878
	   81 D(14,7,13,18)   =      2.624063    -0.000014    -1.490339     1.133724
	 ---------------------------------------------------------------------------
	Successfully symmetrized geometry.

  ==> Convergence Check <==

  Measures of convergence in internal coordinates in au.
  Criteria marked as inactive (o), active & met (*), and active & unmet ( ).
  ---------------------------------------------------------------------------------------------
   Step     Total Energy     Delta E     MAX Force     RMS Force      MAX Disp      RMS Disp   
  ---------------------------------------------------------------------------------------------
    Convergence Criteria    1.00e-06 *    3.00e-04 *             o    1.20e-03 *             o
  ---------------------------------------------------------------------------------------------
      2    -381.46517450   -2.13e-03      1.13e-02      2.20e-03 o    5.06e-02      1.39e-02 o  ~
  ---------------------------------------------------------------------------------------------

	Writing optimization data to binary file.
	Structure for next step:
	Cartesian Geometry (in Angstrom)
	    C     0.0055991672   0.0002364760  -0.1754017253
	    C     0.0148100957   1.2111116244   0.5461459390
	    C    -0.0149246655   1.2070580496   1.9352504703
	    C    -0.0729157076  -0.0024901219   2.6314517566
	    C    -0.0923676283  -1.2107682589   1.9309114065
	    C    -0.0448664626  -1.2119147270   0.5422934370
	    C     0.0456258550   0.0017978796  -1.6497695224
	    H     0.0684840833   2.1748218789   0.0497423012
	    H     0.0094527487   2.1481622929   2.4745934311
	    H    -0.1031822174  -0.0036596063   3.7165958973
	    H    -0.1470908174  -2.1527254689   2.4665287809
	    H    -0.0717401476  -2.1750034886   0.0425196025
	    N     0.2357364771  -1.1261025262  -2.3339581951
	    N    -0.1102740419   1.1304656444  -2.3413138406
	    H    -0.1022866248   1.1452728824  -3.3531635721
	    H    -0.2027783074   2.0241043211  -1.8827083377
	    H     0.3025742664  -2.0212449228  -1.8738241235
	    H     0.2801439269  -1.1391229287  -3.3448937057
			--------------------------
			 OPTKING Finished Execution 
			--------------------------

    Structure for next step:
    Molecular point group: c1
    Full point group: C1

    Geometry (in Angstrom), charge = 1, multiplicity = 1:

    C            0.005599167232     0.000236475958    -0.175401725272
    C            0.014810095707     1.211111624398     0.546145939043
    C           -0.014924665547     1.207058049599     1.935250470282
    C           -0.072915707558    -0.002490121884     2.631451756648
    C           -0.092367628344    -1.210768258930     1.930911406453
    C           -0.044866462551    -1.211914726955     0.542293437047
    C            0.045625855042     0.001797879644    -1.649769522382
    H            0.068484083346     2.174821878943     0.049742301178
    H            0.009452748655     2.148162292889     2.474593431132
    H           -0.103182217361    -0.003659606302     3.716595897334
    H           -0.147090817372    -2.152725468852     2.466528780853
    H           -0.071740147615    -2.175003488611     0.042519602508
    N            0.235736477108    -1.126102526216    -2.333958195147
    N           -0.110274041889     1.130465644429    -2.341313840590
    H           -0.102286624753     1.145272882421    -3.353163572075
    H           -0.202778307353     2.024104321067    -1.882708337746
    H            0.302574266397    -2.021244922849    -1.873824123544
    H            0.280143926855    -1.139122928750    -3.344893705723

gradient() will perform analytic gradient computation.

*** tstart() called on green.prib.upf.edu
*** at Sat Sep 29 20:53:04 2018

   => Loading Basis Set <=

    Name: 6-31G*
    Role: ORBITAL
    Keyword: BASIS
    atoms 1-7         entry C          line   111 file /shared/joao/test_parameterize/miniconda3/share/psi4/basis/6-31gs.gbs 
    atoms 8-12, 15-18 entry H          line    44 file /shared/joao/test_parameterize/miniconda3/share/psi4/basis/6-31gs.gbs 
    atoms 13-14       entry N          line   128 file /shared/joao/test_parameterize/miniconda3/share/psi4/basis/6-31gs.gbs 


         ---------------------------------------------------------
                                   SCF
[...]
	            -0.0000053634        0.0000038010        0.0000048501
	             0.0000095649        0.0000148829       -0.0000184185
	            -0.0050880276       -0.0008609067        0.0001220044
	            -0.0000226942        0.0000414536       -0.0000461314
	             0.0000162932       -0.0000134931        0.0000043635
	             0.0000085052       -0.0000142777        0.0000059547
	            -0.0000037456        0.0000141934       -0.0000045108
	            -0.0000099040        0.0000168911        0.0000031031

	---Fragment 1 Intrafragment Coordinates---
	 - Coordinate -           - BOHR/RAD -       - ANG/DEG -
	 R(1,2)           =         2.663746	       1.409593
	 R(1,6)           =         2.663687	       1.409563
	 R(1,7)           =         2.774709	       1.468313
	 R(2,3)           =         2.626294	       1.389775
	 R(2,8)           =         2.052414	       1.086091
	 R(3,4)           =         2.641566	       1.397856
	 R(3,9)           =         2.050392	       1.085021
	 R(4,5)           =         2.640921	       1.397515
	 R(4,10)          =         2.051493	       1.085603
	 R(5,6)           =         2.626996	       1.390146
	 R(5,11)          =         2.050422	       1.085037
	 R(6,12)          =         2.051429	       1.085570
	 R(7,13)          =         2.519485	       1.333254
	 R(7,14)          =         2.517455	       1.332180
	 R(13,17)         =         1.909346	       1.010382
	 R(13,18)         =         1.913674	       1.012673
	 R(14,15)         =         1.913502	       1.012582
	 R(14,16)         =         1.908657	       1.010018
	 B(1,2,3)         =         2.100188	     120.331898
	 B(1,2,8)         =         2.114963	     121.178425
	 B(1,6,5)         =         2.099492	     120.292054
	 B(1,6,12)        =         2.116731	     121.279736
	 B(1,7,13)        =         2.107345	     120.741988
	 B(1,7,14)        =         2.106806	     120.711117
	 B(2,1,6)         =         2.077903	     119.055060
	 B(2,1,7)         =         2.103140	     120.501057
	 B(2,3,4)         =         2.095562	     120.066884
	 B(2,3,9)         =         2.088494	     119.661881
	 B(3,2,8)         =         2.065911	     118.367961
	 B(3,4,5)         =         2.096768	     120.135943
	 B(3,4,10)        =         2.093118	     119.926821
	 B(4,3,9)         =         2.099096	     120.269321
	 B(4,5,6)         =         2.096049	     120.094756
	 B(4,5,11)        =         2.098926	     120.259622
	 B(5,4,10)        =         2.093287	     119.936503
	 B(5,6,12)        =         2.065869	     118.365551
	 B(6,1,7)         =         2.098532	     120.237027
	 B(6,5,11)        =         2.088047	     119.636271
	 B(7,13,17)       =         2.106321	     120.683282
	 B(7,13,18)       =         2.131119	     122.104113
	 B(7,14,15)       =         2.134299	     122.286321
	 B(7,14,16)       =         2.110294	     120.910919
	 B(13,7,14)       =         2.067438	     118.455476
	 B(15,14,16)      =         2.033213	     116.494536
	 B(17,13,18)      =         2.029179	     116.263392
	 D(1,2,3,4)       =        -0.008791	      -0.503708
	 D(1,2,3,9)       =         3.124041	     178.994343
	 D(1,6,5,4)       =         0.018563	       1.063596
	 D(1,6,5,11)      =         3.140792	     179.954151
	 D(1,7,13,17)     =        -0.285889	     -16.380241
	 D(1,7,13,18)     =         3.057587	     175.186854
	 D(1,7,14,15)     =         3.085447	     176.783091
	 D(1,7,14,16)     =        -0.171352	      -9.817750
	 D(2,1,6,5)       =        -0.032267	      -1.848765
	 D(2,1,6,12)      =         3.058259	     175.225332
	*D(2,1,7,13)      =         2.967059	     169.999986
	 D(2,1,7,14)      =        -0.236148	     -13.530265
	 D(2,3,4,5)       =        -0.005347	      -0.306343
	 D(2,3,4,10)      =        -3.141500	    -179.994698
	 D(3,2,1,6)       =         0.027382	       1.568872
	 D(3,2,1,7)       =         3.077983	     176.355441
	 D(3,4,5,6)       =         0.000448	       0.025652
	 D(3,4,5,11)      =        -3.121660	    -178.857925
	 D(4,3,2,8)       =        -3.081210	    -176.540303
	 D(4,5,6,12)      =        -3.073432	    -176.094670
	 D(5,4,3,9)       =        -3.138125	    -179.801317
	 D(5,6,1,7)       =        -3.083114	    -176.649431
	 D(6,1,2,8)       =         3.097828	     177.492454
	 D(6,1,7,13)      =        -0.266602	     -15.275194
	 D(6,1,7,14)      =         2.813376	     161.194556
	 D(6,5,4,10)      =         3.136601	     179.713976
	 D(7,1,2,8)       =        -0.134756	      -7.720978
	 D(7,1,6,12)      =         0.007412	       0.424666
	 D(8,2,3,9)       =         0.051622	       2.957748
	 D(9,3,4,10)      =         0.008907	       0.510329
	 D(10,4,5,11)     =         0.014493	       0.830399
	 D(11,5,6,12)     =         0.048797	       2.795884
	 D(13,7,14,15)    =        -0.116377	      -6.667921
	 D(13,7,14,16)    =         2.910009	     166.731238
	 D(14,7,13,17)    =         2.915954	     167.071878
	 D(14,7,13,18)    =        -0.023754	      -1.361028

	Current energy   :      -381.4675267870

	Energy change for the previous step:
		Projected    :        -0.0000001392
		Actual       :        -0.0000003189

	Performing BFGS update.
	Previous computed or guess Hessian on step 1.
	Steps to be used in Hessian update: 8 7
	Taking RFO optimization step.
	Going to follow RFO solution 1.
	Rejecting RFO root 1 because normalization gives large value.
	Rejecting RFO root 2 because normalization gives large value.
	Using RFO vector 3.
	Norm of target step-size    0.00149
	Projected energy change by RFO approximation:        -0.0000000577

	Back-transformation to cartesian coordinates...
	Successfully converged to displaced geometry.

	Back-transformation to cartesian coordinates to adjust frozen coordinates...
	Successfully converged to displaced geometry.

	--- Internal Coordinate Step in ANG or DEG, aJ/ANG or AJ/DEG ---
	 ---------------------------------------------------------------------------
	   Coordinate                Previous        Force       Change         New 
	   ----------                --------       ------       ------       ------
	    1 R(1,2)          =      1.409593    -0.000223    -0.000031     1.409562
	    2 R(1,6)          =      1.409563    -0.000000    -0.000006     1.409557
	    3 R(1,7)          =      1.468313     0.000083     0.000012     1.468325
	    4 R(2,3)          =      1.389775     0.000086     0.000013     1.389788
	    5 R(2,8)          =      1.086091     0.000085     0.000017     1.086107
	    6 R(3,4)          =      1.397856     0.000036     0.000001     1.397857
	    7 R(3,9)          =      1.085021    -0.000007    -0.000001     1.085019
	    8 R(4,5)          =      1.397515     0.000017     0.000001     1.397516
	    9 R(4,10)         =      1.085603    -0.000017    -0.000003     1.085601
	   10 R(5,6)          =      1.390146     0.000061     0.000010     1.390156
	   11 R(5,11)         =      1.085037     0.000001    -0.000000     1.085036
	   12 R(6,12)         =      1.085570     0.000043     0.000014     1.085583
	   13 R(7,13)         =      1.333254    -0.000044    -0.000010     1.333244
	   14 R(7,14)         =      1.332180    -0.000233    -0.000028     1.332152
	   15 R(13,17)        =      1.010382     0.000121     0.000025     1.010407
	   16 R(13,18)        =      1.012673     0.000026     0.000005     1.012677
	   17 R(14,15)        =      1.012582     0.000041     0.000006     1.012588
	   18 R(14,16)        =      1.010018     0.000096     0.000014     1.010032
	   19 B(1,2,3)        =    120.331898     0.000001     0.004894   120.336792
	   20 B(1,2,8)        =    121.178425     0.000000     0.002936   121.181361
	   21 B(1,6,5)        =    120.292054     0.000001     0.004502   120.296557
	   22 B(1,6,12)       =    121.279736     0.000001     0.006343   121.286079
	   23 B(1,7,13)       =    120.741988     0.000001     0.002955   120.744943
	   24 B(1,7,14)       =    120.711117    -0.000003    -0.006253   120.704864
	   25 B(2,1,6)        =    119.055060    -0.000001    -0.006885   119.048175
	   26 B(2,1,7)        =    120.501057    -0.000002    -0.000765   120.500292
	   27 B(2,3,4)        =    120.066884     0.000000     0.001136   120.068020
	   28 B(2,3,9)        =    119.661881    -0.000001    -0.003484   119.658397
	   29 B(3,2,8)        =    118.367961    -0.000001    -0.007676   118.360285
	   30 B(3,4,5)        =    120.135943    -0.000001    -0.004783   120.131160
	   31 B(3,4,10)       =    119.926821     0.000001     0.002575   119.929395
	   32 B(4,3,9)        =    120.269321     0.000000     0.002229   120.271550
	   33 B(4,5,6)        =    120.094756     0.000000     0.001104   120.095860
	   34 B(4,5,11)       =    120.259622     0.000000     0.002261   120.261882
	   35 B(5,4,10)       =    119.936503     0.000000     0.002175   119.938678
	   36 B(5,6,12)       =    118.365551    -0.000002    -0.010949   118.354603
	   37 B(6,1,7)        =    120.237027     0.000003     0.007484   120.244510
	   38 B(6,5,11)       =    119.636271    -0.000001    -0.002892   119.633379
	   39 B(7,13,17)      =    120.683282    -0.000001    -0.004041   120.679241
	   40 B(7,13,18)      =    122.104113     0.000002     0.009663   122.113776
	   41 B(7,14,15)      =    122.286321     0.000001     0.005037   122.291358
	   42 B(7,14,16)      =    120.910919     0.000000     0.001527   120.912446
	   43 B(13,7,14)      =    118.455476     0.000002     0.003241   118.458717
	   44 B(15,14,16)     =    116.494536    -0.000001    -0.009274   116.485261
	   45 B(17,13,18)     =    116.263392    -0.000001    -0.005238   116.258154
	   46 D(1,2,3,4)      =     -0.503708    -0.000000     0.008499    -0.495208
	   47 D(1,2,3,9)      =    178.994343     0.000000    -0.006819   178.987525
	   48 D(1,6,5,4)      =      1.063596     0.000000    -0.007314     1.056282
	   49 D(1,6,5,11)     =    179.954151     0.000000     0.021112   179.975262
	   50 D(1,7,13,17)    =    -16.380241    -0.000000     0.020611   -16.359630
	   51 D(1,7,13,18)    =    175.186854     0.000000     0.018912   175.205765
	   52 D(1,7,14,15)    =    176.783091     0.000000     0.033639   176.816730
	   53 D(1,7,14,16)    =     -9.817750    -0.000000     0.004171    -9.813579
	   54 D(2,1,6,5)      =     -1.848765    -0.000000     0.000220    -1.848546
	   55 D(2,1,6,12)     =    175.225332    -0.000000    -0.002504   175.222829
	   56 *D(2,1,7,13)    =    169.999986     0.000000     0.000000   169.999986
	   57 D(2,1,7,14)     =    -13.530265    -0.000000    -0.000988   -13.531252
	   58 D(2,3,4,5)      =     -0.306343    -0.000000    -0.015773    -0.322117
	   59 D(2,3,4,10)     =   -179.994698     0.000000    -0.008761  -180.003458
	   60 D(3,2,1,6)      =      1.568872     0.000000    -0.000813     1.568060
	   61 D(3,2,1,7)      =    176.355441     0.000000    -0.002516   176.352924
	   62 D(3,4,5,6)      =      0.025652    -0.000000     0.015195     0.040847
	   63 D(3,4,5,11)     =   -178.857925    -0.000000    -0.013353  -178.871278
	   64 D(4,3,2,8)      =   -176.540303    -0.000000     0.005885  -176.534419
	   65 D(4,5,6,12)     =   -176.094670     0.000000    -0.005154  -176.099824
	   66 D(5,4,3,9)      =   -179.801317    -0.000000    -0.000332  -179.801648
	   67 D(5,6,1,7)      =   -176.649431    -0.000000     0.002357  -176.647074
	   68 D(6,1,2,8)      =    177.492454     0.000000     0.001455   177.493909
	   69 D(6,1,7,13)     =    -15.275194     0.000000    -0.002480   -15.277674
	   70 D(6,1,7,14)     =    161.194556    -0.000000    -0.003468   161.191088
	   71 D(6,5,4,10)     =    179.713976    -0.000000     0.008183   179.722160
	   72 D(7,1,2,8)      =     -7.720978     0.000000    -0.000249    -7.721226
	   73 D(7,1,6,12)     =      0.424666    -0.000000    -0.000366     0.424300
	   74 D(8,2,3,9)      =      2.957748     0.000000    -0.009433     2.948314
	   75 D(9,3,4,10)     =      0.510329    -0.000000     0.006681     0.517010
	   76 D(10,4,5,11)    =      0.830399    -0.000000    -0.020365     0.810034
	   77 D(11,5,6,12)    =      2.795884     0.000000     0.023271     2.819155
	   78 D(13,7,14,15)   =     -6.667921     0.000000     0.032674    -6.635247
	   79 D(13,7,14,16)   =    166.731238    -0.000000     0.003206   166.734444
	   80 D(14,7,13,17)   =    167.071878     0.000000     0.021907   167.093785
	   81 D(14,7,13,18)   =     -1.361028     0.000000     0.020208    -1.340820
	 ---------------------------------------------------------------------------
	Successfully symmetrized geometry.

  ==> Convergence Check <==

  Measures of convergence in internal coordinates in au.
  Criteria marked as inactive (o), active & met (*), and active & unmet ( ).
  ---------------------------------------------------------------------------------------------
   Step     Total Energy     Delta E     MAX Force     RMS Force      MAX Disp      RMS Disp   
  ---------------------------------------------------------------------------------------------
    Convergence Criteria    1.00e-06 *    3.00e-04 *             o    1.20e-03 *             o
  ---------------------------------------------------------------------------------------------
      9    -381.46752679   -3.19e-07 *    4.27e-05 *    1.16e-05 o    5.87e-04 *    1.66e-04 o  ~
  ---------------------------------------------------------------------------------------------


  **** Optimization is complete! (in 9 steps) ****

  ==> Optimization Summary <==

  Measures of convergence in internal coordinates in au.
  --------------------------------------------------------------------------------------------------------------- ~
   Step         Total Energy             Delta E       MAX Force       RMS Force        MAX Disp        RMS Disp  ~
  --------------------------------------------------------------------------------------------------------------- ~
      1    -381.465174499574   -381.465174499574      0.01133915      0.00219798      0.07844174      0.02088929  ~
      2    -381.466133780791     -0.000959281217      0.00594272      0.00122669      0.09108501      0.02219237  ~
      3    -381.466810449300     -0.000676668508      0.00333191      0.00083119      0.09953996      0.02217226  ~
      4    -381.467276292281     -0.000465842981      0.00448579      0.00063272      0.10403180      0.02218871  ~
      5    -381.467473653710     -0.000197361429      0.00420036      0.00059593      0.02889448      0.00523719  ~
      6    -381.467519792679     -0.000046138969      0.00066947      0.00014044      0.01335339      0.00274018  ~
      7    -381.467524070453     -0.000004277774      0.00049620      0.00010795      0.00523333      0.00124305  ~
      8    -381.467526468122     -0.000002397669      0.00012982      0.00003250      0.00313718      0.00072474  ~
      9    -381.467526787042     -0.000000318920      0.00004268      0.00001158      0.00058712      0.00016574  ~
  --------------------------------------------------------------------------------------------------------------- ~

	Writing optimization data to binary file.
	Final energy is   -381.4675267870424
	Final (previous) structure:
	Cartesian Geometry (in Angstrom)
	    C     0.0715161096  -0.0000880820  -0.1760315346
	    C     0.1060752256   1.2142865742   0.5388485494
	    C     0.0614234767   1.2125197549   1.9279049052
	    C    -0.0287988697   0.0037696381   2.6241703926
	    C    -0.0808235601  -1.2058190551   1.9261462851
	    C    -0.0424656285  -1.2109219850   0.5365387668
	    C     0.0380656785  -0.0000436977  -1.6439630217
	    H     0.2336053843   2.1641348921   0.0278526366
	    H     0.1051915530   2.1526957036   2.4677412072
	    H    -0.0636161924   0.0050440348   3.7092146228
	    H    -0.1694992089  -2.1440452060   2.4638939720
	    H    -0.1494004721  -2.1603293843   0.0211245597
	    N     0.2044829211  -1.1313811543  -2.3294896218
	    N    -0.2285559185   1.1174388940  -2.3183873539
	    H    -0.2109876569   1.1558338864  -3.3300883887
	    H    -0.5554134578   1.9457063761  -1.8416560419
	    H     0.5946990418  -1.9507265988  -1.8853310641
	    H     0.1145015743  -1.1680755910  -3.3374888706
	Saving final (previous) structure.
	Removing binary optimization data file.
			--------------------------
			 OPTKING Finished Execution 
			--------------------------

    Final optimized geometry and variables:
    Molecular point group: c1
    Full point group: C1

    Geometry (in Angstrom), charge = 1, multiplicity = 1:

    C            0.071516109633    -0.000088082011    -0.176031534640
    C            0.106075225595     1.214286574180     0.538848549420
    C            0.061423476713     1.212519754931     1.927904905243
    C           -0.028798869728     0.003769638142     2.624170392577
    C           -0.080823560128    -1.205819055115     1.926146285121
    C           -0.042465628518    -1.210921984970     0.536538766750
    C            0.038065678452    -0.000043697691    -1.643963021715
    H            0.233605384308     2.164134892072     0.027852636637
    H            0.105191553015     2.152695703597     2.467741207240
    H           -0.063616192381     0.005044034778     3.709214622840
    H           -0.169499208874    -2.144045205984     2.463893971956
    H           -0.149400472103    -2.160329384343     0.021124559671
    N            0.204482921137    -1.131381154323    -2.329489621790
    N           -0.228555918470     1.117438893970    -2.318387353927
    H           -0.210987656941     1.155833886385    -3.330088388720
    H           -0.555413457815     1.945706376138    -1.841656041882
    H            0.594699041828    -1.950726598780    -1.885331064136
    H            0.114501574278    -1.168075590977    -3.337488870644

	Removing binary optimization data file.
	Cleaning optimization helper files.


Properties will be evaluated at   0.000000,   0.000000,   0.000000 [a0]
OEProp: No title given, name of density matrix used for the following properties is 'SCF density'
  Nuclear Dipole Moment: [e a0]
     X:     0.9081      Y:    -0.0286      Z:     0.3058

  Electronic Dipole Moment: [e a0]
     X:    -0.9144      Y:     0.0310      Z:    -2.4761

  Dipole Moment: [e a0]
     X:    -0.0063      Y:     0.0024      Z:    -2.1704     Total:     2.1704

  Dipole Moment: [D]
     X:    -0.0161      Y:     0.0060      Z:    -5.5165     Total:     5.5166

  Quadrupole Moment: [D A]
    XX:   -54.1664     YY:   -33.6184     ZZ:   -12.6632
    XY:    -2.7019     XZ:    -0.0984     YZ:     0.1509

  Traceless Quadrupole Moment: [D A]
    XX:   -20.6837     YY:    -0.1357     ZZ:    20.8194
    XY:    -2.7019     XZ:    -0.0984     YZ:     0.1509

  Mulliken Charges: (a.u.)
   Center  Symbol    Alpha    Beta     Spin     Total
       1     C     2.93438  2.93438  0.00000  0.13125
       2     C     3.08872  3.08872  0.00000 -0.17743
       3     C     3.06166  3.06166  0.00000 -0.12332
       4     C     3.05128  3.05128  0.00000 -0.10255
       5     C     3.06108  3.06108  0.00000 -0.12216
       6     C     3.08492  3.08492  0.00000 -0.16984
       7     C     2.70847  2.70847  0.00000  0.58306
       8     H     0.41809  0.41809  0.00000  0.16381
       9     H     0.40500  0.40500  0.00000  0.19001
      10     H     0.40281  0.40281  0.00000  0.19437
      11     H     0.40497  0.40497  0.00000  0.19006
      12     H     0.41898  0.41898  0.00000  0.16204
      13     N     3.87293  3.87293  0.00000 -0.74586
      14     N     3.87289  3.87289  0.00000 -0.74578
      15     H     0.30596  0.30596  0.00000  0.38809
      16     H     0.30070  0.30070  0.00000  0.39860
      17     H     0.30109  0.30109  0.00000  0.39781
      18     H     0.30607  0.30607  0.00000  0.38785

   Total alpha = 32.00000, Total beta = 32.00000, Total charge =  1.00000


    Psi4 stopped on: Saturday, 29 September 2018 08:56PM
    Psi4 wall time for execution: 0:04:57.05

*** Psi4 exiting successfully. Buy a developer a beer!
