
    -----------------------------------------------------------------------
          Psi4: An Open-Source Ab Initio Electronic Structure Package
                               Psi4 1.2.1 release

                         Git: Rev {HEAD} 406f4de 


    R. M. Parrish, L. A. Burns, D. G. A. Smith, A. C. Simmonett,
    A. E. DePrince III, E. G. Hohenstein, U. Bozkaya, A. Yu. Sokolov,
    R. Di Remigio, R. M. Richard, J. F. Gonthier, A. M. James,
    H. R. McAlexander, A. Kumar, M. Saitow, X. Wang, B. P. Pritchard,
    P. Verma, H. F. Schaefer III, K. Patkowski, R. A. King, E. F. Valeev,
    F. A. Evangelista, J. M. Turney, T. D. Crawford, and C. D. Sherrill,
    J. Chem. Theory Comput. 13(7) pp 3185--3197 (2017).
    (doi: 10.1021/acs.jctc.7b00174)


                         Additional Contributions by
    P. Kraus, H. Kruse, M. H. Lechner, M. C. Schieber, and R. A. Shaw

    -----------------------------------------------------------------------


    Psi4 started on: Saturday, 29 September 2018 08:49PM

    Process ID: 29070
    Host:       oliva.prib.upf.edu
    PSIDATADIR: /shared/joao/test_parameterize/miniconda3/share/psi4
    Memory:     500.0 MiB
    Threads:    1
    
  ==> Input File <==

--------------------------------------------------------------------------
set_num_threads(4)
set_memory('3000 MB')

set { scf_mem_safety_factor 0.7 }

set { reference rks }
set { basis 6-31G* }

molecule MOL {
    1 1
    noreorient
    nocom
    symmetry c1
    C   -0.000000  -0.000000  -0.177864
    C    0.036678   1.219374   0.524165
    C    0.031765   1.213120   1.915444
    C    0.000000   0.000000   2.610107
    C   -0.031765  -1.213120   1.915444
    C   -0.036678  -1.219375   0.524165
    C   -0.000000   0.000000  -1.644734
    H    0.018170   2.164705  -0.010854
    H    0.042402   2.152895   2.457886
    H    0.000000   0.000000   3.695756
    H   -0.042402  -2.152895   2.457886
    H   -0.018170  -2.164705  -0.010853
    N    1.140612   0.165932  -2.308460
    N   -1.140612  -0.165932  -2.308461
    H   -1.181463  -0.265775  -3.315997
    H   -2.021932  -0.128637  -1.813317
    H    2.021932   0.128637  -1.813316
    H    1.181463   0.265776  -3.315997
}

set optking { frozen_dihedral = (" 2 1 7 13 ") }

set optking { dynamic_level = 1 
 geom_maxiter = 250
 print_trajectory_xyz_file = True }

energy, wfn = optimize('B3LYP-D3', return_wfn=True)

import os
os.chdir(os.environ['HTMD_PSI4_WORKDIR'])

oeprop(wfn, 'DIPOLE', 'QUADRUPOLE', 'MULLIKEN_CHARGES')

with open('psi4out.xyz', 'w') as f:
    f.write('18 ' )
    f.write('%.12f\n' % energy)
    f.write(MOL.save_string_xyz())
--------------------------------------------------------------------------
  Threads set to 4 by Python driver.

  Memory set to   2.794 GiB by Python driver.
gradient() will perform analytic gradient computation.

*** tstart() called on oliva.prib.upf.edu
*** at Sat Sep 29 20:49:58 2018

   => Loading Basis Set <=

    Name: 6-31G*
    Role: ORBITAL
    Keyword: BASIS
    atoms 1-7         entry C          line   111 file /shared/joao/test_parameterize/miniconda3/share/psi4/basis/6-31gs.gbs 
    atoms 8-12, 15-18 entry H          line    44 file /shared/joao/test_parameterize/miniconda3/share/psi4/basis/6-31gs.gbs 
    atoms 13-14       entry N          line   128 file /shared/joao/test_parameterize/miniconda3/share/psi4/basis/6-31gs.gbs 


         ---------------------------------------------------------
                                   SCF
            by Justin Turney, Rob Parrish, Andy Simmonett
                             and Daniel Smith
                              RKS Reference
                        4 Threads,   2861 MiB Core
         ---------------------------------------------------------

  ==> Geometry <==

    Molecular point group: c1
    Full point group: C1

    Geometry (in Angstrom), charge = 1, multiplicity = 1:

       Center              X                  Y                   Z               Mass       
    ------------   -----------------  -----------------  -----------------  -----------------
         C            0.000000000000     0.000000000000    -0.177864000000    12.000000000000
         C            0.036678000000     1.219374000000     0.524165000000    12.000000000000
         C            0.031765000000     1.213120000000     1.915444000000    12.000000000000
         C            0.000000000000     0.000000000000     2.610107000000    12.000000000000
         C           -0.031765000000    -1.213120000000     1.915444000000    12.000000000000
         C           -0.036678000000    -1.219375000000     0.524165000000    12.000000000000
         C            0.000000000000     0.000000000000    -1.644734000000    12.000000000000
         H            0.018170000000     2.164705000000    -0.010854000000     1.007825032070
         H            0.042402000000     2.152895000000     2.457886000000     1.007825032070
         H            0.000000000000     0.000000000000     3.695756000000     1.007825032070
         H           -0.042402000000    -2.152895000000     2.457886000000     1.007825032070
         H           -0.018170000000    -2.164705000000    -0.010853000000     1.007825032070
         N            1.140612000000     0.165932000000    -2.308460000000    14.003074004780
         N           -1.140612000000    -0.165932000000    -2.308461000000    14.003074004780
         H           -1.181463000000    -0.265775000000    -3.315997000000     1.007825032070
         H           -2.021932000000    -0.128637000000    -1.813317000000     1.007825032070
         H            2.021932000000     0.128637000000    -1.813316000000     1.007825032070
         H            1.181463000000     0.265776000000    -3.315997000000     1.007825032070

  Running in c1 symmetry.

  Rotational constants: A =      0.12190  B =      0.03672  C =      0.03334 [cm^-1]
  Rotational constants: A =   3654.48782  B =   1100.85917  C =    999.45746 [MHz]
  Nuclear repulsion =  415.818819585462393

  Charge       = 1
  Multiplicity = 1
  Electrons    = 64
  Nalpha       = 32
  Nbeta        = 32

  ==> Algorithm <==

  SCF Algorithm Type is DF.
  DIIS enabled.
  MOM disabled.
  Fractional occupation disabled.
  Guess Type is SAD.
  Energy threshold   = 1.00e-08
  Density threshold  = 1.00e-08
  Integral threshold = 0.00e+00

  ==> Primary Basis <==

  Basis Set: 6-31G*
    Blend: 6-31G*
    Number of shells: 72
    Number of basis function: 153
    Number of Cartesian functions: 153
    Spherical Harmonics?: false
    Max angular momentum: 2

  ==> DFT Potential <==

   => Composite Functional: B3LYP-D3ZERO <= 

    B3LYP-d3zero Hyb-GGA Exchange-Correlation Functional

    P. J. Stephens, F. J. Devlin, C. F. Chabalowski, and M. J. Frisch, J. Phys. Chem. 98, 11623 (1994)

    Deriv               =              1
    GGA                 =           TRUE
    Meta                =          FALSE

    Exchange Hybrid     =           TRUE
    MP2 Hybrid          =          FALSE

   => Exchange Functionals <=

    0.0800   Slater exchange
    0.7200         Becke 88

   => Exact (HF) Exchange <=

    0.2000               HF 

   => Correlation Functionals <=

    0.1900   Vosko, Wilk & Nusair (VWN5_RPA)
    0.8100   Lee, Yang & Parr

   => Molecular Quadrature <=

    Radial Scheme       =       TREUTLER
    Pruning Scheme      =           FLAT
    Nuclear Scheme      =       TREUTLER

    BS radius alpha     =              1
    Pruning alpha       =              1
    Radial Points       =             75
    Spherical Points    =            302
    Total Points        =         397358
    Total Blocks        =           2988
    Max Points          =            256
    Max Functions       =            149

   => -D3ZERO: Empirical Dispersion <=

    Grimme's -D3 (zero-damping) Dispersion Correction
    Grimme S.; Antony J.; Ehrlich S.; Krieg H. (2010), J. Chem. Phys., 132: 154104

        S6 =   1.000000E+00
        S8 =   1.703000E+00
       SR6 =   1.261000E+00
       SR8 =   1.000000E+00
    ALPHA6 =   1.400000E+01

   => Loading Basis Set <=

    Name: (6-31G* AUX)
    Role: JKFIT
    Keyword: DF_BASIS_SCF
    atoms 1-7         entry C          line   121 file /shared/joao/test_parameterize/miniconda3/share/psi4/basis/cc-pvdz-jkfit.gbs 
    atoms 8-12, 15-18 entry H          line    51 file /shared/joao/test_parameterize/miniconda3/share/psi4/basis/cc-pvdz-jkfit.gbs 
    atoms 13-14       entry N          line   171 file /shared/joao/test_parameterize/miniconda3/share/psi4/basis/cc-pvdz-jkfit.gbs 

  ==> Pre-Iterations <==

   -------------------------------------------------------
    Irrep   Nso     Nmo     Nalpha   Nbeta   Ndocc  Nsocc
   -------------------------------------------------------
     A        153     153       0       0       0       0
   -------------------------------------------------------
    Total     153     153      32      32      32       0
   -------------------------------------------------------

  ==> Integral Setup <==

  ==> DiskDFJK: Density-Fitted J/K Matrices <==

    J tasked:                  Yes
    K tasked:                  Yes
    wK tasked:                  No
    OpenMP threads:              4
    Integrals threads:           4
    Memory (MB):              2002
    Algorithm:                Core
    Integral Cache:           NONE
    Schwarz Cutoff:          1E-12
    Fitting Condition:       1E-12

   => Auxiliary Basis Set <=

  Basis Set: (6-31G* AUX)
    Blend: CC-PVDZ-JKFIT
    Number of shells: 297
    Number of basis function: 954
    Number of Cartesian functions: 954
    Spherical Harmonics?: false
    Max angular momentum: 3

  Minimum eigenvalue in the overlap matrix is 4.8874588221E-04.
  Using Symmetric Orthogonalization.

  SCF Guess: Superposition of Atomic Densities via on-the-fly atomic UHF.

  ==> Iterations <==

                           Total Energy        Delta E     RMS |[F,P]|

   @DF-RKS iter   0:  -379.69068676365276   -3.79691e+02   6.85026e-02 
   @DF-RKS iter   1:  -381.05609372743953   -1.36541e+00   1.14196e-02 
   @DF-RKS iter   2:  -381.00257367903771    5.35200e-02   1.22667e-02 DIIS
   @DF-RKS iter   3:  -381.45843881042424   -4.55865e-01   1.25768e-03 DIIS
   @DF-RKS iter   4:  -381.46151746273932   -3.07865e-03   7.02707e-04 DIIS
   @DF-RKS iter   5:  -381.46280649259933   -1.28903e-03   2.42165e-04 DIIS
   @DF-RKS iter   6:  -381.46296658959176   -1.60097e-04   7.99484e-05 DIIS
   @DF-RKS iter   7:  -381.46298550942737   -1.89198e-05   1.43833e-05 DIIS
   @DF-RKS iter   8:  -381.46298601521926   -5.05792e-07   5.30345e-06 DIIS
   @DF-RKS iter   9:  -381.46298609267501   -7.74558e-08   1.56066e-06 DIIS
   @DF-RKS iter  10:  -381.46298609882643   -6.15142e-09   6.93547e-07 DIIS
   @DF-RKS iter  11:  -381.46298610025195   -1.42552e-09   9.81444e-08 DIIS
   @DF-RKS iter  12:  -381.46298610027020   -1.82467e-11   6.33714e-08 DIIS
   @DF-RKS iter  13:  -381.46298610028299   -1.27898e-11   1.59707e-08 DIIS
   @DF-RKS iter  14:  -381.46298610028356   -5.68434e-13   8.58013e-09 DIIS

  ==> Post-Iterations <==

    Orbital Energies [Eh]
    ---------------------

    Doubly Occupied:                                                      

       1A    -14.575741     2A    -14.575734     3A    -10.504152  
       4A    -10.367788     5A    -10.349277     6A    -10.349269  
       7A    -10.333758     8A    -10.333136     9A    -10.332902  
      10A     -1.189422    11A     -1.097075    12A     -1.008641  
      13A     -0.923841    14A     -0.894997    15A     -0.845466  
      16A     -0.788283    17A     -0.762644    18A     -0.754746  
      19A     -0.728629    20A     -0.692802    21A     -0.667903  
      22A     -0.621513    23A     -0.617595    24A     -0.574735  
      25A     -0.574030    26A     -0.566403    27A     -0.514973  
      28A     -0.497657    29A     -0.490373    30A     -0.479168  
      31A     -0.404428    32A     -0.398360  

    Virtual:                                                              

      33A     -0.203655    34A     -0.161443    35A     -0.146570  
      36A     -0.114419    37A     -0.067964    38A     -0.063265  
      39A     -0.034633    40A     -0.027816    41A      0.009234  
      42A      0.014151    43A      0.025238    44A      0.055479  
      45A      0.060402    46A      0.073801    47A      0.140798  
      48A      0.148789    49A      0.165639    50A      0.183345  
      51A      0.202882    52A      0.214958    53A      0.292164  
      54A      0.344999    55A      0.356571    56A      0.377478  
      57A      0.394413    58A      0.398643    59A      0.402826  
      60A      0.425247    61A      0.439831    62A      0.452905  
      63A      0.457281    64A      0.466055    65A      0.478667  
      66A      0.481532    67A      0.481894    68A      0.494615  
      69A      0.512998    70A      0.530023    71A      0.566112  
      72A      0.576213    73A      0.601677    74A      0.626566  
      75A      0.667253    76A      0.677256    77A      0.681596  
      78A      0.683447    79A      0.700701    80A      0.711545  
      81A      0.732239    82A      0.749454    83A      0.779789  
      84A      0.785424    85A      0.812250    86A      0.831048  
      87A      0.851947    88A      0.940821    89A      0.967291  
      90A      1.005571    91A      1.023220    92A      1.025990  
      93A      1.030953    94A      1.090345    95A      1.135665  
      96A      1.187247    97A      1.199548    98A      1.293093  
      99A      1.293274   100A      1.330613   101A      1.331720  
     102A      1.360189   103A      1.363629   104A      1.380342  
     105A      1.445419   106A      1.466912   107A      1.503219  
     108A      1.580794   109A      1.603941   110A      1.662264  
     111A      1.677849   112A      1.737879   113A      1.764738  
     114A      1.796445   115A      1.826180   116A      1.843504  
     117A      1.892358   118A      1.910916   119A      1.976203  
     120A      1.990747   121A      1.995865   122A      2.002002  
     123A      2.040750   124A      2.064845   125A      2.116623  
     126A      2.132933   127A      2.164878   128A      2.204492  
     129A      2.213034   130A      2.280073   131A      2.385611  
     132A      2.400312   133A      2.400612   134A      2.432749  
     135A      2.507960   136A      2.574358   137A      2.580440  
     138A      2.589916   139A      2.626698   140A      2.629579  
     141A      2.711569   142A      2.888007   143A      2.913454  
     144A      3.257889   145A      3.627513   146A      3.633181  
     147A      3.944938   148A      3.968769   149A      3.986674  
     150A      4.121754   151A      4.179191   152A      4.263445  
     153A      4.555160  

    Final Occupation by Irrep:
              A 
    DOCC [    32 ]

  Energy converged.

  @DF-RKS Final Energy:  -381.46298610028356

   => Energetics <=

    Nuclear Repulsion Energy =            415.8188195854623928
    One-Electron Energy =               -1326.9880506544352556
    Two-Electron Energy =                 574.1199450535845017
    DFT Exchange-Correlation Energy =     -44.4021285648951505
    Empirical Dispersion Energy =          -0.0115715200000000
    VV10 Nonlocal Energy =                  0.0000000000000000
    Total Energy =                       -381.4629861002835582



Properties will be evaluated at   0.000000,   0.000000,   0.000000 [a0]

Properties computed using the SCF density matrix

  Nuclear Dipole Moment: [e a0]
     X:     0.0000      Y:    -0.0000      Z:     0.0248

  Electronic Dipole Moment: [e a0]
     X:     0.0000      Y:     0.0000      Z:    -2.5747

  Dipole Moment: [e a0]
     X:     0.0000      Y:     0.0000      Z:    -2.5499     Total:     2.5499

  Dipole Moment: [D]
     X:     0.0000      Y:     0.0000      Z:    -6.4813     Total:     6.4813


*** tstop() called on oliva.prib.upf.edu at Sat Sep 29 20:50:27 2018
Module time:
	user time   =     100.69 seconds =       1.68 minutes
	system time =       0.92 seconds =       0.02 minutes
	total time  =         29 seconds =       0.48 minutes
Total time:
	user time   =     100.69 seconds =       1.68 minutes
	system time =       0.92 seconds =       0.02 minutes
	total time  =         29 seconds =       0.48 minutes

*** tstart() called on oliva.prib.upf.edu
*** at Sat Sep 29 20:50:27 2018


         ------------------------------------------------------------
                                   SCF GRAD                          
                          Rob Parrish, Justin Turney,                
                       Andy Simmonett, and Alex Sokolov              
         ------------------------------------------------------------

  ==> Geometry <==

    Molecular point group: c1
    Full point group: C1

    Geometry (in Angstrom), charge = 1, multiplicity = 1:

       Center              X                  Y                   Z               Mass       
    ------------   -----------------  -----------------  -----------------  -----------------
         C            0.000000000000     0.000000000000    -0.177864000000    12.000000000000
         C            0.036678000000     1.219374000000     0.524165000000    12.000000000000
         C            0.031765000000     1.213120000000     1.915444000000    12.000000000000
         C            0.000000000000     0.000000000000     2.610107000000    12.000000000000
         C           -0.031765000000    -1.213120000000     1.915444000000    12.000000000000
         C           -0.036678000000    -1.219375000000     0.524165000000    12.000000000000
         C            0.000000000000     0.000000000000    -1.644734000000    12.000000000000
         H            0.018170000000     2.164705000000    -0.010854000000     1.007825032070
         H            0.042402000000     2.152895000000     2.457886000000     1.007825032070
         H            0.000000000000     0.000000000000     3.695756000000     1.007825032070
         H           -0.042402000000    -2.152895000000     2.457886000000     1.007825032070
         H           -0.018170000000    -2.164705000000    -0.010853000000     1.007825032070
         N            1.140612000000     0.165932000000    -2.308460000000    14.003074004780
         N           -1.140612000000    -0.165932000000    -2.308461000000    14.003074004780
         H           -1.181463000000    -0.265775000000    -3.315997000000     1.007825032070
         H           -2.021932000000    -0.128637000000    -1.813317000000     1.007825032070
         H            2.021932000000     0.128637000000    -1.813316000000     1.007825032070
         H            1.181463000000     0.265776000000    -3.315997000000     1.007825032070

  Nuclear repulsion =  415.818819585462393

  ==> Basis Set <==

  Basis Set: 6-31G*
    Blend: 6-31G*
    Number of shells: 72
    Number of basis function: 153
    Number of Cartesian functions: 153
    Spherical Harmonics?: false
    Max angular momentum: 2

  ==> DFJKGrad: Density-Fitted SCF Gradients <==

    Gradient:                    1
    J tasked:                  Yes
    K tasked:                  Yes
    wK tasked:                  No
    OpenMP threads:              4
    Integrals threads:           4
    Memory (MB):              2002
    Schwarz Cutoff:          0E+00
    Fitting Condition:       1E-12

   => Auxiliary Basis Set <=

  Basis Set: (6-31G* AUX)
    Blend: CC-PVDZ-JKFIT
    Number of shells: 297
    Number of basis function: 954
    Number of Cartesian functions: 954
    Spherical Harmonics?: false
    Max angular momentum: 3

  ==> DFT Potential <==

   => Composite Functional: B3LYP-D3ZERO <= 

    B3LYP-d3zero Hyb-GGA Exchange-Correlation Functional

    P. J. Stephens, F. J. Devlin, C. F. Chabalowski, and M. J. Frisch, J. Phys. Chem. 98, 11623 (1994)

    Deriv               =              1
    GGA                 =           TRUE
    Meta                =          FALSE

    Exchange Hybrid     =           TRUE
    MP2 Hybrid          =          FALSE

   => Exchange Functionals <=

    0.0800   Slater exchange
    0.7200         Becke 88

   => Exact (HF) Exchange <=

    0.2000               HF 

   => Correlation Functionals <=

    0.1900   Vosko, Wilk & Nusair (VWN5_RPA)
    0.8100   Lee, Yang & Parr

   => Molecular Quadrature <=

    Radial Scheme       =       TREUTLER
    Pruning Scheme      =           FLAT
    Nuclear Scheme      =       TREUTLER

    BS radius alpha     =              1
    Pruning alpha       =              1
    Radial Points       =             75
    Spherical Points    =            302
    Total Points        =         397358
    Total Blocks        =           2988
    Max Points          =            256
    Max Functions       =            149


  -Total Gradient:
     Atom            X                  Y                   Z
    ------   -----------------  -----------------  -----------------
       1        0.000000076401     0.000000477916    -0.014855228863
       2        0.001514966509     0.000022288601     0.004696129304
       3        0.000822203933     0.002380929981    -0.002056352180
       4       -0.000000000826    -0.000000126759     0.000187771874
       5       -0.000822208091    -0.002380719714    -0.002056258443
       6       -0.001514957949    -0.000023718604     0.004695824146
       7        0.000000305654     0.000000086929     0.015329786804
       8       -0.002098246659     0.000297744101     0.000918061473
       9       -0.000259416755    -0.000148700388     0.000172330462
      10        0.000000000674     0.000000011440    -0.000006603239
      11        0.000259415412     0.000148768626     0.000172231764
      12        0.002098234178    -0.000296963385     0.000918546730
      13        0.004200746565     0.001288421627    -0.003730347133
      14       -0.004201083281    -0.001288597872    -0.003731661242
      15        0.000440279503    -0.001247296282     0.001477573235
      16        0.000219799078     0.002331817370    -0.001813914705
      17       -0.000219800130    -0.002331825894    -0.001813932233
      18       -0.000440314303     0.001247402267     0.001476646922


*** tstop() called on oliva.prib.upf.edu at Sat Sep 29 20:50:34 2018
Module time:
	user time   =      30.15 seconds =       0.50 minutes
	system time =       0.27 seconds =       0.00 minutes
	total time  =          7 seconds =       0.12 minutes
Total time:
	user time   =     130.90 seconds =       2.18 minutes
	system time =       1.20 seconds =       0.02 minutes
	total time  =         36 seconds =       0.60 minutes

			-----------------------------------------
			 OPTKING 2.0: for geometry optimizations 
			  - R.A. King,  Bethel University        
			-----------------------------------------
	At level 1: Red. Int., RFO, no backsteps, dynamic trust

	Internal coordinates to be generated automatically.
	Detected frag 1 with atoms:  1 2 3 4 5 6 7 8 9 10 11 12 13 14 15 16 17 18
	---Fragment 1 Bond Connectivity---
	 1 : 2 6 7
	 2 : 1 3 8
	 3 : 2 4 9
	 4 : 3 5 10
	 5 : 4 6 11
	 6 : 1 5 12
	 7 : 1 13 14
	 8 : 2
	 9 : 3
	 10 : 4
	 11 : 5
	 12 : 6
	 13 : 7 17 18
	 14 : 7 15 16
	 15 : 14
	 16 : 14
	 17 : 13
	 18 : 13

	Assuming in current code that numbering for constraints corresponds to unified fragment.
	Frozen dihedral atom list: 
	     2     1     7    13
	---Fragment 1 Geometry and Gradient---
	 C           0.0000000000        0.0000000000       -0.3361142489
	 C           0.0693113751        2.3042829136        0.9905282984
	 C           0.0600271506        2.2924645663        3.6196645829
	 C           0.0000000000        0.0000000000        4.9323874075
	 C          -0.0600271506       -2.2924645663        3.6196645829
	 C          -0.0693113751       -2.3042848033        0.9905282984
	 C           0.0000000000        0.0000000000       -3.1080968214
	 H           0.0343363238        4.0906996085       -0.0205110874
	 H           0.0801281675        4.0683819429        4.6447314059
	 H           0.0000000000        0.0000000000        6.9839666940
	 H          -0.0801281675       -4.0683819429        4.6447314059
	 H          -0.0343363238       -4.0906996085       -0.0205091977
	 N           2.1554443039        0.3135660367       -4.3623571887
	 N          -2.1554443039       -0.3135660367       -4.3623590784
	 H          -2.2326415061       -0.5022419630       -6.2663261875
	 H          -3.8208977393       -0.2430887006       -3.4266725221
	 H           3.8208977393        0.2430887006       -3.4266706324
	 H           2.2326415061        0.5022438527       -6.2663261875
	             0.0000000764        0.0000004779       -0.0148552289
	             0.0015149665        0.0000222886        0.0046961293
	             0.0008222039        0.0023809300       -0.0020563522
	            -0.0000000008       -0.0000001268        0.0001877719
	            -0.0008222081       -0.0023807197       -0.0020562584
	            -0.0015149579       -0.0000237186        0.0046958241
	             0.0000003057        0.0000000869        0.0153297868
	            -0.0020982467        0.0002977441        0.0009180615
	            -0.0002594168       -0.0001487004        0.0001723305
	             0.0000000007        0.0000000114       -0.0000066032
	             0.0002594154        0.0001487686        0.0001722318
	             0.0020982342       -0.0002969634        0.0009185467
	             0.0042007466        0.0012884216       -0.0037303471
	            -0.0042010833       -0.0012885979       -0.0037316612
	             0.0004402795       -0.0012472963        0.0014775732
	             0.0002197991        0.0023318174       -0.0018139147
	            -0.0002198001       -0.0023318259       -0.0018139322
	            -0.0004403143        0.0012474023        0.0014766469

	Previous optimization step data not found.  Starting new optimization.

	---Fragment 1 Intrafragment Coordinates---
	 - Coordinate -           - BOHR/RAD -       - ANG/DEG -
	 R(1,2)           =         2.659794	       1.407502
	 R(1,6)           =         2.659796	       1.407503
	 R(1,7)           =         2.771983	       1.466870
	 R(2,3)           =         2.629179	       1.391302
	 R(2,8)           =         2.052976	       1.086388
	 R(3,4)           =         2.642393	       1.398294
	 R(3,9)           =         2.050622	       1.085142
	 R(4,5)           =         2.642393	       1.398294
	 R(4,10)          =         2.051579	       1.085649
	 R(5,6)           =         2.629179	       1.391302
	 R(5,11)          =         2.050622	       1.085142
	 R(6,12)          =         2.052973	       1.086386
	 R(7,13)          =         2.513450	       1.330061
	 R(7,14)          =         2.513451	       1.330061
	 R(13,17)         =         1.911599	       1.011575
	 R(13,18)         =         1.914852	       1.013296
	 R(14,15)         =         1.914850	       1.013295
	 R(14,16)         =         1.911599	       1.011575
	 B(1,2,3)         =         2.088380	     119.655376
	 B(1,2,8)         =         2.103396	     120.515689
	 B(1,6,5)         =         2.088379	     119.655315
	 B(1,6,12)        =         2.103396	     120.515729
	 B(1,7,13)        =         2.093263	     119.935142
	 B(1,7,14)        =         2.093264	     119.935179
	 B(2,1,6)         =         2.097220	     120.161857
	 B(2,1,7)         =         2.092983	     119.919082
	 B(2,3,4)         =         2.095279	     120.050636
	 B(2,3,9)         =         2.089719	     119.732108
	 B(3,2,8)         =         2.090149	     119.756722
	 B(3,4,5)         =         2.101793	     120.423859
	 B(3,4,10)        =         2.090696	     119.788070
	 B(4,3,9)         =         2.098135	     120.214297
	 B(4,5,6)         =         2.095280	     120.050677
	 B(4,5,11)        =         2.098135	     120.214297
	 B(5,4,10)        =         2.090696	     119.788070
	 B(5,6,12)        =         2.090149	     119.756743
	 B(6,1,7)         =         2.092982	     119.919061
	 B(6,5,11)        =         2.089719	     119.732067
	 B(7,13,17)       =         2.092412	     119.886374
	 B(7,13,18)       =         2.144860	     122.891411
	 B(7,14,15)       =         2.144860	     122.891446
	 B(7,14,16)       =         2.092411	     119.886337
	 B(13,7,14)       =         2.096658	     120.129680
	 B(15,14,16)      =         2.043399	     117.078156
	 B(17,13,18)      =         2.043399	     117.078158
	 D(1,2,3,4)       =         0.007799	       0.446825
	 D(1,2,3,9)       =        -3.122896	    -178.928735
	 D(1,6,5,4)       =         0.007799	       0.446822
	 D(1,6,5,11)      =        -3.122896	    -178.928737
	 D(1,7,13,17)     =         0.187845	      10.762707
	 D(1,7,13,18)     =        -3.032164	    -173.730225
	 D(1,7,14,15)     =        -3.032165	    -173.730283
	 D(1,7,14,16)     =         0.187845	      10.762703
	 D(2,1,6,5)       =        -0.003906	      -0.223802
	 D(2,1,6,12)      =        -3.091437	    -177.126283
	*D(2,1,7,13)      =         1.396263	      79.999986
	 D(2,1,7,14)      =        -1.745329	    -100.000014
	 D(2,3,4,5)       =        -0.003942	      -0.225875
	 D(2,3,4,10)      =         3.137650	     179.774125
	 D(3,2,1,6)       =        -0.003906	      -0.223806
	 D(3,2,1,7)       =         3.137687	     179.776196
	 D(3,4,5,6)       =        -0.003942	      -0.225874
	 D(3,4,5,11)      =         3.126699	     179.146646
	 D(4,3,2,8)       =         3.095744	     177.373058
	 D(4,5,6,12)      =         3.095744	     177.373055
	 D(5,4,3,9)       =         3.126699	     179.146646
	 D(5,6,1,7)       =         3.137687	     179.776197
	 D(6,1,2,8)       =        -3.091437	    -177.126287
	 D(6,1,7,13)      =        -1.745329	    -100.000013
	 D(6,1,7,14)      =         1.396263	      79.999987
	 D(6,5,4,10)      =         3.137650	     179.774126
	 D(7,1,2,8)       =         0.050156	       2.873714
	 D(7,1,6,12)      =         0.050156	       2.873716
	 D(8,2,3,9)       =        -0.034950	      -2.002503
	 D(9,3,4,10)      =        -0.014894	      -0.853354
	 D(10,4,5,11)     =        -0.014894	      -0.853354
	 D(11,5,6,12)     =        -0.034950	      -2.002504
	 D(13,7,14,15)    =         0.109427	       6.269717
	 D(13,7,14,16)    =        -2.953748	    -169.237297
	 D(14,7,13,17)    =        -2.953748	    -169.237293
	 D(14,7,13,18)    =         0.109428	       6.269775

	Current energy   :      -381.4629861003

	Generating empirical Hessian (Schlegel '84) for each fragment.
	Taking RFO optimization step.
	Going to follow RFO solution 1.
	Using RFO vector 1.
	Norm of target step-size    0.30637
	Projected energy change by RFO approximation:        -0.0016672723

	Back-transformation to cartesian coordinates...
	Could not converge backtransformation.
	Using first guess instead.

	Back-transformation to cartesian coordinates to adjust frozen coordinates...
	Successfully converged to displaced geometry.

	--- Internal Coordinate Step in ANG or DEG, aJ/ANG or AJ/DEG ---
	 ---------------------------------------------------------------------------
	   Coordinate                Previous        Force       Change         New 
	   ----------                --------       ------       ------       ------
	    1 R(1,2)          =      1.407502    -0.028677    -0.004240     1.403263
	    2 R(1,6)          =      1.407503    -0.028677    -0.003441     1.404062
	    3 R(1,7)          =      1.466870     0.059333     0.010688     1.477558
	    4 R(2,3)          =      1.391302     0.014794     0.002111     1.393413
	    5 R(2,8)          =      1.086388     0.001300     0.001887     1.088275
	    6 R(3,4)          =      1.398294    -0.005623    -0.000430     1.397864
	    7 R(3,9)          =      1.085142     0.000368     0.000307     1.085449
	    8 R(4,5)          =      1.398294    -0.005618    -0.000531     1.397763
	    9 R(4,10)         =      1.085649     0.000046     0.000095     1.085744
	   10 R(5,6)          =      1.391302     0.014803     0.002086     1.393388
	   11 R(5,11)         =      1.085142     0.000369     0.000994     1.086136
	   12 R(6,12)         =      1.086386     0.001308     0.002394     1.088781
	   13 R(7,13)         =      1.330061    -0.041935    -0.004385     1.325676
	   14 R(7,14)         =      1.330061    -0.041939    -0.002440     1.327621
	   15 R(13,17)        =      1.011575     0.008179     0.006745     1.018320
	   16 R(13,18)        =      1.013296     0.011239     0.003136     1.016432
	   17 R(14,15)        =      1.013295     0.011247     0.002189     1.015484
	   18 R(14,16)        =      1.011575     0.008179     0.008202     1.019776
	   19 B(1,2,3)        =    119.655376    -0.000125    -0.413990   119.241386
	   20 B(1,2,8)        =    120.515689    -0.000006    -0.104765   120.410925
	   21 B(1,6,5)        =    119.655315    -0.000125    -0.418392   119.236923
	   22 B(1,6,12)       =    120.515729    -0.000007    -0.011875   120.503855
	   23 B(1,7,13)       =    119.935142    -0.000183    -0.534834   119.400307
	   24 B(1,7,14)       =    119.935179    -0.000183    -0.625658   119.309521
	   25 B(2,1,6)        =    120.161857     0.000249     0.688039   120.849896
	   26 B(2,1,7)        =    119.919082    -0.000125    -0.354216   119.564865
	   27 B(2,3,4)        =    120.050636     0.000017     0.094576   120.145212
	   28 B(2,3,9)        =    119.732108    -0.000026    -0.146204   119.585904
	   29 B(3,2,8)        =    119.756722     0.000135     0.590935   120.347657
	   30 B(3,4,5)        =    120.423859    -0.000033    -0.047663   120.376197
	   31 B(3,4,10)       =    119.788070     0.000016     0.033066   119.821136
	   32 B(4,3,9)        =    120.214297     0.000010     0.054235   120.268531
	   33 B(4,5,6)        =    120.050677     0.000017     0.079647   120.130324
	   34 B(4,5,11)       =    120.214297     0.000010     0.047926   120.262223
	   35 B(5,4,10)       =    119.788070     0.000016     0.013392   119.801462
	   36 B(5,6,12)       =    119.756743     0.000136     0.500861   120.257604
	   37 B(6,1,7)        =    119.919061    -0.000125    -0.409285   119.509777
	   38 B(6,5,11)       =    119.732067    -0.000026    -0.127428   119.604639
	   39 B(7,13,17)      =    119.886374    -0.000114    -0.586955   119.299419
	   40 B(7,13,18)      =    122.891411     0.000078     0.300922   123.192332
	   41 B(7,14,15)      =    122.891446     0.000078     0.252883   123.144329
	   42 B(7,14,16)      =    119.886337    -0.000114    -0.333681   119.552656
	   43 B(13,7,14)      =    120.129680     0.000366     1.089487   121.219167
	   44 B(15,14,16)     =    117.078156     0.000040     0.189711   117.267867
	   45 B(17,13,18)     =    117.078158     0.000040     0.395067   117.473225
	   46 D(1,2,3,4)      =      0.446825    -0.000002    -0.554645    -0.107820
	   47 D(1,2,3,9)      =   -178.928735    -0.000008    -1.394569  -180.323304
	   48 D(1,6,5,4)      =      0.446822     0.000003     0.619662     1.066484
	   49 D(1,6,5,11)     =   -178.928737    -0.000004    -0.613363  -179.542100
	   50 D(1,7,13,17)    =     10.762707    -0.000045    -6.676794     4.085914
	   51 D(1,7,13,18)    =   -173.730225    -0.000028    -4.392746  -178.122971
	   52 D(1,7,14,15)    =   -173.730283    -0.000012    -1.387610  -175.117893
	   53 D(1,7,14,16)    =     10.762703    -0.000029    -3.663584     7.099119
	   54 D(2,1,6,5)      =     -0.223802    -0.000007    -1.508574    -1.732376
	   55 D(2,1,6,12)     =   -177.126283    -0.000024    -4.144505  -181.270787
	   56 *D(2,1,7,13)    =     79.999986     0.000000    -0.000000    79.999986
	   57 D(2,1,7,14)     =   -100.000014    -0.000016    -3.026242  -103.026256
	   58 D(2,3,4,5)      =     -0.225875    -0.000002    -0.318294    -0.544170
	   59 D(2,3,4,10)     =    179.774125     0.000000     0.081781   179.855905
	   60 D(3,2,1,6)      =     -0.223806     0.000007     1.476870     1.253064
	   61 D(3,2,1,7)      =    179.776196    -0.000008    -1.697514   178.078682
	   62 D(3,4,5,6)      =     -0.225874     0.000001     0.283188     0.057313
	   63 D(3,4,5,11)     =    179.146646     0.000009     1.523287   180.669933
	   64 D(4,3,2,8)      =    177.373058     0.000016     2.454086   179.827143
	   65 D(4,5,6,12)     =    177.373055     0.000019     3.233002   180.606057
	   66 D(5,4,3,9)      =    179.146646     0.000004     0.526151   179.672797
	   67 D(5,6,1,7)      =    179.776197     0.000007     1.664079   181.440276
	   68 D(6,1,2,8)      =   -177.126287    -0.000012    -1.555570  -178.681857
	   69 D(6,1,7,13)     =   -100.000013    -0.000014    -3.131453  -103.131465
	   70 D(6,1,7,14)     =     79.999987    -0.000030    -6.157695    73.842293
	   71 D(6,5,4,10)     =    179.774126    -0.000001    -0.116809   179.657317
	   72 D(7,1,2,8)      =      2.873714    -0.000027    -4.729954    -1.856240
	   73 D(7,1,6,12)     =      2.873716    -0.000010    -0.971851     1.901865
	   74 D(8,2,3,9)      =     -2.002503     0.000010     1.614162    -0.388341
	   75 D(9,3,4,10)     =     -0.853354     0.000006     0.926226     0.072872
	   76 D(10,4,5,11)    =     -0.853354     0.000007     1.123290     0.269937
	   77 D(11,5,6,12)    =     -2.002504     0.000012     1.999977    -0.002527
	   78 D(13,7,14,15)   =      6.269717    -0.000028    -4.470597     1.799120
	   79 D(13,7,14,16)   =   -169.237297    -0.000045    -6.746571  -175.983868
	   80 D(14,7,13,17)   =   -169.237293    -0.000029    -3.591056  -172.828348
	   81 D(14,7,13,18)   =      6.269775    -0.000012    -1.307008     4.962767
	 ---------------------------------------------------------------------------
	Successfully symmetrized geometry.

  ==> Convergence Check <==

  Measures of convergence in internal coordinates in au.
  Criteria marked as inactive (o), active & met (*), and active & unmet ( ).
  --------------------------------------------------------------------------------------------- ~
   Step     Total Energy     Delta E     MAX Force     RMS Force      MAX Disp      RMS Disp    ~
  --------------------------------------------------------------------------------------------- ~
    Convergence Criteria    1.00e-06 *    3.00e-04 *             o    1.20e-03 *             o  ~
  --------------------------------------------------------------------------------------------- ~
      1    -381.46298610   -3.81e+02      7.20e-03      1.76e-03 o    1.18e-01      3.41e-02 o  ~
  ---------------------------------------------------------------------------------------------

	Writing optimization data to binary file.
	Structure for next step:
	Cartesian Geometry (in Angstrom)
	    C     0.0314008750   0.0127128726  -0.1751653723
	    C     0.0672315368   1.2286084685   0.5244486345
	    C     0.0480152904   1.2131028748   1.9176428590
	    C    -0.0086444784  -0.0025236081   2.6054400074
	    C    -0.0578907877  -1.2102018484   1.9034221447
	    C    -0.0495962366  -1.2101103939   0.5100592384
	    C     0.0083923725   0.0220594228  -1.6525144082
	    H     0.1084821310   2.1732145191  -0.0144017553
	    H     0.0808555809   2.1501413190   2.4645253856
	    H    -0.0210118729  -0.0085631531   3.6910969884
	    H    -0.1128348123  -2.1531646881   2.4396074121
	    H    -0.0978256573  -2.1491181085  -0.0389234561
	    N     1.1393939811   0.2034516903  -2.3198585387
	    N    -1.1345878516  -0.2116674737  -2.2861907974
	    H    -1.2034035517  -0.2903554648  -3.2962800260
	    H    -1.9998689815  -0.2863121832  -1.7517187065
	    H     2.0159193012   0.2709787313  -1.8059336778
	    H     1.1859731610   0.2477470233  -3.3342559319
			--------------------------
			 OPTKING Finished Execution 
			--------------------------

    Structure for next step:
    Molecular point group: c1
    Full point group: C1

    Geometry (in Angstrom), charge = 1, multiplicity = 1:

    C            0.031400874991     0.012712872608    -0.175165372272
    C            0.067231536792     1.228608468513     0.524448634464
    C            0.048015290430     1.213102874821     1.917642859025
    C           -0.008644478354    -0.002523608113     2.605440007413
    C           -0.057890787691    -1.210201848381     1.903422144658
    C           -0.049596236629    -1.210110393938     0.510059238355
    C            0.008392372475     0.022059422780    -1.652514408152
    H            0.108482130962     2.173214519104    -0.014401755264
    H            0.080855580935     2.150141319039     2.464525385555
    H           -0.021011872857    -0.008563153122     3.691096988416
    H           -0.112834812272    -2.153164688062     2.439607412081
    H           -0.097825657260    -2.149118108508    -0.038923456057
    N            1.139393981128     0.203451690349    -2.319858538660
    N           -1.134587851598    -0.211667473742    -2.286190797438
    H           -1.203403551719    -0.290355464761    -3.296280025971
    H           -1.999868981526    -0.286312183162    -1.751718706478
    H            2.015919301225     0.270978731257    -1.805933677772
    H            1.185973160967     0.247747023316    -3.334255931904

gradient() will perform analytic gradient computation.

*** tstart() called on oliva.prib.upf.edu
*** at Sat Sep 29 20:50:35 2018

   => Loading Basis Set <=

    Name: 6-31G*
    Role: ORBITAL
    Keyword: BASIS
    atoms 1-7         entry C          line   111 file /shared/joao/test_parameterize/miniconda3/share/psi4/basis/6-31gs.gbs 
    atoms 8-12, 15-18 entry H          line    44 file /shared/joao/test_parameterize/miniconda3/share/psi4/basis/6-31gs.gbs 
    atoms 13-14       entry N          line   128 file /shared/joao/test_parameterize/miniconda3/share/psi4/basis/6-31gs.gbs 


         ---------------------------------------------------------
                                   SCF
            by Justin Turney, Rob Parrish, Andy Simmonett
                             and Daniel Smith
                              RKS Reference
                        4 Threads,   2861 MiB Core
         ---------------------------------------------------------

  ==> Geometry <==

    Molecular point group: c1
    Full point group: C1

    Geometry (in Angstrom), charge = 1, multiplicity = 1:

       Center              X                  Y                   Z               Mass       
    ------------   -----------------  -----------------  -----------------  -----------------
         C            0.031400874991     0.012712872608    -0.175165372272    12.000000000000
         C            0.067231536792     1.228608468513     0.524448634464    12.000000000000
         C            0.048015290430     1.213102874821     1.917642859025    12.000000000000
         C           -0.008644478354    -0.002523608113     2.605440007413    12.000000000000
         C           -0.057890787691    -1.210201848381     1.903422144658    12.000000000000
         C           -0.049596236629    -1.210110393938     0.510059238355    12.000000000000
         C            0.008392372475     0.022059422780    -1.652514408152    12.000000000000
         H            0.108482130962     2.173214519104    -0.014401755264     1.007825032070
         H            0.080855580935     2.150141319039     2.464525385555     1.007825032070
         H           -0.021011872857    -0.008563153122     3.691096988416     1.007825032070
         H           -0.112834812272    -2.153164688062     2.439607412081     1.007825032070
         H           -0.097825657260    -2.149118108508    -0.038923456057     1.007825032070
         N            1.139393981128     0.203451690349    -2.319858538660    14.003074004780
         N           -1.134587851598    -0.211667473742    -2.286190797438    14.003074004780
         H           -1.203403551719    -0.290355464761    -3.296280025971     1.007825032070
         H           -1.999868981526    -0.286312183162    -1.751718706478     1.007825032070
         H            2.015919301225     0.270978731257    -1.805933677772     1.007825032070
         H            1.185973160967     0.247747023316    -3.334255931904     1.007825032070

  Running in c1 symmetry.

  Rotational constants: A =      0.12163  B =      0.03700  C =      0.03331 [cm^-1]
  Rotational constants: A =   3646.48831  B =   1109.13401  C =    998.61761 [MHz]
  Nuclear repulsion =  415.995108540800288

  Charge       = 1
  Multiplicity = 1
  Electrons    = 64
  Nalpha       = 32
  Nbeta        = 32

  ==> Algorithm <==

  SCF Algorithm Type is DF.
  DIIS enabled.
  MOM disabled.
  Fractional occupation disabled.
  Guess Type is READ.
  Energy threshold   = 1.00e-08
  Density threshold  = 1.00e-08
  Integral threshold = 0.00e+00

  ==> Primary Basis <==

  Basis Set: 6-31G*
    Blend: 6-31G*
    Number of shells: 72
    Number of basis function: 153
    Number of Cartesian functions: 153
    Spherical Harmonics?: false
    Max angular momentum: 2

  ==> DFT Potential <==

   => Composite Functional: B3LYP-D3ZERO <= 

    B3LYP-d3zero Hyb-GGA Exchange-Correlation Functional

    P. J. Stephens, F. J. Devlin, C. F. Chabalowski, and M. J. Frisch, J. Phys. Chem. 98, 11623 (1994)

    Deriv               =              1
    GGA                 =           TRUE
    Meta                =          FALSE

    Exchange Hybrid     =           TRUE
    MP2 Hybrid          =          FALSE

   => Exchange Functionals <=

    0.0800   Slater exchange
    0.7200         Becke 88

   => Exact (HF) Exchange <=

    0.2000               HF 

   => Correlation Functionals <=

    0.1900   Vosko, Wilk & Nusair (VWN5_RPA)
    0.8100   Lee, Yang & Parr

   => Molecular Quadrature <=

    Radial Scheme       =       TREUTLER
    Pruning Scheme      =           FLAT
    Nuclear Scheme      =       TREUTLER

    BS radius alpha     =              1
    Pruning alpha       =              1
    Radial Points       =             75
    Spherical Points    =            302
    Total Points        =         397355
    Total Blocks        =           3000
    Max Points          =            256
    Max Functions       =            151

   => -D3ZERO: Empirical Dispersion <=

    Grimme's -D3 (zero-damping) Dispersion Correction
    Grimme S.; Antony J.; Ehrlich S.; Krieg H. (2010), J. Chem. Phys., 132: 154104

        S6 =   1.000000E+00
        S8 =   1.703000E+00
       SR6 =   1.261000E+00
       SR8 =   1.000000E+00
    ALPHA6 =   1.400000E+01

   => Loading Basis Set <=

    Name: (6-31G* AUX)
    Role: JKFIT
    Keyword: DF_BASIS_SCF
    atoms 1-7         entry C          line   121 file /shared/joao/test_parameterize/miniconda3/share/psi4/basis/cc-pvdz-jkfit.gbs 
    atoms 8-12, 15-18 entry H          line    51 file /shared/joao/test_parameterize/miniconda3/share/psi4/basis/cc-pvdz-jkfit.gbs 
    atoms 13-14       entry N          line   171 file /shared/joao/test_parameterize/miniconda3/share/psi4/basis/cc-pvdz-jkfit.gbs 

  Reading orbitals from file 180, no projection.

  ==> Pre-Iterations <==

   -------------------------------------------------------
    Irrep   Nso     Nmo     Nalpha   Nbeta   Ndocc  Nsocc
   -------------------------------------------------------
     A        153     153       0       0       0       0
   -------------------------------------------------------
    Total     153     153      32      32      32       0
   -------------------------------------------------------

  ==> Integral Setup <==

  ==> DiskDFJK: Density-Fitted J/K Matrices <==

    J tasked:                  Yes
    K tasked:                  Yes
    wK tasked:                  No
    OpenMP threads:              4
    Integrals threads:           4
    Memory (MB):              2002
    Algorithm:                Core
    Integral Cache:           NONE
    Schwarz Cutoff:          1E-12
    Fitting Condition:       1E-12

   => Auxiliary Basis Set <=

  Basis Set: (6-31G* AUX)
    Blend: CC-PVDZ-JKFIT
    Number of shells: 297
    Number of basis function: 954
    Number of Cartesian functions: 954
    Spherical Harmonics?: false
    Max angular momentum: 3

  Minimum eigenvalue in the overlap matrix is 4.8667139720E-04.
  Using Symmetric Orthogonalization.

  SCF Guess: Orbitals guess was supplied from a previous computation.

  ==> Iterations <==

                           Total Energy        Delta E     RMS |[F,P]|

   @DF-RKS iter   0:  -381.44754052250136   -3.81448e+02   1.61872e-03 
   @DF-RKS iter   1:  -381.46422610524451   -1.66856e-02   1.77461e-04 
   @DF-RKS iter   2:  -381.46421542477162    1.06805e-05   2.25273e-04 DIIS
   @DF-RKS iter   3:  -381.46436494345625   -1.49519e-04   6.17524e-05 DIIS
   @DF-RKS iter   4:  -381.46437607839209   -1.11349e-05   1.91478e-05 DIIS
   @DF-RKS iter   5:  -381.46437702845105   -9.50059e-07   8.20226e-06 DIIS
   @DF-RKS iter   6:  -381.46437722385565   -1.95405e-07   2.07812e-06 DIIS
   @DF-RKS iter   7:  -381.46437723526276   -1.14071e-08   5.87642e-07 DIIS
   @DF-RKS iter   8:  -381.46437723613786   -8.75104e-10   2.13022e-07 DIIS
   @DF-RKS iter   9:  -381.46437723625894   -1.21076e-10   4.59184e-08 DIIS
   @DF-RKS iter  10:  -381.46437723626389   -4.94538e-12   1.87160e-08 DIIS
   @DF-RKS iter  11:  -381.46437723626514   -1.25056e-12   4.67913e-09 DIIS

  ==> Post-Iterations <==

    Orbital Energies [Eh]
    ---------------------

    Doubly Occupied:                                                      

       1A    -14.576541     2A    -14.576261     3A    -10.503068  
       4A    -10.367827     5A    -10.349278     6A    -10.349052  
       7A    -10.333860     8A    -10.333498     9A    -10.333046  
      10A     -1.189059    11A     -1.097236    12A     -1.008701  
      13A     -0.922363    14A     -0.894834    15A     -0.844463  
      16A     -0.786996    17A     -0.764132    18A     -0.754042  
      19A     -0.727729    20A     -0.690456    21A     -0.666785  
      22A     -0.622625    23A     -0.616110    24A     -0.576597  
      25A     -0.573247    26A     -0.566684    27A     -0.515339  
      28A     -0.496929    29A     -0.491021    30A     -0.479226  
      31A     -0.404646    32A     -0.398224  

    Virtual:                                                              

      33A     -0.200339    34A     -0.159582    35A     -0.147571  
      36A     -0.115823    37A     -0.070595    38A     -0.064894  
      39A     -0.035312    40A     -0.030671    41A      0.009108  
      42A      0.014080    43A      0.024536    44A      0.056135  
      45A      0.059344    46A      0.073775    47A      0.138807  
      48A      0.147798    49A      0.164837    50A      0.184960  
      51A      0.200237    52A      0.217870    53A      0.292034  
      54A      0.342266    55A      0.357085    56A      0.382104  
      57A      0.390800    58A      0.399985    59A      0.404648  
      60A      0.426250    61A      0.441867    62A      0.452151  
      63A      0.454735    64A      0.464942    65A      0.477711  
      66A      0.481366    67A      0.481663    68A      0.494826  
      69A      0.514177    70A      0.528912    71A      0.563009  
      72A      0.579419    73A      0.594661    74A      0.631502  
      75A      0.665006    76A      0.677200    77A      0.678404  
      78A      0.679330    79A      0.698860    80A      0.711584  
      81A      0.731892    82A      0.748368    83A      0.779713  
      84A      0.790828    85A      0.812814    86A      0.833261  
      87A      0.851916    88A      0.941242    89A      0.967713  
      90A      1.009262    91A      1.016453    92A      1.027425  
      93A      1.032474    94A      1.089428    95A      1.142403  
      96A      1.189701    97A      1.199974    98A      1.289218  
      99A      1.306005   100A      1.325428   101A      1.332727  
     102A      1.358718   103A      1.361982   104A      1.379572  
     105A      1.445578   106A      1.465077   107A      1.500679  
     108A      1.585896   109A      1.593289   110A      1.664577  
     111A      1.674334   112A      1.740307   113A      1.768607  
     114A      1.796505   115A      1.821550   116A      1.849722  
     117A      1.897042   118A      1.913668   119A      1.975570  
     120A      1.993085   121A      1.995268   122A      2.001054  
     123A      2.041000   124A      2.073024   125A      2.122696  
     126A      2.135240   127A      2.160437   128A      2.181442  
     129A      2.219382   130A      2.281958   131A      2.379091  
     132A      2.399390   133A      2.405633   134A      2.435854  
     135A      2.507706   136A      2.570850   137A      2.577392  
     138A      2.591896   139A      2.622602   140A      2.633683  
     141A      2.711015   142A      2.888797   143A      2.915117  
     144A      3.259640   145A      3.630436   146A      3.634941  
     147A      3.944728   148A      3.968658   149A      3.985728  
     150A      4.117383   151A      4.180550   152A      4.263083  
     153A      4.554626  

    Final Occupation by Irrep:
              A 
    DOCC [    32 ]

  Energy converged.

  @DF-RKS Final Energy:  -381.46437723626514

   => Energetics <=

    Nuclear Repulsion Energy =            415.9951085408002882
    One-Electron Energy =               -1327.3589007840284921
    Two-Electron Energy =                 574.3068112233336251
    DFT Exchange-Correlation Energy =     -44.3957434163705855
    Empirical Dispersion Energy =          -0.0116528000000000
    VV10 Nonlocal Energy =                  0.0000000000000000
    Total Energy =                       -381.4643772362651362



Properties will be evaluated at   0.000000,   0.000000,   0.000000 [a0]

Properties computed using the SCF density matrix

  Nuclear Dipole Moment: [e a0]
     X:     0.4221      Y:     0.4137      Z:    -0.1675

  Electronic Dipole Moment: [e a0]
     X:    -0.4313      Y:    -0.4249      Z:    -2.3802

  Dipole Moment: [e a0]
     X:    -0.0092      Y:    -0.0112      Z:    -2.5477     Total:     2.5478

  Dipole Moment: [D]
     X:    -0.0234      Y:    -0.0284      Z:    -6.4757     Total:     6.4758


*** tstop() called on oliva.prib.upf.edu at Sat Sep 29 20:50:57 2018
Module time:
	user time   =      80.55 seconds =       1.34 minutes
	system time =       0.60 seconds =       0.01 minutes
	total time  =         22 seconds =       0.37 minutes
Total time:
	user time   =     212.39 seconds =       3.54 minutes
	system time =       1.88 seconds =       0.03 minutes
	total time  =         59 seconds =       0.98 minutes

*** tstart() called on oliva.prib.upf.edu
*** at Sat Sep 29 20:50:57 2018


         ------------------------------------------------------------
                                   SCF GRAD                          
                          Rob Parrish, Justin Turney,                
                       Andy Simmonett, and Alex Sokolov              
         ------------------------------------------------------------

  ==> Geometry <==

    Molecular point group: c1
    Full point group: C1

    Geometry (in Angstrom), charge = 1, multiplicity = 1:

       Center              X                  Y                   Z               Mass       
    ------------   -----------------  -----------------  -----------------  -----------------
         C            0.031400874991     0.012712872608    -0.175165372272    12.000000000000
         C            0.067231536792     1.228608468513     0.524448634464    12.000000000000
         C            0.048015290430     1.213102874821     1.917642859025    12.000000000000
         C           -0.008644478354    -0.002523608113     2.605440007413    12.000000000000
         C           -0.057890787691    -1.210201848381     1.903422144658    12.000000000000
         C           -0.049596236629    -1.210110393938     0.510059238355    12.000000000000
         C            0.008392372475     0.022059422780    -1.652514408152    12.000000000000
         H            0.108482130962     2.173214519104    -0.014401755264     1.007825032070
         H            0.080855580935     2.150141319039     2.464525385555     1.007825032070
         H           -0.021011872857    -0.008563153122     3.691096988416     1.007825032070
         H           -0.112834812272    -2.153164688062     2.439607412081     1.007825032070
         H           -0.097825657260    -2.149118108508    -0.038923456057     1.007825032070
         N            1.139393981128     0.203451690349    -2.319858538660    14.003074004780
         N           -1.134587851598    -0.211667473742    -2.286190797438    14.003074004780
         H           -1.203403551719    -0.290355464761    -3.296280025971     1.007825032070
         H           -1.999868981526    -0.286312183162    -1.751718706478     1.007825032070
         H            2.015919301225     0.270978731257    -1.805933677772     1.007825032070
         H            1.185973160967     0.247747023316    -3.334255931904     1.007825032070

  Nuclear repulsion =  415.995108540800288

  ==> Basis Set <==

  Basis Set: 6-31G*
    Blend: 6-31G*
    Number of shells: 72
    Number of basis function: 153
    Number of Cartesian functions: 153
    Spherical Harmonics?: false
    Max angular momentum: 2

  ==> DFJKGrad: Density-Fitted SCF Gradients <==

    Gradient:                    1
    J tasked:                  Yes
    K tasked:                  Yes
    wK tasked:                  No
    OpenMP threads:              4
    Integrals threads:           4
    Memory (MB):              2002
    Schwarz Cutoff:          0E+00
    Fitting Condition:       1E-12

   => Auxiliary Basis Set <=

  Basis Set: (6-31G* AUX)
    Blend: CC-PVDZ-JKFIT
    Number of shells: 297
    Number of basis function: 954
    Number of Cartesian functions: 954
    Spherical Harmonics?: false
    Max angular momentum: 3

  ==> DFT Potential <==

   => Composite Functional: B3LYP-D3ZERO <= 

    B3LYP-d3zero Hyb-GGA Exchange-Correlation Functional

    P. J. Stephens, F. J. Devlin, C. F. Chabalowski, and M. J. Frisch, J. Phys. Chem. 98, 11623 (1994)

    Deriv               =              1
    GGA                 =           TRUE
    Meta                =          FALSE

    Exchange Hybrid     =           TRUE
    MP2 Hybrid          =          FALSE

   => Exchange Functionals <=

    0.0800   Slater exchange
    0.7200         Becke 88

   => Exact (HF) Exchange <=

    0.2000               HF 

   => Correlation Functionals <=

    0.1900   Vosko, Wilk & Nusair (VWN5_RPA)
    0.8100   Lee, Yang & Parr

   => Molecular Quadrature <=

    Radial Scheme       =       TREUTLER
    Pruning Scheme      =           FLAT
    Nuclear Scheme      =       TREUTLER

    BS radius alpha     =              1
    Pruning alpha       =              1
    Radial Points       =             75
    Spherical Points    =            302
    Total Points        =         397355
    Total Blocks        =           3000
    Max Points          =            256
    Max Functions       =            151


  -Total Gradient:
     Atom            X                  Y                   Z
    ------   -----------------  -----------------  -----------------
       1        0.004323344754    -0.001846778470    -0.004431031622
       2       -0.003392531129    -0.001011919869     0.001743530326
       3       -0.000510301822     0.000278449318    -0.000845632540
       4        0.000212622230    -0.000276782722     0.000477372346
       5        0.000382933893     0.000018580704    -0.000620764158
       6        0.000956811251     0.001421931329     0.002094370695
       7       -0.000377560905     0.007072502554     0.005015117681
       8       -0.000031251177     0.001105203768    -0.000629003466
       9        0.000360133210     0.000107438567     0.000008159111
      10       -0.000059062453    -0.000028451453     0.000112431022
      11       -0.000392813479    -0.000476034848     0.000298567451
      12       -0.000358008004    -0.001505141111    -0.000583168539
      13       -0.002107514073    -0.002404489436    -0.001937077854
      14        0.002411134115    -0.001090963726    -0.003888027609
      15        0.000460326535    -0.000461867343    -0.000550758453
      16       -0.005754683863    -0.000058547113     0.002712253213
      17        0.004492767141    -0.000965891032     0.002429097845
      18       -0.000624323709     0.000127500243    -0.001417132375


*** tstop() called on oliva.prib.upf.edu at Sat Sep 29 20:51:05 2018
Module time:
	user time   =      30.24 seconds =       0.50 minutes
	system time =       0.27 seconds =       0.00 minutes
	total time  =          8 seconds =       0.13 minutes
Total time:
	user time   =     242.70 seconds =       4.04 minutes
	system time =       2.16 seconds =       0.04 minutes
	total time  =         67 seconds =       1.12 minutes

			-----------------------------------------
			 OPTKING 2.0: for geometry optimizations 
			  - R.A. King,  Bethel University        
			-----------------------------------------
	At level 1: Red. Int., RFO, no backsteps, dynamic trust

	Previous internal coordinate definitions found.
	---Fragment 1 Geometry and Gradient---
	 C           0.0593390541        0.0240238476       -0.3310145816
	 C           0.1270491920        2.3217335300        0.9910642899
	 C           0.0907357491        2.2924322044        3.6238198242
	 C          -0.0163356967       -0.0047689282        4.9235680697
	 C          -0.1093977344       -2.2869500590        3.5969465687
	 C          -0.0937233045       -2.2867772351        0.9638722720
	 C           0.0158592856        0.0416862677       -3.1227996621
	 H           0.2050015178        4.1067802691       -0.0272153733
	 H           0.1527949043        4.0631782400        4.6572780262
	 H          -0.0397066852       -0.0161820142        6.9751624380
	 H          -0.2132268934       -4.0688915794        4.6101898806
	 H          -0.1848637010       -4.0612446523       -0.0735546721
	 N           2.1531425818        0.3844679760       -4.3838973051
	 N          -2.1440603132       -0.3999935566       -4.3202744947
	 H          -2.2741031401       -0.5486923096       -6.2290665064
	 H          -3.7792046767       -0.5410516147       -3.3102686171
	 H           3.8095353853        0.5120755899       -3.4127200651
	 H           2.2411644752        0.4681740243       -6.3008305682
	             0.0043233448       -0.0018467785       -0.0044310316
	            -0.0033925311       -0.0010119199        0.0017435303
	            -0.0005103018        0.0002784493       -0.0008456325
	             0.0002126222       -0.0002767827        0.0004773723
	             0.0003829339        0.0000185807       -0.0006207642
	             0.0009568113        0.0014219313        0.0020943707
	            -0.0003775609        0.0070725026        0.0050151177
	            -0.0000312512        0.0011052038       -0.0006290035
	             0.0003601332        0.0001074386        0.0000081591
	            -0.0000590625       -0.0000284515        0.0001124310
	            -0.0003928135       -0.0004760348        0.0002985675
	            -0.0003580080       -0.0015051411       -0.0005831685
	            -0.0021075141       -0.0024044894       -0.0019370779
	             0.0024111341       -0.0010909637       -0.0038880276
	             0.0004603265       -0.0004618673       -0.0005507585
	            -0.0057546839       -0.0000585471        0.0027122532
	             0.0044927671       -0.0009658910        0.0024290978
	            -0.0006243237        0.0001275002       -0.0014171324

	---Fragment 1 Intrafragment Coordinates---
	 - Coordinate -           - BOHR/RAD -       - ANG/DEG -
	 R(1,2)           =         2.651782	       1.403263
	 R(1,6)           =         2.653293	       1.404062
	 R(1,7)           =         2.792180	       1.477558
	 R(2,3)           =         2.633169	       1.393413
	 R(2,8)           =         2.056541	       1.088275
	 R(3,4)           =         2.641580	       1.397864
	 R(3,9)           =         2.051202	       1.085449
	 R(4,5)           =         2.641389	       1.397763
	 R(4,10)          =         2.051759	       1.085744
	 R(5,6)           =         2.633121	       1.393388
	 R(5,11)          =         2.052500	       1.086136
	 R(6,12)          =         2.057497	       1.088781
	 R(7,13)          =         2.505164	       1.325676
	 R(7,14)          =         2.508840	       1.327621
	 R(13,17)         =         1.924346	       1.018320
	 R(13,18)         =         1.920778	       1.016432
	 R(14,15)         =         1.918987	       1.015484
	 R(14,16)         =         1.927098	       1.019776
	 B(1,2,3)         =         2.081155	     119.241386
	 B(1,2,8)         =         2.101567	     120.410925
	 B(1,6,5)         =         2.081077	     119.236923
	 B(1,6,12)        =         2.103189	     120.503855
	 B(1,7,13)        =         2.083928	     119.400307
	 B(1,7,14)        =         2.082344	     119.309521
	 B(2,1,6)         =         2.109229	     120.849896
	 B(2,1,7)         =         2.086801	     119.564865
	 B(2,3,4)         =         2.096930	     120.145212
	 B(2,3,9)         =         2.087168	     119.585904
	 B(3,2,8)         =         2.100463	     120.347657
	 B(3,4,5)         =         2.100961	     120.376197
	 B(3,4,10)        =         2.091273	     119.821136
	 B(4,3,9)         =         2.099082	     120.268531
	 B(4,5,6)         =         2.096670	     120.130324
	 B(4,5,11)        =         2.098972	     120.262223
	 B(5,4,10)        =         2.090930	     119.801462
	 B(5,6,12)        =         2.098891	     120.257604
	 B(6,1,7)         =         2.085839	     119.509777
	 B(6,5,11)        =         2.087495	     119.604639
	 B(7,13,17)       =         2.082168	     119.299419
	 B(7,13,18)       =         2.150112	     123.192332
	 B(7,14,15)       =         2.149274	     123.144329
	 B(7,14,16)       =         2.086587	     119.552656
	 B(13,7,14)       =         2.115674	     121.219167
	 B(15,14,16)      =         2.046710	     117.267867
	 B(17,13,18)      =         2.050295	     117.473225
	 D(1,2,3,4)       =        -0.001882	      -0.107820
	 D(1,2,3,9)       =         3.135950	     179.676696
	 D(1,6,5,4)       =         0.018614	       1.066484
	 D(1,6,5,11)      =        -3.133601	    -179.542100
	 D(1,7,13,17)     =         0.071313	       4.085914
	 D(1,7,13,18)     =        -3.108832	    -178.122971
	 D(1,7,14,15)     =        -3.056384	    -175.117893
	 D(1,7,14,16)     =         0.123903	       7.099119
	 D(2,1,6,5)       =        -0.030236	      -1.732376
	 D(2,1,6,12)      =         3.119413	     178.729213
	*D(2,1,7,13)      =         1.396263	      79.999986
	 D(2,1,7,14)      =        -1.798147	    -103.026256
	 D(2,3,4,5)       =        -0.009498	      -0.544170
	 D(2,3,4,10)      =         3.139078	     179.855905
	 D(3,2,1,6)       =         0.021870	       1.253064
	 D(3,2,1,7)       =         3.108059	     178.078682
	 D(3,4,5,6)       =         0.001000	       0.057313
	 D(3,4,5,11)      =        -3.129900	    -179.330067
	 D(4,3,2,8)       =         3.138576	     179.827143
	 D(4,5,6,12)      =        -3.131015	    -179.393943
	 D(5,4,3,9)       =         3.135882	     179.672797
	 D(5,6,1,7)       =        -3.116455	    -178.559724
	 D(6,1,2,8)       =        -3.118587	    -178.681857
	 D(6,1,7,13)      =        -1.799984	    -103.131465
	 D(6,1,7,14)      =         1.288791	      73.842293
	 D(6,5,4,10)      =         3.135612	     179.657317
	 D(7,1,2,8)       =        -0.032397	      -1.856240
	 D(7,1,6,12)      =         0.033194	       1.901865
	 D(8,2,3,9)       =        -0.006778	      -0.388341
	 D(9,3,4,10)      =         0.001272	       0.072872
	 D(10,4,5,11)     =         0.004711	       0.269937
	 D(11,5,6,12)     =        -0.000044	      -0.002527
	 D(13,7,14,15)    =         0.031401	       1.799120
	 D(13,7,14,16)    =        -3.071498	    -175.983868
	 D(14,7,13,17)    =        -3.016424	    -172.828348
	 D(14,7,13,18)    =         0.086617	       4.962767

	Current energy   :      -381.4643772363

	Energy change for the previous step:
		Projected    :        -0.0016672723
		Actual       :        -0.0013911360
	Energy ratio indicates good step: Trust radius increased to 1.000e+00.


	Performing BFGS update.
	Previous computed or guess Hessian on step 1.
	Steps to be used in Hessian update: 1
	Taking RFO optimization step.
	Going to follow RFO solution 1.
	Using RFO vector 1.
	Norm of target step-size    0.13262
	Projected energy change by RFO approximation:        -0.0004847620

	Back-transformation to cartesian coordinates...
	Could not converge backtransformation.
	Using first guess instead.

	Back-transformation to cartesian coordinates to adjust frozen coordinates...
	Successfully converged to displaced geometry.

	--- Internal Coordinate Step in ANG or DEG, aJ/ANG or AJ/DEG ---
	 ---------------------------------------------------------------------------
	   Coordinate                Previous        Force       Change         New 
	   ----------                --------       ------       ------       ------
	    1 R(1,2)          =      1.403263    -0.003508    -0.001004     1.402259
	    2 R(1,6)          =      1.404062    -0.008828    -0.001590     1.402472
	    3 R(1,7)          =      1.477558     0.019199     0.005073     1.482631
	    4 R(2,3)          =      1.393413     0.003066     0.000809     1.394222
	    5 R(2,8)          =      1.088275    -0.010458    -0.001667     1.086608
	    6 R(3,4)          =      1.397864    -0.004095    -0.000603     1.397261
	    7 R(3,9)          =      1.085449    -0.000891    -0.000079     1.085370
	    8 R(4,5)          =      1.397763    -0.000593    -0.000149     1.397614
	    9 R(4,10)         =      1.085744    -0.000938    -0.000135     1.085610
	   10 R(5,6)          =      1.393388     0.001607     0.000502     1.393890
	   11 R(5,11)         =      1.086136    -0.004785    -0.000746     1.085390
	   12 R(6,12)         =      1.088781    -0.013244    -0.002171     1.086610
	   13 R(7,13)         =      1.325676    -0.012555    -0.001959     1.323717
	   14 R(7,14)         =      1.327621    -0.029565    -0.003425     1.324196
	   15 R(13,17)        =      1.018320    -0.041436    -0.003462     1.014858
	   16 R(13,18)        =      1.016432    -0.011458    -0.001266     1.015166
	   17 R(14,15)        =      1.015484    -0.004546     0.000202     1.015686
	   18 R(14,16)        =      1.019776    -0.051977    -0.005855     1.013921
	   19 B(1,2,3)        =    119.241386    -0.000030    -0.149056   119.092331
	   20 B(1,2,8)        =    120.410925     0.000015     0.030619   120.441544
	   21 B(1,6,5)        =    119.236923    -0.000042    -0.200597   119.036325
	   22 B(1,6,12)       =    120.503855    -0.000000    -0.032748   120.471106
	   23 B(1,7,13)       =    119.400307    -0.000037    -0.159805   119.240502
	   24 B(1,7,14)       =    119.309521    -0.000062    -0.274604   119.034918
	   25 B(2,1,6)        =    120.849896     0.000069     0.290190   121.140086
	   26 B(2,1,7)        =    119.564865     0.000003    -0.053569   119.511296
	   27 B(2,3,4)        =    120.145212    -0.000018    -0.043212   120.102000
	   28 B(2,3,9)        =    119.585904     0.000014     0.037374   119.623278
	   29 B(3,2,8)        =    120.347657     0.000015     0.118460   120.466117
	   30 B(3,4,5)        =    120.376197     0.000017     0.065796   120.441993
	   31 B(3,4,10)       =    119.821136    -0.000011    -0.040705   119.780432
	   32 B(4,3,9)        =    120.268531     0.000005     0.005742   120.274274
	   33 B(4,5,6)        =    120.130324     0.000003     0.021004   120.151328
	   34 B(4,5,11)       =    120.262223     0.000000     0.008582   120.270805
	   35 B(5,4,10)       =    119.801462    -0.000006    -0.024388   119.777074
	   36 B(5,6,12)       =    120.257604     0.000042     0.228640   120.486244
	   37 B(6,1,7)        =    119.509777    -0.000073    -0.325992   119.183785
	   38 B(6,5,11)       =    119.604639    -0.000003    -0.027575   119.577064
	   39 B(7,13,17)      =    119.299419    -0.000034    -0.263064   119.036355
	   40 B(7,13,18)      =    123.192332     0.000067     0.399270   123.591602
	   41 B(7,14,15)      =    123.144329     0.000073     0.389100   123.533429
	   42 B(7,14,16)      =    119.552656    -0.000083    -0.484031   119.068625
	   43 B(13,7,14)      =    121.219167     0.000100     0.475678   121.694845
	   44 B(15,14,16)     =    117.267867     0.000011     0.103298   117.371165
	   45 B(17,13,18)     =    117.473225    -0.000031    -0.107552   117.365673
	   46 D(1,2,3,4)      =     -0.107820     0.000000    -0.067957    -0.175777
	   47 D(1,2,3,9)      =    179.676696     0.000003     0.390458   180.067154
	   48 D(1,6,5,4)      =      1.066484     0.000002     0.522129     1.588614
	   49 D(1,6,5,11)     =   -179.542100     0.000004     0.805635  -178.736466
	   50 D(1,7,13,17)    =      4.085914    -0.000017    -3.269462     0.816452
	   51 D(1,7,13,18)    =   -178.122971     0.000001    -0.117146  -178.240117
	   52 D(1,7,14,15)    =   -175.117893    -0.000010    -2.033256  -177.151149
	   53 D(1,7,14,16)    =      7.099119    -0.000010    -2.316229     4.782890
	   54 D(2,1,6,5)      =     -1.732376    -0.000002    -0.617566    -2.349941
	   55 D(2,1,6,12)     =    178.729213     0.000001    -0.168778   178.560435
	   56 *D(2,1,7,13)    =     79.999986     0.000000    -0.000000    79.999986
	   57 D(2,1,7,14)     =   -103.026256     0.000007     1.076906  -101.949350
	   58 D(2,3,4,5)      =     -0.544170     0.000000    -0.014610    -0.558780
	   59 D(2,3,4,10)     =    179.855905    -0.000001    -0.156399   179.699506
	   60 D(3,2,1,6)      =      1.253064     0.000001     0.391548     1.644612
	   61 D(3,2,1,7)      =    178.078682    -0.000005    -1.138751   176.939931
	   62 D(3,4,5,6)      =      0.057313    -0.000001    -0.217236    -0.159923
	   63 D(3,4,5,11)     =   -179.330067    -0.000004    -0.502503  -179.832570
	   64 D(4,3,2,8)      =    179.827143    -0.000001     0.031473   179.858617
	   65 D(4,5,6,12)     =   -179.393943    -0.000001     0.072039  -179.321904
	   66 D(5,4,3,9)      =    179.672797    -0.000003    -0.476104   179.196693
	   67 D(5,6,1,7)      =   -178.559724     0.000003     0.899333  -177.660391
	   68 D(6,1,2,8)      =   -178.681857     0.000002     0.292084  -178.389773
	   69 D(6,1,7,13)     =   -103.131465    -0.000005    -1.480586  -104.612052
	   70 D(6,1,7,14)     =     73.842293     0.000002    -0.403680    73.438612
	   71 D(6,5,4,10)     =    179.657317    -0.000000    -0.075518   179.581799
	   72 D(7,1,2,8)      =     -1.856240    -0.000004    -1.238215    -3.094454
	   73 D(7,1,6,12)     =      1.901865     0.000007     1.348121     3.249985
	   74 D(8,2,3,9)      =     -0.388341     0.000002     0.489889     0.101548
	   75 D(9,3,4,10)     =      0.072872    -0.000004    -0.617893    -0.545021
	   76 D(10,4,5,11)    =      0.269937    -0.000002    -0.360784    -0.090848
	   77 D(11,5,6,12)    =     -0.002527     0.000001     0.355544     0.353017
	   78 D(13,7,14,15)   =      1.799120    -0.000004    -0.949384     0.849737
	   79 D(13,7,14,16)   =   -175.983868    -0.000005    -1.232356  -177.216224
	   80 D(14,7,13,17)   =   -172.828348    -0.000022    -4.352082  -177.180430
	   81 D(14,7,13,18)   =      4.962767    -0.000005    -1.199766     3.763001
	 ---------------------------------------------------------------------------
	Successfully symmetrized geometry.

  ==> Convergence Check <==

  Measures of convergence in internal coordinates in au.
  Criteria marked as inactive (o), active & met (*), and active & unmet ( ).
  ---------------------------------------------------------------------------------------------
   Step     Total Energy     Delta E     MAX Force     RMS Force      MAX Disp      RMS Disp   
  ---------------------------------------------------------------------------------------------
    Convergence Criteria    1.00e-06 *    3.00e-04 *             o    1.20e-03 *             o
  ---------------------------------------------------------------------------------------------
      2    -381.46437724   -1.39e-03      6.31e-03      1.15e-03 o    7.60e-02      1.47e-02 o  ~
  ---------------------------------------------------------------------------------------------

	Writing optimization data to binary file.
	Structure for next step:
	Cartesian Geometry (in Angstrom)
	    C     0.0496948134   0.0059944879  -0.1738907522
	    C     0.0823885972   1.2242673428   0.5197030884
	    C     0.0490493354   1.2119276411   1.9134721533
	    C    -0.0197488467  -0.0019127346   2.6020911957
	    C    -0.0674417883  -1.2110546502   1.9027875456
	    C    -0.0500291469  -1.2149172604   0.5090118977
	    C     0.0158358134   0.0101455646  -1.6561288029
	    H     0.1335751196   2.1649053994  -0.0218650489
	    H     0.0728433763   2.1499292094   2.4590135277
	    H    -0.0405100647  -0.0056541857   3.6874958094
	    H    -0.1235850113  -2.1522278112   2.4404802506
	    H    -0.0979567694  -2.1512240676  -0.0403084148
	    N     1.1409413388   0.1968057408  -2.3280830755
	    N    -1.1344489876  -0.2121096043  -2.2733338496
	    H    -1.2280497335  -0.2660755320  -3.2832568920
	    H    -1.9794386487  -0.3074050236  -1.7211140595
	    H     2.0070022574   0.3209742328  -1.8138282445
	    H     1.1898783457   0.2376312507  -3.3412463286
			--------------------------
			 OPTKING Finished Execution 
			--------------------------

    Structure for next step:
    Molecular point group: c1
    Full point group: C1

    Geometry (in Angstrom), charge = 1, multiplicity = 1:

    C            0.049694813415     0.005994487862    -0.173890752171
    C            0.082388597234     1.224267342799     0.519703088400
    C            0.049049335369     1.211927641140     1.913472153326
    C           -0.019748846654    -0.001912734607     2.602091195715
    C           -0.067441788283    -1.211054650164     1.902787545615
    C           -0.050029146949    -1.214917260353     0.509011897704
    C            0.015835813357     0.010145564591    -1.656128802917
    H            0.133575119598     2.164905399435    -0.021865048910
    H            0.072843376294     2.149929209356     2.459013527724
    H           -0.040510064713    -0.005654185715     3.687495809428
    H           -0.123585011344    -2.152227811209     2.440480250600
    H           -0.097956769407    -2.151224067593    -0.040308414834
    N            1.140941338783     0.196805740818    -2.328083075512
    N           -1.134448987640    -0.212109604288    -2.273333849550
    H           -1.228049733478    -0.266075532013    -3.283256891966
    H           -1.979438648701    -0.307405023621    -1.721114059537
    H            2.007002257380     0.320974232813    -1.813828244497
    H            1.189878345738     0.237631250749    -3.341246328619

gradient() will perform analytic gradient computation.

*** tstart() called on oliva.prib.upf.edu
*** at Sat Sep 29 20:51:05 2018

   => Loading Basis Set <=

    Name: 6-31G*
    Role: ORBITAL
    Keyword: BASIS
    atoms 1-7         entry C          line   111 file /shared/joao/test_parameterize/miniconda3/share/psi4/basis/6-31gs.gbs 
    atoms 8-12, 15-18 entry H          line    44 file /shared/joao/test_parameterize/miniconda3/share/psi4/basis/6-31gs.gbs 
    atoms 13-14       entry N          line   128 file /shared/joao/test_parameterize/miniconda3/share/psi4/basis/6-31gs.gbs 


         ---------------------------------------------------------
                                   SCF
            by Justin Turney, Rob Parrish, Andy Simmonett
                             and Daniel Smith
                              RKS Reference
                        4 Threads,   2861 MiB Core
         ---------------------------------------------------------

  ==> Geometry <==

    Molecular point group: c1
    Full point group: C1

    Geometry (in Angstrom), charge = 1, multiplicity = 1:

[...]
	             0.0000024587       -0.0000047136       -0.0000056207
	            -0.0021684435        0.0047504534        0.0000205945
	            -0.0000049108        0.0000006762       -0.0000000530
	             0.0000008105       -0.0000023022        0.0000009484
	             0.0000045028       -0.0000010378        0.0000009259
	            -0.0000024732        0.0000006710        0.0000016054
	             0.0000036003       -0.0000003521       -0.0000024730
	             0.0005014254       -0.0032737936        0.0000084493
	             0.0000063781       -0.0000292680       -0.0000026815
	            -0.0000021182        0.0000136137        0.0000102371
	             0.0000041745        0.0000110188       -0.0000029309
	            -0.0000233508       -0.0000064835       -0.0000169725
	             0.0000005482       -0.0000018132       -0.0000012908

	---Fragment 1 Intrafragment Coordinates---
	 - Coordinate -           - BOHR/RAD -       - ANG/DEG -
	 R(1,2)           =         2.649876	       1.402254
	 R(1,6)           =         2.650627	       1.402652
	 R(1,7)           =         2.802714	       1.483133
	 R(2,3)           =         2.634694	       1.394220
	 R(2,8)           =         2.052954	       1.086376
	 R(3,4)           =         2.640406	       1.397243
	 R(3,9)           =         2.050898	       1.085288
	 R(4,5)           =         2.641034	       1.397575
	 R(4,10)          =         2.051510	       1.085613
	 R(5,6)           =         2.634155	       1.393935
	 R(5,11)          =         2.050942	       1.085312
	 R(6,12)          =         2.052890	       1.086343
	 R(7,13)          =         2.501708	       1.323847
	 R(7,14)          =         2.501745	       1.323866
	 R(13,17)         =         1.913501	       1.012581
	 R(13,18)         =         1.917859	       1.014887
	 R(14,15)         =         1.917815	       1.014864
	 R(14,16)         =         1.913495	       1.012578
	 B(1,2,3)         =         2.078212	     119.072750
	 B(1,2,8)         =         2.103406	     120.516309
	 B(1,6,5)         =         2.077630	     119.039458
	 B(1,6,12)        =         2.103130	     120.500484
	 B(1,7,13)        =         2.081008	     119.232953
	 B(1,7,14)        =         2.076969	     119.001568
	 B(2,1,6)         =         2.114723	     121.164680
	 B(2,1,7)         =         2.085520	     119.491515
	 B(2,3,4)         =         2.096157	     120.100971
	 B(2,3,9)         =         2.088070	     119.637578
	 B(3,2,8)         =         2.101563	     120.410686
	 B(3,4,5)         =         2.102682	     120.474819
	 B(3,4,10)        =         2.090364	     119.769031
	 B(4,3,9)         =         2.098951	     120.261022
	 B(4,5,6)         =         2.096574	     120.124859
	 B(4,5,11)        =         2.098744	     120.249180
	 B(5,4,10)        =         2.090132	     119.755761
	 B(5,6,12)        =         2.102287	     120.452151
	 B(6,1,7)         =         2.081000	     119.232521
	 B(6,5,11)        =         2.087860	     119.625547
	 B(7,13,17)       =         2.078727	     119.102258
	 B(7,13,18)       =         2.156974	     123.585511
	 B(7,14,15)       =         2.156639	     123.566313
	 B(7,14,16)       =         2.078474	     119.087782
	 B(13,7,14)       =         2.124450	     121.722005
	 B(15,14,16)      =         2.047982	     117.340721
	 B(17,13,18)      =         2.047011	     117.285091
	 D(1,2,3,4)       =        -0.002529	      -0.144891
	 D(1,2,3,9)       =        -3.139976	    -179.907358
	 D(1,6,5,4)       =         0.022160	       1.269659
	 D(1,6,5,11)      =        -3.123507	    -178.963771
	 D(1,7,13,17)     =         0.001324	       0.075850
	 D(1,7,13,18)     =        -3.106259	    -177.975523
	 D(1,7,14,15)     =        -3.086679	    -176.853652
	 D(1,7,14,16)     =         0.069770	       3.997555
	 D(2,1,6,5)       =        -0.032462	      -1.859964
	 D(2,1,6,12)      =         3.126902	     179.158301
	*D(2,1,7,13)      =         1.396263	      79.999986
	 D(2,1,7,14)      =        -1.786453	    -102.356226
	 D(2,3,4,5)       =        -0.007392	      -0.423552
	 D(2,3,4,10)      =         3.138170	     179.803890
	 D(3,2,1,6)       =         0.022655	       1.298044
	 D(3,2,1,7)       =         3.096790	     177.433011
	 D(3,4,5,6)       =        -0.002596	      -0.148723
	 D(3,4,5,11)      =        -3.140089	    -179.913825
	 D(4,3,2,8)       =         3.135877	     179.672539
	 D(4,5,6,12)      =        -3.137196	    -179.748100
	 D(5,4,3,9)       =         3.130028	     179.337421
	 D(5,6,1,7)       =        -3.106769	    -178.004763
	 D(6,1,2,8)       =        -3.115748	    -178.519189
	 D(6,1,7,13)      =        -1.811474	    -103.789811
	 D(6,1,7,14)      =         1.288995	      73.853977
	 D(6,5,4,10)      =         3.135028	     179.623865
	 D(7,1,2,8)       =        -0.041613	      -2.384221
	 D(7,1,6,12)      =         0.052596	       3.013502
	 D(8,2,3,9)       =        -0.001570	      -0.089928
	 D(9,3,4,10)      =        -0.007595	      -0.435137
	 D(10,4,5,11)     =        -0.002465	      -0.141237
	 D(11,5,6,12)     =         0.000322	       0.018470
	 D(13,7,14,15)    =         0.012725	       0.729071
	 D(13,7,14,16)    =        -3.114012	    -178.419723
	 D(14,7,13,17)    =        -3.097984	    -177.501426
	 D(14,7,13,18)    =         0.077618	       4.447201

	Current energy   :      -381.4646557626

	Energy change for the previous step:
		Projected    :        -0.0000013707
		Actual       :        -0.0000002866
	Energy ratio indicates iffy step: Trust radius decreased to 2.500e-01.


	Performing BFGS update.
	Previous computed or guess Hessian on step 1.
	Steps to be used in Hessian update: 5 4
	Taking RFO optimization step.
	Going to follow RFO solution 1.
	Rejecting RFO root 1 because normalization gives large value.
	Using RFO vector 2.
	Norm of target step-size    0.00277
	Projected energy change by RFO approximation:        -0.0000001358

	Back-transformation to cartesian coordinates...
	Successfully converged to displaced geometry.

	Back-transformation to cartesian coordinates to adjust frozen coordinates...
	Successfully converged to displaced geometry.

	--- Internal Coordinate Step in ANG or DEG, aJ/ANG or AJ/DEG ---
	 ---------------------------------------------------------------------------
	   Coordinate                Previous        Force       Change         New 
	   ----------                --------       ------       ------       ------
	    1 R(1,2)          =      1.402254     0.000062     0.000003     1.402256
	    2 R(1,6)          =      1.402652    -0.000028    -0.000016     1.402635
	    3 R(1,7)          =      1.483133    -0.000145    -0.000029     1.483104
	    4 R(2,3)          =      1.394220    -0.000009     0.000002     1.394222
	    5 R(2,8)          =      1.086376    -0.000001     0.000003     1.086379
	    6 R(3,4)          =      1.397243     0.000024     0.000004     1.397246
	    7 R(3,9)          =      1.085288     0.000009     0.000002     1.085290
	    8 R(4,5)          =      1.397575     0.000016     0.000006     1.397581
	    9 R(4,10)         =      1.085613    -0.000013    -0.000002     1.085611
	   10 R(5,6)          =      1.393935    -0.000025    -0.000004     1.393930
	   11 R(5,11)         =      1.085312    -0.000005    -0.000000     1.085312
	   12 R(6,12)         =      1.086343    -0.000008     0.000004     1.086346
	   13 R(7,13)         =      1.323847     0.000208     0.000022     1.323869
	   14 R(7,14)         =      1.323866     0.000084     0.000007     1.323873
	   15 R(13,17)        =      1.012581     0.000238     0.000049     1.012630
	   16 R(13,18)        =      1.014887    -0.000006     0.000005     1.014892
	   17 R(14,15)        =      1.014864     0.000095     0.000017     1.014881
	   18 R(14,16)        =      1.012578     0.000049     0.000021     1.012599
	   19 B(1,2,3)        =    119.072750     0.000000    -0.000424   119.072326
	   20 B(1,2,8)        =    120.516309    -0.000000     0.001159   120.517468
	   21 B(1,6,5)        =    119.039458     0.000000    -0.000576   119.038883
	   22 B(1,6,12)       =    120.500484     0.000000     0.001319   120.501803
	   23 B(1,7,13)       =    119.232953    -0.000000    -0.003170   119.229783
	   24 B(1,7,14)       =    119.001568     0.000001     0.002878   119.004447
	   25 B(2,1,6)        =    121.164680    -0.000000     0.001112   121.165792
	   26 B(2,1,7)        =    119.491515    -0.000000    -0.001548   119.489967
	   27 B(2,3,4)        =    120.100971    -0.000000    -0.000247   120.100725
	   28 B(2,3,9)        =    119.637578    -0.000000    -0.000359   119.637218
	   29 B(3,2,8)        =    120.410686    -0.000000    -0.000710   120.409977
	   30 B(3,4,5)        =    120.474819    -0.000000    -0.000466   120.474352
	   31 B(3,4,10)       =    119.769031     0.000000     0.000076   119.769107
	   32 B(4,3,9)        =    120.261022     0.000000     0.000605   120.261627
	   33 B(4,5,6)        =    120.124859     0.000000     0.000691   120.125550
	   34 B(4,5,11)       =    120.249180     0.000000     0.000578   120.249757
	   35 B(5,4,10)       =    119.755761     0.000000     0.000342   119.756103
	   36 B(5,6,12)       =    120.452151    -0.000000    -0.000294   120.451856
	   37 B(6,1,7)        =    119.232521     0.000001     0.002516   119.235037
	   38 B(6,5,11)       =    119.625547    -0.000000    -0.001267   119.624281
	   39 B(7,13,17)      =    119.102258    -0.000000    -0.000806   119.101452
	   40 B(7,13,18)      =    123.585511     0.000000    -0.001550   123.583962
	   41 B(7,14,15)      =    123.566313    -0.000000    -0.000557   123.565756
	   42 B(7,14,16)      =    119.087782     0.000000     0.001996   119.089778
	   43 B(13,7,14)      =    121.722005    -0.000000    -0.000481   121.721523
	   44 B(15,14,16)     =    117.340721    -0.000000    -0.000447   117.340274
	   45 B(17,13,18)     =    117.285091     0.000000     0.000366   117.285457
	   46 D(1,2,3,4)      =     -0.144891    -0.000000    -0.002129    -0.147021
	   47 D(1,2,3,9)      =   -179.907358    -0.000000    -0.001964  -179.909322
	   48 D(1,6,5,4)      =      1.269659     0.000000    -0.009943     1.259716
	   49 D(1,6,5,11)     =   -178.963771     0.000000    -0.009432  -178.973203
	   50 D(1,7,13,17)    =      0.075850    -0.000000    -0.057804     0.018046
	   51 D(1,7,13,18)    =   -177.975523     0.000000     0.012331  -177.963192
	   52 D(1,7,14,15)    =   -176.853652     0.000000     0.055049  -176.798603
	   53 D(1,7,14,16)    =      3.997555    -0.000000    -0.030667     3.966888
	   54 D(2,1,6,5)      =     -1.859964    -0.000000     0.004131    -1.855833
	   55 D(2,1,6,12)     =    179.158301    -0.000000    -0.025191   179.133110
	   56 *D(2,1,7,13)    =     79.999986     0.000000     0.000000    79.999986
	   57 D(2,1,7,14)     =   -102.356226     0.000000    -0.020847  -102.377073
	   58 D(2,3,4,5)      =     -0.423552    -0.000000    -0.003675    -0.427227
	   59 D(2,3,4,10)     =    179.803890     0.000000     0.010031   179.813920
	   60 D(3,2,1,6)      =      1.298044     0.000000     0.001910     1.299954
	   61 D(3,2,1,7)      =    177.433011     0.000000     0.038261   177.471273
	   62 D(3,4,5,6)      =     -0.148723     0.000000     0.009819    -0.138903
	   63 D(3,4,5,11)     =   -179.913825     0.000000     0.009310  -179.904515
	   64 D(4,3,2,8)      =    179.672539     0.000000     0.007068   179.679608
	   65 D(4,5,6,12)     =   -179.748100    -0.000000     0.019381  -179.728719
	   66 D(5,4,3,9)      =    179.337421    -0.000000    -0.003844   179.333577
	   67 D(5,6,1,7)      =   -178.004763    -0.000000    -0.031975  -178.036738
	   68 D(6,1,2,8)      =   -178.519189    -0.000000    -0.007294  -178.526483
	   69 D(6,1,7,13)     =   -103.789811    -0.000000     0.035593  -103.754218
	   70 D(6,1,7,14)     =     73.853977    -0.000000     0.014746    73.868723
	   71 D(6,5,4,10)     =    179.623865    -0.000000    -0.003885   179.619980
	   72 D(7,1,2,8)      =     -2.384221    -0.000000     0.029057    -2.355164
	   73 D(7,1,6,12)     =      3.013502    -0.000000    -0.061297     2.952205
	   74 D(8,2,3,9)      =     -0.089928     0.000000     0.007234    -0.082693
	   75 D(9,3,4,10)     =     -0.435137     0.000000     0.009862    -0.425276
	   76 D(10,4,5,11)    =     -0.141237    -0.000000    -0.004395    -0.145632
	   77 D(11,5,6,12)    =      0.018470     0.000000     0.019892     0.038362
	   78 D(13,7,14,15)   =      0.729071     0.000000     0.033598     0.762669
	   79 D(13,7,14,16)   =   -178.419723    -0.000000    -0.052118  -178.471840
	   80 D(14,7,13,17)   =   -177.501426    -0.000000    -0.036448  -177.537874
	   81 D(14,7,13,18)   =      4.447201     0.000000     0.033687     4.480888
	 ---------------------------------------------------------------------------
	Successfully symmetrized geometry.

  ==> Convergence Check <==

  Measures of convergence in internal coordinates in au.
  Criteria marked as inactive (o), active & met (*), and active & unmet ( ).
  ---------------------------------------------------------------------------------------------
   Step     Total Energy     Delta E     MAX Force     RMS Force      MAX Disp      RMS Disp   
  ---------------------------------------------------------------------------------------------
    Convergence Criteria    1.00e-06 *    3.00e-04 *             o    1.20e-03 *             o
  ---------------------------------------------------------------------------------------------
      6    -381.46465576   -2.87e-07 *    2.89e-05 *    6.13e-06 o    1.07e-03 *    3.07e-04 o  ~
  ---------------------------------------------------------------------------------------------


  **** Optimization is complete! (in 6 steps) ****

  ==> Optimization Summary <==

  Measures of convergence in internal coordinates in au.
  --------------------------------------------------------------------------------------------------------------- ~
   Step         Total Energy             Delta E       MAX Force       RMS Force        MAX Disp        RMS Disp  ~
  --------------------------------------------------------------------------------------------------------------- ~
      1    -381.462986100284   -381.462986100284      0.00720169      0.00175755      0.11774988      0.03405611  ~
      2    -381.464377236265     -0.001391135982      0.00630883      0.00115049      0.07595816      0.01472275  ~
      3    -381.464632075266     -0.000254839001      0.00197999      0.00029789      0.02235163      0.00508559  ~
      4    -381.464651320001     -0.000019244735      0.00057032      0.00010063      0.00722627      0.00178205  ~
      5    -381.464655475973     -0.000004155973      0.00015557      0.00002604      0.00202166      0.00056772  ~
      6    -381.464655762556     -0.000000286583      0.00002894      0.00000613      0.00106983      0.00030725  ~
  --------------------------------------------------------------------------------------------------------------- ~

	Writing optimization data to binary file.
	Final energy is   -381.4646557625563
	Final (previous) structure:
	Cartesian Geometry (in Angstrom)
	    C     0.0409198691   0.0077938109  -0.1739613717
	    C     0.0825129639   1.2255293336   0.5200891710
	    C     0.0547042500   1.2121701587   1.9139679707
	    C    -0.0167548674  -0.0019244339   2.6018305284
	    C    -0.0698378005  -1.2107561733   1.9024570437
	    C    -0.0549378445  -1.2138221786   0.5086053347
	    C     0.0122135507   0.0131514778  -1.6568064304
	    H     0.1326856550   2.1668390445  -0.0199407257
	    H     0.0849500542   2.1493878204   2.4603733887
	    H    -0.0348876336  -0.0062012005   3.6872832169
	    H    -0.1266917652  -2.1516230274   2.4404525426
	    H    -0.1000967403  -2.1501246312  -0.0404294118
	    N     1.1415152583   0.1897982600  -2.3246716001
	    N    -1.1364673641  -0.2061453664  -2.2773407467
	    H    -1.2270155231  -0.2636277647  -3.2865215196
	    H    -1.9804326101  -0.3118441038  -1.7279192166
	    H     2.0038040608   0.3167610220  -1.8092503219
	    H     1.1938164868   0.2346379520  -3.3372178523
	Saving final (previous) structure.
	Removing binary optimization data file.
			--------------------------
			 OPTKING Finished Execution 
			--------------------------

    Final optimized geometry and variables:
    Molecular point group: c1
    Full point group: C1

    Geometry (in Angstrom), charge = 1, multiplicity = 1:

    C            0.040919869101     0.007793810880    -0.173961371676
    C            0.082512963869     1.225529333573     0.520089170964
    C            0.054704249961     1.212170158693     1.913967970708
    C           -0.016754867412    -0.001924433932     2.601830528366
    C           -0.069837800518    -1.210756173332     1.902457043676
    C           -0.054937844527    -1.213822178579     0.508605334652
    C            0.012213550661     0.013151477849    -1.656806430375
    H            0.132685655049     2.166839044476    -0.019940725668
    H            0.084950054236     2.149387820422     2.460373388744
    H           -0.034887633570    -0.006201200539     3.687283216923
    H           -0.126691765156    -2.151623027416     2.440452542583
    H           -0.100096740278    -2.150124631199    -0.040429411782
    N            1.141515258329     0.189798259997    -2.324671600110
    N           -1.136467364096    -0.206145366398    -2.277340746680
    H           -1.227015523112    -0.263627764704    -3.286521519642
    H           -1.980432610070    -0.311844103811    -1.727919216558
    H            2.003804060774     0.316761022036    -1.809250321861
    H            1.193816486759     0.234637951984    -3.337217852261

	Removing binary optimization data file.
	Cleaning optimization helper files.


Properties will be evaluated at   0.000000,   0.000000,   0.000000 [a0]
OEProp: No title given, name of density matrix used for the following properties is 'SCF density'
  Nuclear Dipole Moment: [e a0]
     X:     0.5185      Y:     0.1183      Z:    -0.2838

  Electronic Dipole Moment: [e a0]
     X:    -0.5345      Y:    -0.1074      Z:    -2.2687

  Dipole Moment: [e a0]
     X:    -0.0159      Y:     0.0110      Z:    -2.5525     Total:     2.5525

  Dipole Moment: [D]
     X:    -0.0405      Y:     0.0279      Z:    -6.4877     Total:     6.4879

  Quadrupole Moment: [D A]
    XX:   -42.1928     YY:   -44.8330     ZZ:   -13.5434
    XY:     2.6634     XZ:    -0.2719     YZ:    -0.0074

  Traceless Quadrupole Moment: [D A]
    XX:    -8.6697     YY:   -11.3099     ZZ:    19.9797
    XY:     2.6634     XZ:    -0.2719     YZ:    -0.0074

  Mulliken Charges: (a.u.)
   Center  Symbol    Alpha    Beta     Spin     Total
       1     C     2.99251  2.99251  0.00000  0.01497
       2     C     3.07107  3.07107  0.00000 -0.14213
       3     C     3.06248  3.06248  0.00000 -0.12495
       4     C     3.05360  3.05360  0.00000 -0.10721
       5     C     3.06304  3.06304  0.00000 -0.12609
       6     C     3.07128  3.07128  0.00000 -0.14255
       7     C     2.74677  2.74677  0.00000  0.50646
       8     H     0.41356  0.41356  0.00000  0.17288
       9     H     0.40732  0.40732  0.00000  0.18537
      10     H     0.40668  0.40668  0.00000  0.18663
      11     H     0.40730  0.40730  0.00000  0.18541
      12     H     0.41363  0.41363  0.00000  0.17274
      13     N     3.84480  3.84480  0.00000 -0.68960
      14     N     3.84496  3.84496  0.00000 -0.68992
      15     H     0.30500  0.30500  0.00000  0.39000
      16     H     0.29556  0.29556  0.00000  0.40888
      17     H     0.29536  0.29536  0.00000  0.40927
      18     H     0.30508  0.30508  0.00000  0.38984

   Total alpha = 32.00000, Total beta = 32.00000, Total charge =  1.00000


    Psi4 stopped on: Saturday, 29 September 2018 08:52PM
    Psi4 wall time for execution: 0:02:53.39

*** Psi4 exiting successfully. Buy a developer a beer!
