
    -----------------------------------------------------------------------
          Psi4: An Open-Source Ab Initio Electronic Structure Package
                               Psi4 1.2.1 release

                         Git: Rev {HEAD} 406f4de 


    R. M. Parrish, L. A. Burns, D. G. A. Smith, A. C. Simmonett,
    A. E. DePrince III, E. G. Hohenstein, U. Bozkaya, A. Yu. Sokolov,
    R. Di Remigio, R. M. Richard, J. F. Gonthier, A. M. James,
    H. R. McAlexander, A. Kumar, M. Saitow, X. Wang, B. P. Pritchard,
    P. Verma, H. F. Schaefer III, K. Patkowski, R. A. King, E. F. Valeev,
    F. A. Evangelista, J. M. Turney, T. D. Crawford, and C. D. Sherrill,
    J. Chem. Theory Comput. 13(7) pp 3185--3197 (2017).
    (doi: 10.1021/acs.jctc.7b00174)


                         Additional Contributions by
    P. Kraus, H. Kruse, M. H. Lechner, M. C. Schieber, and R. A. Shaw

    -----------------------------------------------------------------------


    Psi4 started on: Saturday, 29 September 2018 04:50PM

    Process ID: 5657
    Host:       loro.prib.upf.edu
    PSIDATADIR: /shared/joao/test_parameterize/miniconda3/share/psi4
    Memory:     500.0 MiB
    Threads:    1
    
  ==> Input File <==

--------------------------------------------------------------------------
set_num_threads(1)
set_memory('5348 MB')

set { scf_mem_safety_factor 0.7 }

set { reference rks }
set { basis cc-pVDZ }

molecule MOL {
    0 1
    noreorient
    nocom
    symmetry c1
    O    1.141000   0.017000   0.083000
    C    2.558000   0.086000  -0.005000
    C    3.192000  -0.789000   1.067000
    O    4.610000  -0.719000   0.979000
    H    0.789000   0.590000  -0.620000
    H    2.874000   1.128000   0.115000
    H    2.871000  -0.243000  -1.001000
    H    2.876000  -1.830000   0.947000
    H    2.879000  -0.459000   2.064000
    H    4.851218   0.214282   1.111983
}

set optking { frozen_dihedral = (" 2 3 4 10 ") }

energy, wfn = energy('B3LYP-D3', return_wfn=True)

import os
os.chdir(os.environ['HTMD_PSI4_WORKDIR'])

oeprop(wfn, 'DIPOLE', 'QUADRUPOLE', 'MULLIKEN_CHARGES')

with open('psi4out.xyz', 'w') as f:
    f.write('10 ' )
    f.write('%.12f\n' % energy)
    f.write(MOL.save_string_xyz())
--------------------------------------------------------------------------
  Threads set to 1 by Python driver.

  Memory set to   4.981 GiB by Python driver.

*** tstart() called on loro.prib.upf.edu
*** at Sat Sep 29 16:50:38 2018

   => Loading Basis Set <=

    Name: CC-PVDZ
    Role: ORBITAL
    Keyword: BASIS
    atoms 1, 4 entry O          line   198 file /shared/joao/test_parameterize/miniconda3/share/psi4/basis/cc-pvdz.gbs 
    atoms 2-3  entry C          line   138 file /shared/joao/test_parameterize/miniconda3/share/psi4/basis/cc-pvdz.gbs 
    atoms 5-10 entry H          line    22 file /shared/joao/test_parameterize/miniconda3/share/psi4/basis/cc-pvdz.gbs 


         ---------------------------------------------------------
                                   SCF
            by Justin Turney, Rob Parrish, Andy Simmonett
                             and Daniel Smith
                              RKS Reference
                        1 Threads,   5100 MiB Core
         ---------------------------------------------------------

  ==> Geometry <==

    Molecular point group: c1
    Full point group: C1

    Geometry (in Angstrom), charge = 0, multiplicity = 1:

       Center              X                  Y                   Z               Mass       
    ------------   -----------------  -----------------  -----------------  -----------------
         O            1.141000000000     0.017000000000     0.083000000000    15.994914619560
         C            2.558000000000     0.086000000000    -0.005000000000    12.000000000000
         C            3.192000000000    -0.789000000000     1.067000000000    12.000000000000
         O            4.610000000000    -0.719000000000     0.979000000000    15.994914619560
         H            0.789000000000     0.590000000000    -0.620000000000     1.007825032070
         H            2.874000000000     1.128000000000     0.115000000000     1.007825032070
         H            2.871000000000    -0.243000000000    -1.001000000000     1.007825032070
         H            2.876000000000    -1.830000000000     0.947000000000     1.007825032070
         H            2.879000000000    -0.459000000000     2.064000000000     1.007825032070
         H            4.851218000000     0.214282000000     1.111983000000     1.007825032070

  Running in c1 symmetry.

  Rotational constants: A =      0.81911  B =      0.02552  C =      0.02503 [cm^-1]
  Rotational constants: A =  24556.28294  B =    765.16420  C =    750.29747 [MHz]
  Nuclear repulsion =  129.900632634179232

  Charge       = 0
  Multiplicity = 1
  Electrons    = 34
  Nalpha       = 17
  Nbeta        = 17

  ==> Algorithm <==

  SCF Algorithm Type is DF.
  DIIS enabled.
  MOM disabled.
  Fractional occupation disabled.
  Guess Type is SAD.
  Energy threshold   = 1.00e-06
  Density threshold  = 1.00e-06
  Integral threshold = 0.00e+00

  ==> Primary Basis <==

  Basis Set: CC-PVDZ
    Blend: CC-PVDZ
    Number of shells: 42
    Number of basis function: 86
    Number of Cartesian functions: 90
    Spherical Harmonics?: true
    Max angular momentum: 2

  ==> DFT Potential <==

   => Composite Functional: B3LYP-D3ZERO <= 

    B3LYP-d3zero Hyb-GGA Exchange-Correlation Functional

    P. J. Stephens, F. J. Devlin, C. F. Chabalowski, and M. J. Frisch, J. Phys. Chem. 98, 11623 (1994)

    Deriv               =              1
    GGA                 =           TRUE
    Meta                =          FALSE

    Exchange Hybrid     =           TRUE
    MP2 Hybrid          =          FALSE

   => Exchange Functionals <=

    0.0800   Slater exchange
    0.7200         Becke 88

   => Exact (HF) Exchange <=

    0.2000               HF 

   => Correlation Functionals <=

    0.1900   Vosko, Wilk & Nusair (VWN5_RPA)
    0.8100   Lee, Yang & Parr

   => Molecular Quadrature <=

    Radial Scheme       =       TREUTLER
    Pruning Scheme      =           FLAT
    Nuclear Scheme      =       TREUTLER

    BS radius alpha     =              1
    Pruning alpha       =              1
    Radial Points       =             75
    Spherical Points    =            302
    Total Points        =         222542
    Total Blocks        =           1746
    Max Points          =            256
    Max Functions       =             86

   => -D3ZERO: Empirical Dispersion <=

    Grimme's -D3 (zero-damping) Dispersion Correction
    Grimme S.; Antony J.; Ehrlich S.; Krieg H. (2010), J. Chem. Phys., 132: 154104

        S6 =   1.000000E+00
        S8 =   1.703000E+00
       SR6 =   1.261000E+00
       SR8 =   1.000000E+00
    ALPHA6 =   1.400000E+01

   => Loading Basis Set <=

    Name: (CC-PVDZ AUX)
    Role: JKFIT
    Keyword: DF_BASIS_SCF
    atoms 1, 4 entry O          line   221 file /shared/joao/test_parameterize/miniconda3/share/psi4/basis/cc-pvdz-jkfit.gbs 
    atoms 2-3  entry C          line   121 file /shared/joao/test_parameterize/miniconda3/share/psi4/basis/cc-pvdz-jkfit.gbs 
    atoms 5-10 entry H          line    51 file /shared/joao/test_parameterize/miniconda3/share/psi4/basis/cc-pvdz-jkfit.gbs 

  ==> Pre-Iterations <==

   -------------------------------------------------------
    Irrep   Nso     Nmo     Nalpha   Nbeta   Ndocc  Nsocc
   -------------------------------------------------------
     A         86      86       0       0       0       0
   -------------------------------------------------------
    Total      86      86      17      17      17       0
   -------------------------------------------------------

  ==> Integral Setup <==

  DFHelper Memory: AOs need 0.030 [GiB]; user supplied 3.486 [GiB]. Using in-core AOs.

  ==> MemDFJK: Density-Fitted J/K Matrices <==

    J tasked:                   Yes
    K tasked:                   Yes
    wK tasked:                   No
    OpenMP threads:               1
    Memory (MB):               3570
    Algorithm:                 Core
    Schwarz Cutoff:           1E-12
    Mask sparsity (%):       0.2704
    Fitting Condition:        1E-12

   => Auxiliary Basis Set <=

  Basis Set: (CC-PVDZ AUX)
    Blend: CC-PVDZ-JKFIT
    Number of shells: 150
    Number of basis function: 418
    Number of Cartesian functions: 474
    Spherical Harmonics?: true
    Max angular momentum: 3

  Minimum eigenvalue in the overlap matrix is 5.0643885072E-03.
  Using Symmetric Orthogonalization.

  SCF Guess: Superposition of Atomic Densities via on-the-fly atomic UHF.

  ==> Iterations <==

                           Total Energy        Delta E     RMS |[F,P]|

   @DF-RKS iter   0:  -231.04725301881601   -2.31047e+02   4.14119e-02 
   @DF-RKS iter   1:  -230.19324158279090    8.54011e-01   4.66807e-03 
   @DF-RKS iter   2:  -230.16306196172249    3.01796e-02   5.96376e-03 DIIS
   @DF-RKS iter   3:  -230.25723360162056   -9.41716e-02   6.95770e-04 DIIS
   @DF-RKS iter   4:  -230.25853211224569   -1.29851e-03   2.14609e-04 DIIS
   @DF-RKS iter   5:  -230.25869316279091   -1.61051e-04   4.86839e-05 DIIS
   @DF-RKS iter   6:  -230.25870134150983   -8.17872e-06   7.31699e-06 DIIS
   @DF-RKS iter   7:  -230.25870144156247   -1.00053e-07   4.40239e-06 DIIS
   @DF-RKS iter   8:  -230.25870149314179   -5.15793e-08   4.46752e-07 DIIS

  ==> Post-Iterations <==

    Orbital Energies [Eh]
    ---------------------

    Doubly Occupied:                                                      

       1A    -19.134989     2A    -19.134500     3A    -10.229309  
       4A    -10.227312     5A     -1.022524     6A     -1.011145  
       7A     -0.731763     8A     -0.617970     9A     -0.519093  
      10A     -0.495626    11A     -0.456315    12A     -0.429400  
      13A     -0.398270    14A     -0.345359    15A     -0.324692  
      16A     -0.269191    17A     -0.267988  

    Virtual:                                                              

      18A      0.044421    19A      0.049832    20A      0.102493  
      21A      0.115672    22A      0.127749    23A      0.164212  
      24A      0.190175    25A      0.236025    26A      0.249095  
      27A      0.436060    28A      0.441668    29A      0.499495  
      30A      0.514178    31A      0.550657    32A      0.575290  
      33A      0.601493    34A      0.623881    35A      0.637455  
      36A      0.650894    37A      0.669375    38A      0.681619  
      39A      0.878014    40A      0.897370    41A      0.905431  
      42A      0.972613    43A      1.016845    44A      1.054442  
      45A      1.060001    46A      1.109761    47A      1.199016  
      48A      1.209109    49A      1.264054    50A      1.340547  
      51A      1.347914    52A      1.376978    53A      1.451990  
      54A      1.517758    55A      1.595900    56A      1.616108  
      57A      1.648192    58A      1.651669    59A      1.666261  
      60A      1.691770    61A      1.722537    62A      1.776055  
      63A      1.836118    64A      1.861492    65A      1.911588  
      66A      1.986274    67A      2.017942    68A      2.046788  
      69A      2.104634    70A      2.142429    71A      2.238675  
      72A      2.290471    73A      2.406082    74A      2.442079  
      75A      2.468870    76A      2.516707    77A      2.913743  
      78A      2.957377    79A      2.968516    80A      3.009309  
      81A      3.076522    82A      3.116351    83A      3.187486  
      84A      3.243233    85A      3.672489    86A      3.687197  

    Final Occupation by Irrep:
              A 
    DOCC [    17 ]

  Energy converged.

  @DF-RKS Final Energy:  -230.25870149314179

   => Energetics <=

    Nuclear Repulsion Energy =            129.9006326341792317
    One-Electron Energy =                -571.4552104026414554
    Two-Electron Energy =                 235.8384844067171855
    DFT Exchange-Correlation Energy =     -24.5379573713967751
    Empirical Dispersion Energy =          -0.0046507600000000
    VV10 Nonlocal Energy =                  0.0000000000000000
    Total Energy =                       -230.2587014931417855



Properties will be evaluated at   0.000000,   0.000000,   0.000000 [a0]

Properties computed using the SCF density matrix

  Nuclear Dipole Moment: [e a0]
     X:   184.5284      Y:   -19.7169      Z:    33.0418

  Electronic Dipole Moment: [e a0]
     X:  -184.6230      Y:    20.5336      Z:   -33.3683

  Dipole Moment: [e a0]
     X:    -0.0946      Y:     0.8167      Z:    -0.3265     Total:     0.8847

  Dipole Moment: [D]
     X:    -0.2404      Y:     2.0759      Z:    -0.8299     Total:     2.2486


*** tstop() called on loro.prib.upf.edu at Sat Sep 29 16:50:53 2018
Module time:
	user time   =      12.41 seconds =       0.21 minutes
	system time =       0.21 seconds =       0.00 minutes
	total time  =         15 seconds =       0.25 minutes
Total time:
	user time   =      12.41 seconds =       0.21 minutes
	system time =       0.21 seconds =       0.00 minutes
	total time  =         15 seconds =       0.25 minutes


Properties will be evaluated at   0.000000,   0.000000,   0.000000 [a0]
OEProp: No title given, name of density matrix used for the following properties is 'SCF density'
  Nuclear Dipole Moment: [e a0]
     X:   184.5284      Y:   -19.7169      Z:    33.0418

  Electronic Dipole Moment: [e a0]
     X:  -184.6230      Y:    20.5336      Z:   -33.3683

  Dipole Moment: [e a0]
     X:    -0.0946      Y:     0.8167      Z:    -0.3265     Total:     0.8847

  Dipole Moment: [D]
     X:    -0.2404      Y:     2.0759      Z:    -0.8299     Total:     2.2486

  Quadrupole Moment: [D A]
    XX:   -28.7034     YY:   -24.2257     ZZ:   -23.6844
    XY:     7.6128     XZ:    -0.0352     YZ:     0.5633

  Traceless Quadrupole Moment: [D A]
    XX:    -3.1656     YY:     1.3121     ZZ:     1.8535
    XY:     7.6128     XZ:    -0.0352     YZ:     0.5633

  Mulliken Charges: (a.u.)
   Center  Symbol    Alpha    Beta     Spin     Total
       1     O     4.13933  4.13933  0.00000 -0.27865
       2     C     2.94726  2.94726  0.00000  0.10549
       3     C     2.92686  2.92686  0.00000  0.14628
       4     O     4.13903  4.13903  0.00000 -0.27806
       5     H     0.42815  0.42815  0.00000  0.14371
       6     H     0.50771  0.50771  0.00000 -0.01542
       7     H     0.49794  0.49794  0.00000  0.00413
       8     H     0.48562  0.48562  0.00000  0.02876
       9     H     0.49695  0.49695  0.00000  0.00610
      10     H     0.43117  0.43117  0.00000  0.13766

   Total alpha = 17.00000, Total beta = 17.00000, Total charge = -0.00000


    Psi4 stopped on: Saturday, 29 September 2018 04:50PM
    Psi4 wall time for execution: 0:00:15.50

*** Psi4 exiting successfully. Buy a developer a beer!
