
    -----------------------------------------------------------------------
          Psi4: An Open-Source Ab Initio Electronic Structure Package
                               Psi4 1.2.1 release

                         Git: Rev {HEAD} 406f4de 


    R. M. Parrish, L. A. Burns, D. G. A. Smith, A. C. Simmonett,
    A. E. DePrince III, E. G. Hohenstein, U. Bozkaya, A. Yu. Sokolov,
    R. Di Remigio, R. M. Richard, J. F. Gonthier, A. M. James,
    H. R. McAlexander, A. Kumar, M. Saitow, X. Wang, B. P. Pritchard,
    P. Verma, H. F. Schaefer III, K. Patkowski, R. A. King, E. F. Valeev,
    F. A. Evangelista, J. M. Turney, T. D. Crawford, and C. D. Sherrill,
    J. Chem. Theory Comput. 13(7) pp 3185--3197 (2017).
    (doi: 10.1021/acs.jctc.7b00174)


                         Additional Contributions by
    P. Kraus, H. Kruse, M. H. Lechner, M. C. Schieber, and R. A. Shaw

    -----------------------------------------------------------------------


    Psi4 started on: Saturday, 29 September 2018 04:49PM

    Process ID: 4204
    Host:       loro.prib.upf.edu
    PSIDATADIR: /shared/joao/test_parameterize/miniconda3/share/psi4
    Memory:     500.0 MiB
    Threads:    1
    
  ==> Input File <==

--------------------------------------------------------------------------
set_num_threads(1)
set_memory('5348 MB')

set { scf_mem_safety_factor 0.7 }

set { reference rks }
set { basis cc-pVDZ }

molecule MOL {
    0 1
    noreorient
    nocom
    symmetry c1
    O    1.141000   0.017000   0.083000
    C    2.558000   0.086000  -0.005000
    C    3.192000  -0.789000   1.067000
    O    3.608313   0.010844   2.167137
    H    0.789000   0.590000  -0.620000
    H    2.874000   1.128000   0.115000
    H    2.871000  -0.243000  -1.001000
    H    4.058329  -1.321779   0.662576
    H    2.475658  -1.538899   1.421096
    H    4.003685  -0.595162   2.817770
}

set optking { frozen_dihedral = (" 1 2 3 4 ") }

energy, wfn = energy('B3LYP-D3', return_wfn=True)

import os
os.chdir(os.environ['HTMD_PSI4_WORKDIR'])

oeprop(wfn, 'DIPOLE', 'QUADRUPOLE', 'MULLIKEN_CHARGES')

with open('psi4out.xyz', 'w') as f:
    f.write('10 ' )
    f.write('%.12f\n' % energy)
    f.write(MOL.save_string_xyz())
--------------------------------------------------------------------------
  Threads set to 1 by Python driver.

  Memory set to   4.981 GiB by Python driver.

*** tstart() called on loro.prib.upf.edu
*** at Sat Sep 29 16:49:18 2018

   => Loading Basis Set <=

    Name: CC-PVDZ
    Role: ORBITAL
    Keyword: BASIS
    atoms 1, 4 entry O          line   198 file /shared/joao/test_parameterize/miniconda3/share/psi4/basis/cc-pvdz.gbs 
    atoms 2-3  entry C          line   138 file /shared/joao/test_parameterize/miniconda3/share/psi4/basis/cc-pvdz.gbs 
    atoms 5-10 entry H          line    22 file /shared/joao/test_parameterize/miniconda3/share/psi4/basis/cc-pvdz.gbs 


         ---------------------------------------------------------
                                   SCF
            by Justin Turney, Rob Parrish, Andy Simmonett
                             and Daniel Smith
                              RKS Reference
                        1 Threads,   5100 MiB Core
         ---------------------------------------------------------

  ==> Geometry <==

    Molecular point group: c1
    Full point group: C1

    Geometry (in Angstrom), charge = 0, multiplicity = 1:

       Center              X                  Y                   Z               Mass       
    ------------   -----------------  -----------------  -----------------  -----------------
         O            1.141000000000     0.017000000000     0.083000000000    15.994914619560
         C            2.558000000000     0.086000000000    -0.005000000000    12.000000000000
         C            3.192000000000    -0.789000000000     1.067000000000    12.000000000000
         O            3.608313000000     0.010844000000     2.167137000000    15.994914619560
         H            0.789000000000     0.590000000000    -0.620000000000     1.007825032070
         H            2.874000000000     1.128000000000     0.115000000000     1.007825032070
         H            2.871000000000    -0.243000000000    -1.001000000000     1.007825032070
         H            4.058329000000    -1.321779000000     0.662576000000     1.007825032070
         H            2.475658000000    -1.538899000000     1.421096000000     1.007825032070
         H            4.003685000000    -0.595162000000     2.817770000000     1.007825032070

  Running in c1 symmetry.

  Rotational constants: A =      0.42573  B =      0.02947  C =      0.02860 [cm^-1]
  Rotational constants: A =  12763.13205  B =    883.37785  C =    857.30083 [MHz]
  Nuclear repulsion =  130.570081244196984

  Charge       = 0
  Multiplicity = 1
  Electrons    = 34
  Nalpha       = 17
  Nbeta        = 17

  ==> Algorithm <==

  SCF Algorithm Type is DF.
  DIIS enabled.
  MOM disabled.
  Fractional occupation disabled.
  Guess Type is SAD.
  Energy threshold   = 1.00e-06
  Density threshold  = 1.00e-06
  Integral threshold = 0.00e+00

  ==> Primary Basis <==

  Basis Set: CC-PVDZ
    Blend: CC-PVDZ
    Number of shells: 42
    Number of basis function: 86
    Number of Cartesian functions: 90
    Spherical Harmonics?: true
    Max angular momentum: 2

  ==> DFT Potential <==

   => Composite Functional: B3LYP-D3ZERO <= 

    B3LYP-d3zero Hyb-GGA Exchange-Correlation Functional

    P. J. Stephens, F. J. Devlin, C. F. Chabalowski, and M. J. Frisch, J. Phys. Chem. 98, 11623 (1994)

    Deriv               =              1
    GGA                 =           TRUE
    Meta                =          FALSE

    Exchange Hybrid     =           TRUE
    MP2 Hybrid          =          FALSE

   => Exchange Functionals <=

    0.0800   Slater exchange
    0.7200         Becke 88

   => Exact (HF) Exchange <=

    0.2000               HF 

   => Correlation Functionals <=

    0.1900   Vosko, Wilk & Nusair (VWN5_RPA)
    0.8100   Lee, Yang & Parr

   => Molecular Quadrature <=

    Radial Scheme       =       TREUTLER
    Pruning Scheme      =           FLAT
    Nuclear Scheme      =       TREUTLER

    BS radius alpha     =              1
    Pruning alpha       =              1
    Radial Points       =             75
    Spherical Points    =            302
    Total Points        =         222558
    Total Blocks        =           1722
    Max Points          =            256
    Max Functions       =             86

   => -D3ZERO: Empirical Dispersion <=

    Grimme's -D3 (zero-damping) Dispersion Correction
    Grimme S.; Antony J.; Ehrlich S.; Krieg H. (2010), J. Chem. Phys., 132: 154104

        S6 =   1.000000E+00
        S8 =   1.703000E+00
       SR6 =   1.261000E+00
       SR8 =   1.000000E+00
    ALPHA6 =   1.400000E+01

   => Loading Basis Set <=

    Name: (CC-PVDZ AUX)
    Role: JKFIT
    Keyword: DF_BASIS_SCF
    atoms 1, 4 entry O          line   221 file /shared/joao/test_parameterize/miniconda3/share/psi4/basis/cc-pvdz-jkfit.gbs 
    atoms 2-3  entry C          line   121 file /shared/joao/test_parameterize/miniconda3/share/psi4/basis/cc-pvdz-jkfit.gbs 
    atoms 5-10 entry H          line    51 file /shared/joao/test_parameterize/miniconda3/share/psi4/basis/cc-pvdz-jkfit.gbs 

  ==> Pre-Iterations <==

   -------------------------------------------------------
    Irrep   Nso     Nmo     Nalpha   Nbeta   Ndocc  Nsocc
   -------------------------------------------------------
     A         86      86       0       0       0       0
   -------------------------------------------------------
    Total      86      86      17      17      17       0
   -------------------------------------------------------

  ==> Integral Setup <==

  DFHelper Memory: AOs need 0.030 [GiB]; user supplied 3.486 [GiB]. Using in-core AOs.

  ==> MemDFJK: Density-Fitted J/K Matrices <==

    J tasked:                   Yes
    K tasked:                   Yes
    wK tasked:                   No
    OpenMP threads:               1
    Memory (MB):               3570
    Algorithm:                 Core
    Schwarz Cutoff:           1E-12
    Mask sparsity (%):       0.0270
    Fitting Condition:        1E-12

   => Auxiliary Basis Set <=

  Basis Set: (CC-PVDZ AUX)
    Blend: CC-PVDZ-JKFIT
    Number of shells: 150
    Number of basis function: 418
    Number of Cartesian functions: 474
    Spherical Harmonics?: true
    Max angular momentum: 3

  Minimum eigenvalue in the overlap matrix is 5.0219551330E-03.
  Using Symmetric Orthogonalization.

  SCF Guess: Superposition of Atomic Densities via on-the-fly atomic UHF.

  ==> Iterations <==

                           Total Energy        Delta E     RMS |[F,P]|

   @DF-RKS iter   0:  -230.88146933497674   -2.30881e+02   4.01541e-02 
   @DF-RKS iter   1:  -230.16948197041171    7.11987e-01   5.22931e-03 
   @DF-RKS iter   2:  -230.12355486909161    4.59271e-02   6.81321e-03 DIIS
   @DF-RKS iter   3:  -230.25294638011070   -1.29392e-01   7.17281e-04 DIIS
   @DF-RKS iter   4:  -230.25421407935201   -1.26770e-03   2.89225e-04 DIIS
   @DF-RKS iter   5:  -230.25449919366687   -2.85114e-04   4.38315e-05 DIIS
   @DF-RKS iter   6:  -230.25450563354872   -6.43988e-06   5.17308e-06 DIIS
   @DF-RKS iter   7:  -230.25450571555487   -8.20062e-08   2.27984e-06 DIIS
   @DF-RKS iter   8:  -230.25450572956171   -1.40068e-08   8.33031e-07 DIIS

  ==> Post-Iterations <==

    Orbital Energies [Eh]
    ---------------------

    Doubly Occupied:                                                      

       1A    -19.126935     2A    -19.126897     3A    -10.225937  
       4A    -10.225750     5A     -1.016763     6A     -1.003117  
       7A     -0.733105     8A     -0.603106     9A     -0.515971  
      10A     -0.510738    11A     -0.428078    12A     -0.417207  
      13A     -0.409537    14A     -0.344927    15A     -0.319167  
      16A     -0.267116    17A     -0.254357  

    Virtual:                                                              

      18A      0.050616    19A      0.058662    20A      0.105657  
      21A      0.123481    22A      0.128529    23A      0.147467  
      24A      0.192563    25A      0.228442    26A      0.236506  
      27A      0.469300    28A      0.491947    29A      0.495228  
      30A      0.504270    31A      0.538728    32A      0.585245  
      33A      0.602830    34A      0.622431    35A      0.643043  
      36A      0.645980    37A      0.687973    38A      0.691211  
      39A      0.847466    40A      0.864215    41A      0.921363  
      42A      0.986921    43A      0.994275    44A      1.051464  
      45A      1.056101    46A      1.190430    47A      1.221267  
      48A      1.234577    49A      1.304542    50A      1.309532  
      51A      1.349895    52A      1.358416    53A      1.494573  
      54A      1.518316    55A      1.561578    56A      1.580717  
      57A      1.615987    58A      1.624677    59A      1.649819  
      60A      1.718236    61A      1.741916    62A      1.798928  
      63A      1.882839    64A      1.901212    65A      1.964562  
      66A      1.972598    67A      2.010413    68A      2.044437  
      69A      2.103989    70A      2.174656    71A      2.206220  
      72A      2.286847    73A      2.409707    74A      2.421139  
      75A      2.480332    76A      2.519385    77A      2.923674  
      78A      2.943912    79A      2.967464    80A      3.059908  
      81A      3.106484    82A      3.109969    83A      3.181526  
      84A      3.207511    85A      3.674970    86A      3.705528  

    Final Occupation by Irrep:
              A 
    DOCC [    17 ]

  Energy converged.

  @DF-RKS Final Energy:  -230.25450572956171

   => Energetics <=

    Nuclear Repulsion Energy =            130.5700812441969845
    One-Electron Energy =                -572.9584249236002051
    Two-Electron Energy =                 236.6783399483901746
    DFT Exchange-Correlation Energy =     -24.5402193985486932
    Empirical Dispersion Energy =          -0.0042826000000000
    VV10 Nonlocal Energy =                  0.0000000000000000
    Total Energy =                       -230.2545057295617141



Properties will be evaluated at   0.000000,   0.000000,   0.000000 [a0]

Properties computed using the SCF density matrix

  Nuclear Dipole Moment: [e a0]
     X:   169.2555      Y:   -11.2932      Z:    52.4749

  Electronic Dipole Moment: [e a0]
     X:  -168.9157      Y:    11.0439      Z:   -52.8802

  Dipole Moment: [e a0]
     X:     0.3398      Y:    -0.2492      Z:    -0.4052     Total:     0.5846

  Dipole Moment: [D]
     X:     0.8637      Y:    -0.6335      Z:    -1.0300     Total:     1.4860


*** tstop() called on loro.prib.upf.edu at Sat Sep 29 16:49:33 2018
Module time:
	user time   =      12.60 seconds =       0.21 minutes
	system time =       0.18 seconds =       0.00 minutes
	total time  =         15 seconds =       0.25 minutes
Total time:
	user time   =      12.60 seconds =       0.21 minutes
	system time =       0.18 seconds =       0.00 minutes
	total time  =         15 seconds =       0.25 minutes


Properties will be evaluated at   0.000000,   0.000000,   0.000000 [a0]
OEProp: No title given, name of density matrix used for the following properties is 'SCF density'
  Nuclear Dipole Moment: [e a0]
     X:   169.2555      Y:   -11.2932      Z:    52.4749

  Electronic Dipole Moment: [e a0]
     X:  -168.9157      Y:    11.0439      Z:   -52.8802

  Dipole Moment: [e a0]
     X:     0.3398      Y:    -0.2492      Z:    -0.4052     Total:     0.5846

  Dipole Moment: [D]
     X:     0.8637      Y:    -0.6335      Z:    -1.0300     Total:     1.4860

  Quadrupole Moment: [D A]
    XX:   -20.1250     YY:   -23.2942     ZZ:   -22.1858
    XY:    -5.3436     XZ:     1.0495     YZ:    -4.6709

  Traceless Quadrupole Moment: [D A]
    XX:     1.7433     YY:    -1.4259     ZZ:    -0.3175
    XY:    -5.3436     XZ:     1.0495     YZ:    -4.6709

  Mulliken Charges: (a.u.)
   Center  Symbol    Alpha    Beta     Spin     Total
       1     O     4.13885  4.13885  0.00000 -0.27769
       2     C     2.93167  2.93167  0.00000  0.13666
       3     C     2.93185  2.93185  0.00000  0.13630
       4     O     4.13909  4.13909  0.00000 -0.27819
       5     H     0.43098  0.43098  0.00000  0.13804
       6     H     0.49448  0.49448  0.00000  0.01104
       7     H     0.50396  0.50396  0.00000 -0.00792
       8     H     0.50382  0.50382  0.00000 -0.00764
       9     H     0.49438  0.49438  0.00000  0.01124
      10     H     0.43093  0.43093  0.00000  0.13815

   Total alpha = 17.00000, Total beta = 17.00000, Total charge =  0.00000


    Psi4 stopped on: Saturday, 29 September 2018 04:49PM
    Psi4 wall time for execution: 0:00:16.03

*** Psi4 exiting successfully. Buy a developer a beer!
