
    -----------------------------------------------------------------------
          Psi4: An Open-Source Ab Initio Electronic Structure Package
                               Psi4 1.2.1 release

                         Git: Rev {HEAD} 406f4de 


    R. M. Parrish, L. A. Burns, D. G. A. Smith, A. C. Simmonett,
    A. E. DePrince III, E. G. Hohenstein, U. Bozkaya, A. Yu. Sokolov,
    R. Di Remigio, R. M. Richard, J. F. Gonthier, A. M. James,
    H. R. McAlexander, A. Kumar, M. Saitow, X. Wang, B. P. Pritchard,
    P. Verma, H. F. Schaefer III, K. Patkowski, R. A. King, E. F. Valeev,
    F. A. Evangelista, J. M. Turney, T. D. Crawford, and C. D. Sherrill,
    J. Chem. Theory Comput. 13(7) pp 3185--3197 (2017).
    (doi: 10.1021/acs.jctc.7b00174)


                         Additional Contributions by
    P. Kraus, H. Kruse, M. H. Lechner, M. C. Schieber, and R. A. Shaw

    -----------------------------------------------------------------------


    Psi4 started on: Saturday, 29 September 2018 05:10PM

    Process ID: 13887
    Host:       loro.prib.upf.edu
    PSIDATADIR: /shared/joao/test_parameterize/miniconda3/share/psi4
    Memory:     500.0 MiB
    Threads:    1
    
  ==> Input File <==

--------------------------------------------------------------------------
set_num_threads(1)
set_memory('5348 MB')

set { scf_mem_safety_factor 0.7 }

set { reference rks }
set { basis cc-pVDZ }

molecule MOL {
    0 1
    noreorient
    nocom
    symmetry c1
    O    1.050400   0.042900  -0.048100
    C    2.474100   0.047400  -0.029000
    C    3.002600  -1.068900  -0.932000
    N    4.462700  -1.072400  -1.006800
    H    0.770481   0.956981  -0.227303
    H    2.809900  -0.097900   1.003200
    H    2.817400   1.026800  -0.378600
    H    2.581000  -0.963300  -1.938400
    H    2.653800  -2.036400  -0.553400
    H    4.779000  -0.221000  -1.470000
    H    4.758600  -1.842500  -1.606500
}

set optking { frozen_dihedral = (" 3 2 1 5 ") }

energy, wfn = energy('B3LYP-D3', return_wfn=True)

import os
os.chdir(os.environ['HTMD_PSI4_WORKDIR'])

oeprop(wfn, 'DIPOLE', 'QUADRUPOLE', 'MULLIKEN_CHARGES')

with open('psi4out.xyz', 'w') as f:
    f.write('11 ' )
    f.write('%.12f\n' % energy)
    f.write(MOL.save_string_xyz())
--------------------------------------------------------------------------
  Threads set to 1 by Python driver.

  Memory set to   4.981 GiB by Python driver.

*** tstart() called on loro.prib.upf.edu
*** at Sat Sep 29 17:10:24 2018

   => Loading Basis Set <=

    Name: CC-PVDZ
    Role: ORBITAL
    Keyword: BASIS
    atoms 1    entry O          line   198 file /shared/joao/test_parameterize/miniconda3/share/psi4/basis/cc-pvdz.gbs 
    atoms 2-3  entry C          line   138 file /shared/joao/test_parameterize/miniconda3/share/psi4/basis/cc-pvdz.gbs 
    atoms 4    entry N          line   168 file /shared/joao/test_parameterize/miniconda3/share/psi4/basis/cc-pvdz.gbs 
    atoms 5-11 entry H          line    22 file /shared/joao/test_parameterize/miniconda3/share/psi4/basis/cc-pvdz.gbs 


         ---------------------------------------------------------
                                   SCF
            by Justin Turney, Rob Parrish, Andy Simmonett
                             and Daniel Smith
                              RKS Reference
                        1 Threads,   5100 MiB Core
         ---------------------------------------------------------

  ==> Geometry <==

    Molecular point group: c1
    Full point group: C1

    Geometry (in Angstrom), charge = 0, multiplicity = 1:

       Center              X                  Y                   Z               Mass       
    ------------   -----------------  -----------------  -----------------  -----------------
         O            1.050400000000     0.042900000000    -0.048100000000    15.994914619560
         C            2.474100000000     0.047400000000    -0.029000000000    12.000000000000
         C            3.002600000000    -1.068900000000    -0.932000000000    12.000000000000
         N            4.462700000000    -1.072400000000    -1.006800000000    14.003074004780
         H            0.770481000000     0.956981000000    -0.227303000000     1.007825032070
         H            2.809900000000    -0.097900000000     1.003200000000     1.007825032070
         H            2.817400000000     1.026800000000    -0.378600000000     1.007825032070
         H            2.581000000000    -0.963300000000    -1.938400000000     1.007825032070
         H            2.653800000000    -2.036400000000    -0.553400000000     1.007825032070
         H            4.779000000000    -0.221000000000    -1.470000000000     1.007825032070
         H            4.758600000000    -1.842500000000    -1.606500000000     1.007825032070

  Running in c1 symmetry.

  Rotational constants: A =      0.72195  B =      0.02761  C =      0.02697 [cm^-1]
  Rotational constants: A =  21643.54184  B =    827.60425  C =    808.41039 [MHz]
  Nuclear repulsion =  130.506262984951235

  Charge       = 0
  Multiplicity = 1
  Electrons    = 34
  Nalpha       = 17
  Nbeta        = 17

  ==> Algorithm <==

  SCF Algorithm Type is DF.
  DIIS enabled.
  MOM disabled.
  Fractional occupation disabled.
  Guess Type is SAD.
  Energy threshold   = 1.00e-06
  Density threshold  = 1.00e-06
  Integral threshold = 0.00e+00

  ==> Primary Basis <==

  Basis Set: CC-PVDZ
    Blend: CC-PVDZ
    Number of shells: 45
    Number of basis function: 91
    Number of Cartesian functions: 95
    Spherical Harmonics?: true
    Max angular momentum: 2

  ==> DFT Potential <==

   => Composite Functional: B3LYP-D3ZERO <= 

    B3LYP-d3zero Hyb-GGA Exchange-Correlation Functional

    P. J. Stephens, F. J. Devlin, C. F. Chabalowski, and M. J. Frisch, J. Phys. Chem. 98, 11623 (1994)

    Deriv               =              1
    GGA                 =           TRUE
    Meta                =          FALSE

    Exchange Hybrid     =           TRUE
    MP2 Hybrid          =          FALSE

   => Exchange Functionals <=

    0.0800   Slater exchange
    0.7200         Becke 88

   => Exact (HF) Exchange <=

    0.2000               HF 

   => Correlation Functionals <=

    0.1900   Vosko, Wilk & Nusair (VWN5_RPA)
    0.8100   Lee, Yang & Parr

   => Molecular Quadrature <=

    Radial Scheme       =       TREUTLER
    Pruning Scheme      =           FLAT
    Nuclear Scheme      =       TREUTLER

    BS radius alpha     =              1
    Pruning alpha       =              1
    Radial Points       =             75
    Spherical Points    =            302
    Total Points        =         245078
    Total Blocks        =           1893
    Max Points          =            256
    Max Functions       =             91

   => -D3ZERO: Empirical Dispersion <=

    Grimme's -D3 (zero-damping) Dispersion Correction
    Grimme S.; Antony J.; Ehrlich S.; Krieg H. (2010), J. Chem. Phys., 132: 154104

        S6 =   1.000000E+00
        S8 =   1.703000E+00
       SR6 =   1.261000E+00
       SR8 =   1.000000E+00
    ALPHA6 =   1.400000E+01

   => Loading Basis Set <=

    Name: (CC-PVDZ AUX)
    Role: JKFIT
    Keyword: DF_BASIS_SCF
    atoms 1    entry O          line   221 file /shared/joao/test_parameterize/miniconda3/share/psi4/basis/cc-pvdz-jkfit.gbs 
    atoms 2-3  entry C          line   121 file /shared/joao/test_parameterize/miniconda3/share/psi4/basis/cc-pvdz-jkfit.gbs 
    atoms 4    entry N          line   171 file /shared/joao/test_parameterize/miniconda3/share/psi4/basis/cc-pvdz-jkfit.gbs 
    atoms 5-11 entry H          line    51 file /shared/joao/test_parameterize/miniconda3/share/psi4/basis/cc-pvdz-jkfit.gbs 

  ==> Pre-Iterations <==

   -------------------------------------------------------
    Irrep   Nso     Nmo     Nalpha   Nbeta   Ndocc  Nsocc
   -------------------------------------------------------
     A         91      91       0       0       0       0
   -------------------------------------------------------
    Total      91      91      17      17      17       0
   -------------------------------------------------------

  ==> Integral Setup <==

  DFHelper Memory: AOs need 0.036 [GiB]; user supplied 3.486 [GiB]. Using in-core AOs.

  ==> MemDFJK: Density-Fitted J/K Matrices <==

    J tasked:                   Yes
    K tasked:                   Yes
    wK tasked:                   No
    OpenMP threads:               1
    Memory (MB):               3570
    Algorithm:                 Core
    Schwarz Cutoff:           1E-12
    Mask sparsity (%):       0.4589
    Fitting Condition:        1E-12

   => Auxiliary Basis Set <=

  Basis Set: (CC-PVDZ AUX)
    Blend: CC-PVDZ-JKFIT
    Number of shells: 159
    Number of basis function: 441
    Number of Cartesian functions: 499
    Spherical Harmonics?: true
    Max angular momentum: 3

  Minimum eigenvalue in the overlap matrix is 4.6160988283E-03.
  Using Symmetric Orthogonalization.

  SCF Guess: Superposition of Atomic Densities via on-the-fly atomic UHF.

  ==> Iterations <==

                           Total Energy        Delta E     RMS |[F,P]|

   @DF-RKS iter   0:  -210.80067642120824   -2.10801e+02   3.66073e-02 
   @DF-RKS iter   1:  -210.22106295086382    5.79613e-01   6.90108e-03 
   @DF-RKS iter   2:  -210.08615131997723    1.34912e-01   9.38606e-03 DIIS
   @DF-RKS iter   3:  -210.38899954744039   -3.02848e-01   5.63882e-04 DIIS
   @DF-RKS iter   4:  -210.38967717621895   -6.77629e-04   3.48622e-04 DIIS
   @DF-RKS iter   5:  -210.39011075486346   -4.33579e-04   4.85243e-05 DIIS
   @DF-RKS iter   6:  -210.39011699449060   -6.23963e-06   2.36376e-05 DIIS
   @DF-RKS iter   7:  -210.39011903403997   -2.03955e-06   1.89395e-06 DIIS
   @DF-RKS iter   8:  -210.39011904668914   -1.26492e-08   5.39828e-07 DIIS

  ==> Post-Iterations <==

    Orbital Energies [Eh]
    ---------------------

    Doubly Occupied:                                                      

       1A    -19.127900     2A    -14.304155     3A    -10.224256  
       4A    -10.199817     5A     -1.010572     6A     -0.876100  
       7A     -0.711304     8A     -0.598666     9A     -0.512214  
      10A     -0.478093    11A     -0.459331    12A     -0.405500  
      13A     -0.393252    14A     -0.367755    15A     -0.320467  
      16A     -0.262834    17A     -0.230688  

    Virtual:                                                              

      18A      0.046959    19A      0.055588    20A      0.102886  
      21A      0.113550    22A      0.130374    23A      0.158112  
      24A      0.166503    25A      0.204616    26A      0.247448  
      27A      0.261441    28A      0.434246    29A      0.448438  
      30A      0.492818    31A      0.500591    32A      0.568950  
      33A      0.585260    34A      0.600208    35A      0.604782  
      36A      0.639448    37A      0.651629    38A      0.660271  
      39A      0.676622    40A      0.696163    41A      0.817223  
      42A      0.831766    43A      0.844405    44A      0.922907  
      45A      0.957090    46A      1.007952    47A      1.019315  
      48A      1.060669    49A      1.149303    50A      1.204017  
      51A      1.218381    52A      1.265877    53A      1.306662  
      54A      1.405105    55A      1.420148    56A      1.475847  
      57A      1.519604    58A      1.600460    59A      1.627968  
      60A      1.640156    61A      1.651499    62A      1.667114  
      63A      1.711428    64A      1.730764    65A      1.747027  
      66A      1.772735    67A      1.817340    68A      1.840485  
      69A      1.862435    70A      1.952903    71A      2.015283  
      72A      2.023525    73A      2.062125    74A      2.117470  
      75A      2.160360    76A      2.243305    77A      2.266207  
      78A      2.369038    79A      2.402165    80A      2.442332  
      81A      2.479803    82A      2.546636    83A      2.609316  
      84A      2.685527    85A      2.826578    86A      2.934454  
      87A      3.012637    88A      3.053828    89A      3.119432  
      90A      3.215424    91A      3.681593  

    Final Occupation by Irrep:
              A 
    DOCC [    17 ]

  Energy converged.

  @DF-RKS Final Energy:  -210.39011904668914

   => Energetics <=

    Nuclear Repulsion Energy =            130.5062629849512348
    One-Electron Energy =                -543.9445903626424297
    Two-Electron Energy =                 226.5400959031846639
    DFT Exchange-Correlation Energy =     -23.4869454321826474
    Empirical Dispersion Energy =          -0.0049421400000000
    VV10 Nonlocal Energy =                  0.0000000000000000
    Total Energy =                       -210.3901190466891364



Properties will be evaluated at   0.000000,   0.000000,   0.000000 [a0]

Properties computed using the SCF density matrix

  Nuclear Dipole Moment: [e a0]
     X:   177.0153      Y:   -31.1236      Z:   -34.7131

  Electronic Dipole Moment: [e a0]
     X:  -176.8395      Y:    31.6676      Z:    34.1114

  Dipole Moment: [e a0]
     X:     0.1758      Y:     0.5440      Z:    -0.6018     Total:     0.8300

  Dipole Moment: [D]
     X:     0.4470      Y:     1.3826      Z:    -1.5295     Total:     2.1097


*** tstop() called on loro.prib.upf.edu at Sat Sep 29 17:10:42 2018
Module time:
	user time   =      15.22 seconds =       0.25 minutes
	system time =       0.23 seconds =       0.00 minutes
	total time  =         18 seconds =       0.30 minutes
Total time:
	user time   =      15.22 seconds =       0.25 minutes
	system time =       0.23 seconds =       0.00 minutes
	total time  =         18 seconds =       0.30 minutes


Properties will be evaluated at   0.000000,   0.000000,   0.000000 [a0]
OEProp: No title given, name of density matrix used for the following properties is 'SCF density'
  Nuclear Dipole Moment: [e a0]
     X:   177.0153      Y:   -31.1236      Z:   -34.7131

  Electronic Dipole Moment: [e a0]
     X:  -176.8395      Y:    31.6676      Z:    34.1114

  Dipole Moment: [e a0]
     X:     0.1758      Y:     0.5440      Z:    -0.6018     Total:     0.8300

  Dipole Moment: [D]
     X:     0.4470      Y:     1.3826      Z:    -1.5295     Total:     2.1097

  Quadrupole Moment: [D A]
    XX:   -25.4380     YY:   -22.4452     ZZ:   -23.3515
    XY:     1.2909     XZ:    -6.5419     YZ:     0.9129

  Traceless Quadrupole Moment: [D A]
    XX:    -1.6931     YY:     1.2997     ZZ:     0.3934
    XY:     1.2909     XZ:    -6.5419     YZ:     0.9129

  Mulliken Charges: (a.u.)
   Center  Symbol    Alpha    Beta     Spin     Total
       1     O     4.13936  4.13936  0.00000 -0.27872
       2     C     2.93050  2.93050  0.00000  0.13901
       3     C     2.98323  2.98323  0.00000  0.03354
       4     N     3.59359  3.59359  0.00000 -0.18717
       5     H     0.42920  0.42920  0.00000  0.14161
       6     H     0.49330  0.49330  0.00000  0.01341
       7     H     0.50468  0.50468  0.00000 -0.00935
       8     H     0.50597  0.50597  0.00000 -0.01194
       9     H     0.48936  0.48936  0.00000  0.02129
      10     H     0.46696  0.46696  0.00000  0.06608
      11     H     0.46387  0.46387  0.00000  0.07226

   Total alpha = 17.00000, Total beta = 17.00000, Total charge =  0.00000


    Psi4 stopped on: Saturday, 29 September 2018 05:10PM
    Psi4 wall time for execution: 0:00:18.54

*** Psi4 exiting successfully. Buy a developer a beer!
