
    -----------------------------------------------------------------------
          Psi4: An Open-Source Ab Initio Electronic Structure Package
                               Psi4 1.2.1 release

                         Git: Rev {HEAD} 406f4de 


    R. M. Parrish, L. A. Burns, D. G. A. Smith, A. C. Simmonett,
    A. E. DePrince III, E. G. Hohenstein, U. Bozkaya, A. Yu. Sokolov,
    R. Di Remigio, R. M. Richard, J. F. Gonthier, A. M. James,
    H. R. McAlexander, A. Kumar, M. Saitow, X. Wang, B. P. Pritchard,
    P. Verma, H. F. Schaefer III, K. Patkowski, R. A. King, E. F. Valeev,
    F. A. Evangelista, J. M. Turney, T. D. Crawford, and C. D. Sherrill,
    J. Chem. Theory Comput. 13(7) pp 3185--3197 (2017).
    (doi: 10.1021/acs.jctc.7b00174)


                         Additional Contributions by
    P. Kraus, H. Kruse, M. H. Lechner, M. C. Schieber, and R. A. Shaw

    -----------------------------------------------------------------------


    Psi4 started on: Saturday, 29 September 2018 05:09PM

    Process ID: 12950
    Host:       loro.prib.upf.edu
    PSIDATADIR: /shared/joao/test_parameterize/miniconda3/share/psi4
    Memory:     500.0 MiB
    Threads:    1
    
  ==> Input File <==

--------------------------------------------------------------------------
set_num_threads(1)
set_memory('5348 MB')

set { scf_mem_safety_factor 0.7 }

set { reference rks }
set { basis cc-pVDZ }

molecule MOL {
    0 1
    noreorient
    nocom
    symmetry c1
    O    1.050400   0.042900  -0.048100
    C    2.474100   0.047400  -0.029000
    C    3.002600  -1.068900  -0.932000
    N    2.983497  -0.690881  -2.344174
    H    0.760400   0.728400   0.578000
    H    2.809900  -0.097900   1.003200
    H    2.817400   1.026800  -0.378600
    H    2.408527  -1.978335  -0.784544
    H    4.027076  -1.320334  -0.634871
    H    2.017707  -0.574293  -2.649360
    H    3.358898  -1.462530  -2.895428
}

set optking { frozen_dihedral = (" 1 2 3 4 ") }

energy, wfn = energy('B3LYP-D3', return_wfn=True)

import os
os.chdir(os.environ['HTMD_PSI4_WORKDIR'])

oeprop(wfn, 'DIPOLE', 'QUADRUPOLE', 'MULLIKEN_CHARGES')

with open('psi4out.xyz', 'w') as f:
    f.write('11 ' )
    f.write('%.12f\n' % energy)
    f.write(MOL.save_string_xyz())
--------------------------------------------------------------------------
  Threads set to 1 by Python driver.

  Memory set to   4.981 GiB by Python driver.

*** tstart() called on loro.prib.upf.edu
*** at Sat Sep 29 17:09:09 2018

   => Loading Basis Set <=

    Name: CC-PVDZ
    Role: ORBITAL
    Keyword: BASIS
    atoms 1    entry O          line   198 file /shared/joao/test_parameterize/miniconda3/share/psi4/basis/cc-pvdz.gbs 
    atoms 2-3  entry C          line   138 file /shared/joao/test_parameterize/miniconda3/share/psi4/basis/cc-pvdz.gbs 
    atoms 4    entry N          line   168 file /shared/joao/test_parameterize/miniconda3/share/psi4/basis/cc-pvdz.gbs 
    atoms 5-11 entry H          line    22 file /shared/joao/test_parameterize/miniconda3/share/psi4/basis/cc-pvdz.gbs 


         ---------------------------------------------------------
                                   SCF
            by Justin Turney, Rob Parrish, Andy Simmonett
                             and Daniel Smith
                              RKS Reference
                        1 Threads,   5100 MiB Core
         ---------------------------------------------------------

  ==> Geometry <==

    Molecular point group: c1
    Full point group: C1

    Geometry (in Angstrom), charge = 0, multiplicity = 1:

       Center              X                  Y                   Z               Mass       
    ------------   -----------------  -----------------  -----------------  -----------------
         O            1.050400000000     0.042900000000    -0.048100000000    15.994914619560
         C            2.474100000000     0.047400000000    -0.029000000000    12.000000000000
         C            3.002600000000    -1.068900000000    -0.932000000000    12.000000000000
         N            2.983497000000    -0.690881000000    -2.344174000000    14.003074004780
         H            0.760400000000     0.728400000000     0.578000000000     1.007825032070
         H            2.809900000000    -0.097900000000     1.003200000000     1.007825032070
         H            2.817400000000     1.026800000000    -0.378600000000     1.007825032070
         H            2.408527000000    -1.978335000000    -0.784544000000     1.007825032070
         H            4.027076000000    -1.320334000000    -0.634871000000     1.007825032070
         H            2.017707000000    -0.574293000000    -2.649360000000     1.007825032070
         H            3.358898000000    -1.462530000000    -2.895428000000     1.007825032070

  Running in c1 symmetry.

  Rotational constants: A =      0.33316  B =      0.03561  C =      0.03347 [cm^-1]
  Rotational constants: A =   9987.90006  B =   1067.45716  C =   1003.41467 [MHz]
  Nuclear repulsion =  132.228926728606524

  Charge       = 0
  Multiplicity = 1
  Electrons    = 34
  Nalpha       = 17
  Nbeta        = 17

  ==> Algorithm <==

  SCF Algorithm Type is DF.
  DIIS enabled.
  MOM disabled.
  Fractional occupation disabled.
  Guess Type is SAD.
  Energy threshold   = 1.00e-06
  Density threshold  = 1.00e-06
  Integral threshold = 0.00e+00

  ==> Primary Basis <==

  Basis Set: CC-PVDZ
    Blend: CC-PVDZ
    Number of shells: 45
    Number of basis function: 91
    Number of Cartesian functions: 95
    Spherical Harmonics?: true
    Max angular momentum: 2

  ==> DFT Potential <==

   => Composite Functional: B3LYP-D3ZERO <= 

    B3LYP-d3zero Hyb-GGA Exchange-Correlation Functional

    P. J. Stephens, F. J. Devlin, C. F. Chabalowski, and M. J. Frisch, J. Phys. Chem. 98, 11623 (1994)

    Deriv               =              1
    GGA                 =           TRUE
    Meta                =          FALSE

    Exchange Hybrid     =           TRUE
    MP2 Hybrid          =          FALSE

   => Exchange Functionals <=

    0.0800   Slater exchange
    0.7200         Becke 88

   => Exact (HF) Exchange <=

    0.2000               HF 

   => Correlation Functionals <=

    0.1900   Vosko, Wilk & Nusair (VWN5_RPA)
    0.8100   Lee, Yang & Parr

   => Molecular Quadrature <=

    Radial Scheme       =       TREUTLER
    Pruning Scheme      =           FLAT
    Nuclear Scheme      =       TREUTLER

    BS radius alpha     =              1
    Pruning alpha       =              1
    Radial Points       =             75
    Spherical Points    =            302
    Total Points        =         245138
    Total Blocks        =           1893
    Max Points          =            256
    Max Functions       =             91

   => -D3ZERO: Empirical Dispersion <=

    Grimme's -D3 (zero-damping) Dispersion Correction
    Grimme S.; Antony J.; Ehrlich S.; Krieg H. (2010), J. Chem. Phys., 132: 154104

        S6 =   1.000000E+00
        S8 =   1.703000E+00
       SR6 =   1.261000E+00
       SR8 =   1.000000E+00
    ALPHA6 =   1.400000E+01

   => Loading Basis Set <=

    Name: (CC-PVDZ AUX)
    Role: JKFIT
    Keyword: DF_BASIS_SCF
    atoms 1    entry O          line   221 file /shared/joao/test_parameterize/miniconda3/share/psi4/basis/cc-pvdz-jkfit.gbs 
    atoms 2-3  entry C          line   121 file /shared/joao/test_parameterize/miniconda3/share/psi4/basis/cc-pvdz-jkfit.gbs 
    atoms 4    entry N          line   171 file /shared/joao/test_parameterize/miniconda3/share/psi4/basis/cc-pvdz-jkfit.gbs 
    atoms 5-11 entry H          line    51 file /shared/joao/test_parameterize/miniconda3/share/psi4/basis/cc-pvdz-jkfit.gbs 

  ==> Pre-Iterations <==

   -------------------------------------------------------
    Irrep   Nso     Nmo     Nalpha   Nbeta   Ndocc  Nsocc
   -------------------------------------------------------
     A         91      91       0       0       0       0
   -------------------------------------------------------
    Total      91      91      17      17      17       0
   -------------------------------------------------------

  ==> Integral Setup <==

  DFHelper Memory: AOs need 0.036 [GiB]; user supplied 3.486 [GiB]. Using in-core AOs.

  ==> MemDFJK: Density-Fitted J/K Matrices <==

    J tasked:                   Yes
    K tasked:                   Yes
    wK tasked:                   No
    OpenMP threads:               1
    Memory (MB):               3570
    Algorithm:                 Core
    Schwarz Cutoff:           1E-12
    Mask sparsity (%):       0.0000
    Fitting Condition:        1E-12

   => Auxiliary Basis Set <=

  Basis Set: (CC-PVDZ AUX)
    Blend: CC-PVDZ-JKFIT
    Number of shells: 159
    Number of basis function: 441
    Number of Cartesian functions: 499
    Spherical Harmonics?: true
    Max angular momentum: 3

  Minimum eigenvalue in the overlap matrix is 4.8865854551E-03.
  Using Symmetric Orthogonalization.

  SCF Guess: Superposition of Atomic Densities via on-the-fly atomic UHF.

  ==> Iterations <==

                           Total Energy        Delta E     RMS |[F,P]|

   @DF-RKS iter   0:  -210.93285248597925   -2.10933e+02   3.74929e-02 
   @DF-RKS iter   1:  -210.26346328985093    6.69389e-01   6.04582e-03 
   @DF-RKS iter   2:  -210.15269470314681    1.10769e-01   8.51842e-03 DIIS
   @DF-RKS iter   3:  -210.39120657012180   -2.38512e-01   6.06591e-04 DIIS
   @DF-RKS iter   4:  -210.39223628869513   -1.02972e-03   3.12178e-04 DIIS
   @DF-RKS iter   5:  -210.39259040833755   -3.54120e-04   5.73392e-05 DIIS
   @DF-RKS iter   6:  -210.39260219353403   -1.17852e-05   1.44552e-05 DIIS
   @DF-RKS iter   7:  -210.39260287272666   -6.79193e-07   4.68766e-06 DIIS
   @DF-RKS iter   8:  -210.39260295248519   -7.97585e-08   6.46188e-07 DIIS

  ==> Post-Iterations <==

    Orbital Energies [Eh]
    ---------------------

    Doubly Occupied:                                                      

       1A    -19.126890     2A    -14.298494     3A    -10.222615  
       4A    -10.202033     5A     -1.009799     6A     -0.871156  
       7A     -0.713321     8A     -0.594227     9A     -0.512691  
      10A     -0.476496    11A     -0.455306    12A     -0.403441  
      13A     -0.394301    14A     -0.363655    15A     -0.325327  
      16A     -0.260953    17A     -0.226648  

    Virtual:                                                              

      18A      0.049887    19A      0.074966    20A      0.097986  
      21A      0.127138    22A      0.130694    23A      0.144445  
      24A      0.159806    25A      0.202165    26A      0.227144  
      27A      0.252062    28A      0.454979    29A      0.479763  
      30A      0.489718    31A      0.501666    32A      0.524160  
      33A      0.568168    34A      0.599278    35A      0.615213  
      36A      0.641504    37A      0.657497    38A      0.673747  
      39A      0.697009    40A      0.709506    41A      0.804350  
      42A      0.840465    43A      0.861657    44A      0.924898  
      45A      0.965683    46A      0.991925    47A      1.013386  
      48A      1.062810    49A      1.173771    50A      1.209940  
      51A      1.224649    52A      1.265718    53A      1.347802  
      54A      1.359764    55A      1.438205    56A      1.477557  
      57A      1.532435    58A      1.577204    59A      1.605715  
      60A      1.616412    61A      1.643151    62A      1.656244  
      63A      1.676618    64A      1.738699    65A      1.762188  
      66A      1.807194    67A      1.854697    68A      1.891040  
      69A      1.926382    70A      1.956229    71A      1.980545  
      72A      2.006720    73A      2.049818    74A      2.112052  
      75A      2.152393    76A      2.257293    77A      2.295559  
      78A      2.371258    79A      2.396518    80A      2.448403  
      81A      2.480685    82A      2.537099    83A      2.615167  
      84A      2.687324    85A      2.819447    86A      2.961636  
      87A      3.017201    88A      3.069176    89A      3.098357  
      90A      3.205192    91A      3.695723  

    Final Occupation by Irrep:
              A 
    DOCC [    17 ]

  Energy converged.

  @DF-RKS Final Energy:  -210.39260295248519

   => Energetics <=

    Nuclear Repulsion Energy =            132.2289267286065240
    One-Electron Energy =                -547.4460332925087869
    Two-Electron Energy =                 228.3160354052598962
    DFT Exchange-Correlation Energy =     -23.4865274338428485
    Empirical Dispersion Energy =          -0.0050043600000000
    VV10 Nonlocal Energy =                  0.0000000000000000
    Total Energy =                       -210.3926029524851629



Properties will be evaluated at   0.000000,   0.000000,   0.000000 [a0]

Properties computed using the SCF density matrix

  Nuclear Dipole Moment: [e a0]
     X:   151.8353      Y:   -27.0234      Z:   -53.5201

  Electronic Dipole Moment: [e a0]
     X:  -151.8069      Y:    26.9634      Z:    53.8488

  Dipole Moment: [e a0]
     X:     0.0284      Y:    -0.0600      Z:     0.3286     Total:     0.3353

  Dipole Moment: [D]
     X:     0.0723      Y:    -0.1525      Z:     0.8353     Total:     0.8522


*** tstop() called on loro.prib.upf.edu at Sat Sep 29 17:09:27 2018
Module time:
	user time   =      15.03 seconds =       0.25 minutes
	system time =       0.19 seconds =       0.00 minutes
	total time  =         18 seconds =       0.30 minutes
Total time:
	user time   =      15.03 seconds =       0.25 minutes
	system time =       0.19 seconds =       0.00 minutes
	total time  =         18 seconds =       0.30 minutes


Properties will be evaluated at   0.000000,   0.000000,   0.000000 [a0]
OEProp: No title given, name of density matrix used for the following properties is 'SCF density'
  Nuclear Dipole Moment: [e a0]
     X:   151.8353      Y:   -27.0234      Z:   -53.5201

  Electronic Dipole Moment: [e a0]
     X:  -151.8069      Y:    26.9634      Z:    53.8488

  Dipole Moment: [e a0]
     X:     0.0284      Y:    -0.0600      Z:     0.3286     Total:     0.3353

  Dipole Moment: [D]
     X:     0.0723      Y:    -0.1525      Z:     0.8353     Total:     0.8522

  Quadrupole Moment: [D A]
    XX:   -26.0645     YY:   -23.1919     ZZ:   -24.0491
    XY:    -3.4008     XZ:     2.2565     YZ:     4.2809

  Traceless Quadrupole Moment: [D A]
    XX:    -1.6293     YY:     1.2433     ZZ:     0.3861
    XY:    -3.4008     XZ:     2.2565     YZ:     4.2809

  Mulliken Charges: (a.u.)
   Center  Symbol    Alpha    Beta     Spin     Total
       1     O     4.14168  4.14168  0.00000 -0.28335
       2     C     2.92895  2.92895  0.00000  0.14210
       3     C     2.97847  2.97847  0.00000  0.04305
       4     N     3.59217  3.59217  0.00000 -0.18435
       5     H     0.43061  0.43061  0.00000  0.13879
       6     H     0.50420  0.50420  0.00000 -0.00841
       7     H     0.49919  0.49919  0.00000  0.00161
       8     H     0.49991  0.49991  0.00000  0.00018
       9     H     0.49579  0.49579  0.00000  0.00843
      10     H     0.46233  0.46233  0.00000  0.07534
      11     H     0.46670  0.46670  0.00000  0.06660

   Total alpha = 17.00000, Total beta = 17.00000, Total charge =  0.00000


    Psi4 stopped on: Saturday, 29 September 2018 05:09PM
    Psi4 wall time for execution: 0:00:17.97

*** Psi4 exiting successfully. Buy a developer a beer!
