
    -----------------------------------------------------------------------
          Psi4: An Open-Source Ab Initio Electronic Structure Package
                               Psi4 1.2.1 release

                         Git: Rev {HEAD} 406f4de 


    R. M. Parrish, L. A. Burns, D. G. A. Smith, A. C. Simmonett,
    A. E. DePrince III, E. G. Hohenstein, U. Bozkaya, A. Yu. Sokolov,
    R. Di Remigio, R. M. Richard, J. F. Gonthier, A. M. James,
    H. R. McAlexander, A. Kumar, M. Saitow, X. Wang, B. P. Pritchard,
    P. Verma, H. F. Schaefer III, K. Patkowski, R. A. King, E. F. Valeev,
    F. A. Evangelista, J. M. Turney, T. D. Crawford, and C. D. Sherrill,
    J. Chem. Theory Comput. 13(7) pp 3185--3197 (2017).
    (doi: 10.1021/acs.jctc.7b00174)


                         Additional Contributions by
    P. Kraus, H. Kruse, M. H. Lechner, M. C. Schieber, and R. A. Shaw

    -----------------------------------------------------------------------


    Psi4 started on: Saturday, 29 September 2018 08:48PM

    Process ID: 19034
    Host:       green.prib.upf.edu
    PSIDATADIR: /shared/joao/test_parameterize/miniconda3/share/psi4
    Memory:     500.0 MiB
    Threads:    1
    
  ==> Input File <==

--------------------------------------------------------------------------
set_num_threads(4)
set_memory('3000 MB')

set { scf_mem_safety_factor 0.7 }

set { reference rks }
set { basis 6-31G* }

molecule MOL {
    1 1
    noreorient
    nocom
    symmetry c1
    C   -0.000000  -0.000000  -0.177864
    C    0.036678   1.219374   0.524165
    C    0.031765   1.213120   1.915444
    C    0.000000   0.000000   2.610107
    C   -0.031765  -1.213120   1.915444
    C   -0.036678  -1.219375   0.524165
    C   -0.000000   0.000000  -1.644734
    H    0.018170   2.164705  -0.010854
    H    0.042402   2.152895   2.457886
    H    0.000000   0.000000   3.695756
    H   -0.042402  -2.152895   2.457886
    H   -0.018170  -2.164705  -0.010853
    N    0.767101   0.860283  -2.308460
    N   -0.767101  -0.860282  -2.308461
    H   -0.734216  -0.963025  -3.315997
    H   -1.466204  -1.398215  -1.813317
    H    1.466204   1.398215  -1.813316
    H    0.734216   0.963026  -3.315996
}

set optking { frozen_dihedral = (" 2 1 7 13 ") }

set optking { dynamic_level = 1 
 geom_maxiter = 250
 print_trajectory_xyz_file = True }

energy, wfn = optimize('B3LYP-D3', return_wfn=True)

import os
os.chdir(os.environ['HTMD_PSI4_WORKDIR'])

oeprop(wfn, 'DIPOLE', 'QUADRUPOLE', 'MULLIKEN_CHARGES')

with open('psi4out.xyz', 'w') as f:
    f.write('18 ' )
    f.write('%.12f\n' % energy)
    f.write(MOL.save_string_xyz())
--------------------------------------------------------------------------
  Threads set to 4 by Python driver.

  Memory set to   2.794 GiB by Python driver.
gradient() will perform analytic gradient computation.

*** tstart() called on green.prib.upf.edu
*** at Sat Sep 29 20:48:25 2018

   => Loading Basis Set <=

    Name: 6-31G*
    Role: ORBITAL
    Keyword: BASIS
    atoms 1-7         entry C          line   111 file /shared/joao/test_parameterize/miniconda3/share/psi4/basis/6-31gs.gbs 
    atoms 8-12, 15-18 entry H          line    44 file /shared/joao/test_parameterize/miniconda3/share/psi4/basis/6-31gs.gbs 
    atoms 13-14       entry N          line   128 file /shared/joao/test_parameterize/miniconda3/share/psi4/basis/6-31gs.gbs 


         ---------------------------------------------------------
                                   SCF
            by Justin Turney, Rob Parrish, Andy Simmonett
                             and Daniel Smith
                              RKS Reference
                        4 Threads,   2861 MiB Core
         ---------------------------------------------------------

  ==> Geometry <==

    Molecular point group: c1
    Full point group: C1

    Geometry (in Angstrom), charge = 1, multiplicity = 1:

       Center              X                  Y                   Z               Mass       
    ------------   -----------------  -----------------  -----------------  -----------------
         C            0.000000000000     0.000000000000    -0.177864000000    12.000000000000
         C            0.036678000000     1.219374000000     0.524165000000    12.000000000000
         C            0.031765000000     1.213120000000     1.915444000000    12.000000000000
         C            0.000000000000     0.000000000000     2.610107000000    12.000000000000
         C           -0.031765000000    -1.213120000000     1.915444000000    12.000000000000
         C           -0.036678000000    -1.219375000000     0.524165000000    12.000000000000
         C            0.000000000000     0.000000000000    -1.644734000000    12.000000000000
         H            0.018170000000     2.164705000000    -0.010854000000     1.007825032070
         H            0.042402000000     2.152895000000     2.457886000000     1.007825032070
         H            0.000000000000     0.000000000000     3.695756000000     1.007825032070
         H           -0.042402000000    -2.152895000000     2.457886000000     1.007825032070
         H           -0.018170000000    -2.164705000000    -0.010853000000     1.007825032070
         N            0.767101000000     0.860283000000    -2.308460000000    14.003074004780
         N           -0.767101000000    -0.860282000000    -2.308461000000    14.003074004780
         H           -0.734216000000    -0.963025000000    -3.315997000000     1.007825032070
         H           -1.466204000000    -1.398215000000    -1.813317000000     1.007825032070
         H            1.466204000000     1.398215000000    -1.813316000000     1.007825032070
         H            0.734216000000     0.963026000000    -3.315996000000     1.007825032070

  Running in c1 symmetry.

  Rotational constants: A =      0.12190  B =      0.03936  C =      0.03143 [cm^-1]
  Rotational constants: A =   3654.48711  B =   1179.83925  C =    942.19522 [MHz]
  Nuclear repulsion =  416.799740245926898

  Charge       = 1
  Multiplicity = 1
  Electrons    = 64
  Nalpha       = 32
  Nbeta        = 32

  ==> Algorithm <==

  SCF Algorithm Type is DF.
  DIIS enabled.
  MOM disabled.
  Fractional occupation disabled.
  Guess Type is SAD.
  Energy threshold   = 1.00e-08
  Density threshold  = 1.00e-08
  Integral threshold = 0.00e+00

  ==> Primary Basis <==

  Basis Set: 6-31G*
    Blend: 6-31G*
    Number of shells: 72
    Number of basis function: 153
    Number of Cartesian functions: 153
    Spherical Harmonics?: false
    Max angular momentum: 2

  ==> DFT Potential <==

   => Composite Functional: B3LYP-D3ZERO <= 

    B3LYP-d3zero Hyb-GGA Exchange-Correlation Functional

    P. J. Stephens, F. J. Devlin, C. F. Chabalowski, and M. J. Frisch, J. Phys. Chem. 98, 11623 (1994)

    Deriv               =              1
    GGA                 =           TRUE
    Meta                =          FALSE

    Exchange Hybrid     =           TRUE
    MP2 Hybrid          =          FALSE

   => Exchange Functionals <=

    0.0800   Slater exchange
    0.7200         Becke 88

   => Exact (HF) Exchange <=

    0.2000               HF 

   => Correlation Functionals <=

    0.1900   Vosko, Wilk & Nusair (VWN5_RPA)
    0.8100   Lee, Yang & Parr

   => Molecular Quadrature <=

    Radial Scheme       =       TREUTLER
    Pruning Scheme      =           FLAT
    Nuclear Scheme      =       TREUTLER

    BS radius alpha     =              1
    Pruning alpha       =              1
    Radial Points       =             75
    Spherical Points    =            302
    Total Points        =         396976
    Total Blocks        =           3026
    Max Points          =            256
    Max Functions       =            149

   => -D3ZERO: Empirical Dispersion <=

    Grimme's -D3 (zero-damping) Dispersion Correction
    Grimme S.; Antony J.; Ehrlich S.; Krieg H. (2010), J. Chem. Phys., 132: 154104

        S6 =   1.000000E+00
        S8 =   1.703000E+00
       SR6 =   1.261000E+00
       SR8 =   1.000000E+00
    ALPHA6 =   1.400000E+01

   => Loading Basis Set <=

    Name: (6-31G* AUX)
    Role: JKFIT
    Keyword: DF_BASIS_SCF
    atoms 1-7         entry C          line   121 file /shared/joao/test_parameterize/miniconda3/share/psi4/basis/cc-pvdz-jkfit.gbs 
    atoms 8-12, 15-18 entry H          line    51 file /shared/joao/test_parameterize/miniconda3/share/psi4/basis/cc-pvdz-jkfit.gbs 
    atoms 13-14       entry N          line   171 file /shared/joao/test_parameterize/miniconda3/share/psi4/basis/cc-pvdz-jkfit.gbs 

  ==> Pre-Iterations <==

   -------------------------------------------------------
    Irrep   Nso     Nmo     Nalpha   Nbeta   Ndocc  Nsocc
   -------------------------------------------------------
     A        153     153       0       0       0       0
   -------------------------------------------------------
    Total     153     153      32      32      32       0
   -------------------------------------------------------

  ==> Integral Setup <==

  ==> DiskDFJK: Density-Fitted J/K Matrices <==

    J tasked:                  Yes
    K tasked:                  Yes
    wK tasked:                  No
    OpenMP threads:              4
    Integrals threads:           4
    Memory (MB):              2002
    Algorithm:                Core
    Integral Cache:           NONE
    Schwarz Cutoff:          1E-12
    Fitting Condition:       1E-12

   => Auxiliary Basis Set <=

  Basis Set: (6-31G* AUX)
    Blend: CC-PVDZ-JKFIT
    Number of shells: 297
    Number of basis function: 954
    Number of Cartesian functions: 954
    Spherical Harmonics?: false
    Max angular momentum: 3

  Minimum eigenvalue in the overlap matrix is 4.8733203599E-04.
  Using Symmetric Orthogonalization.

  SCF Guess: Superposition of Atomic Densities via on-the-fly atomic UHF.

  ==> Iterations <==

                           Total Energy        Delta E     RMS |[F,P]|

   @DF-RKS iter   0:  -379.63432679236678   -3.79634e+02   6.82807e-02 
   @DF-RKS iter   1:  -381.04878542626216   -1.41446e+00   1.16883e-02 
   @DF-RKS iter   2:  -380.97317673079021    7.56087e-02   1.27561e-02 DIIS
   @DF-RKS iter   3:  -381.46362804429691   -4.90451e-01   1.57045e-03 DIIS
   @DF-RKS iter   4:  -381.46881724982228   -5.18921e-03   7.54248e-04 DIIS
   @DF-RKS iter   5:  -381.47026484192696   -1.44759e-03   2.29710e-04 DIIS
   @DF-RKS iter   6:  -381.47039344754245   -1.28606e-04   8.15411e-05 DIIS
   @DF-RKS iter   7:  -381.47041145179315   -1.80043e-05   1.43190e-05 DIIS
   @DF-RKS iter   8:  -381.47041193620527   -4.84412e-07   6.70710e-06 DIIS
   @DF-RKS iter   9:  -381.47041207315391   -1.36949e-07   2.01356e-06 DIIS
   @DF-RKS iter  10:  -381.47041208532789   -1.21740e-08   6.19370e-07 DIIS
   @DF-RKS iter  11:  -381.47041208644595   -1.11805e-09   7.21445e-08 DIIS
   @DF-RKS iter  12:  -381.47041208645567   -9.72022e-12   4.83477e-08 DIIS
   @DF-RKS iter  13:  -381.47041208646067   -5.00222e-12   1.82875e-08 DIIS
   @DF-RKS iter  14:  -381.47041208646266   -1.98952e-12   5.68592e-09 DIIS

  ==> Post-Iterations <==

    Orbital Energies [Eh]
    ---------------------

    Doubly Occupied:                                                      

       1A    -14.568554     2A    -14.568547     3A    -10.497511  
       4A    -10.372711     5A    -10.355401     6A    -10.355393  
       7A    -10.342215     8A    -10.339755     9A    -10.339696  
      10A     -1.184111    11A     -1.092181    12A     -1.013718  
      13A     -0.926278    14A     -0.901478    15A     -0.845208  
      16A     -0.785817    17A     -0.772426    18A     -0.742586  
      19A     -0.732270    20A     -0.688936    21A     -0.669025  
      22A     -0.624511    23A     -0.617775    24A     -0.585347  
      25A     -0.578615    26A     -0.571980    27A     -0.518196  
      28A     -0.504686    29A     -0.497306    30A     -0.473271  
      31A     -0.411205    32A     -0.405059  

    Virtual:                                                              

      33A     -0.215472    34A     -0.156815    35A     -0.131563  
      36A     -0.107809    37A     -0.066396    38A     -0.061367  
      39A     -0.038699    40A     -0.033229    41A      0.006952  
      42A      0.018361    43A      0.021319    44A      0.055498  
      45A      0.062158    46A      0.082743    47A      0.128925  
      48A      0.151074    49A      0.153979    50A      0.158635  
      51A      0.201428    52A      0.242176    53A      0.297872  
      54A      0.349116    55A      0.355643    56A      0.382246  
      57A      0.387131    58A      0.397529    59A      0.421067  
      60A      0.422691    61A      0.443549    62A      0.448211  
      63A      0.453176    64A      0.471720    65A      0.471892  
      66A      0.475933    67A      0.485342    68A      0.513498  
      69A      0.524553    70A      0.533820    71A      0.539020  
      72A      0.587611    73A      0.605126    74A      0.653455  
      75A      0.657870    76A      0.683253    77A      0.686890  
      78A      0.704648    79A      0.715681    80A      0.716501  
      81A      0.736575    82A      0.766930    83A      0.775350  
      84A      0.799566    85A      0.810359    86A      0.829646  
      87A      0.850617    88A      0.942443    89A      0.962655  
      90A      0.992814    91A      1.000525    92A      1.027285  
      93A      1.061371    94A      1.075508    95A      1.144877  
      96A      1.167401    97A      1.223038    98A      1.272085  
      99A      1.284106   100A      1.307874   101A      1.321483  
     102A      1.344010   103A      1.363230   104A      1.372160  
     105A      1.444106   106A      1.454243   107A      1.470275  
     108A      1.611618   109A      1.623486   110A      1.655767  
     111A      1.665890   112A      1.736316   113A      1.754343  
     114A      1.794921   115A      1.826510   116A      1.855432  
     117A      1.901691   118A      1.907066   119A      1.961927  
     120A      1.974755   121A      1.998291   122A      2.016427  
     123A      2.043734   124A      2.064301   125A      2.125578  
     126A      2.131362   127A      2.153246   128A      2.217407  
     129A      2.224018   130A      2.261586   131A      2.355924  
     132A      2.367425   133A      2.438400   134A      2.454392  
     135A      2.490558   136A      2.521219   137A      2.552806  
     138A      2.587836   139A      2.605409   140A      2.630256  
     141A      2.737523   142A      2.883317   143A      2.979546  
     144A      3.259291   145A      3.637834   146A      3.654217  
     147A      3.915186   148A      3.949352   149A      3.964938  
     150A      4.057344   151A      4.175840   152A      4.258015  
     153A      4.546620  

    Final Occupation by Irrep:
              A 
    DOCC [    32 ]

  Energy converged.

  @DF-RKS Final Energy:  -381.47041208646266

   => Energetics <=

    Nuclear Repulsion Energy =            416.7997402459268983
    One-Electron Energy =               -1328.8291607265305174
    Two-Electron Energy =                 574.9763920061509452
    DFT Exchange-Correlation Energy =     -44.4054202920099215
    Empirical Dispersion Energy =          -0.0119633200000000
    VV10 Nonlocal Energy =                  0.0000000000000000
    Total Energy =                       -381.4704120864626589



Properties will be evaluated at   0.000000,   0.000000,   0.000000 [a0]

Properties computed using the SCF density matrix

  Nuclear Dipole Moment: [e a0]
     X:     0.0000      Y:     0.0000      Z:     0.0248

  Electronic Dipole Moment: [e a0]
     X:     0.0000      Y:    -0.0000      Z:    -2.3025

  Dipole Moment: [e a0]
     X:     0.0000      Y:    -0.0000      Z:    -2.2777     Total:     2.2777

  Dipole Moment: [D]
     X:     0.0000      Y:    -0.0000      Z:    -5.7894     Total:     5.7894


*** tstop() called on green.prib.upf.edu at Sat Sep 29 20:48:52 2018
Module time:
	user time   =      97.89 seconds =       1.63 minutes
	system time =       0.46 seconds =       0.01 minutes
	total time  =         27 seconds =       0.45 minutes
Total time:
	user time   =      97.89 seconds =       1.63 minutes
	system time =       0.46 seconds =       0.01 minutes
	total time  =         27 seconds =       0.45 minutes

*** tstart() called on green.prib.upf.edu
*** at Sat Sep 29 20:48:52 2018


         ------------------------------------------------------------
                                   SCF GRAD                          
                          Rob Parrish, Justin Turney,                
                       Andy Simmonett, and Alex Sokolov              
         ------------------------------------------------------------

  ==> Geometry <==

    Molecular point group: c1
    Full point group: C1

    Geometry (in Angstrom), charge = 1, multiplicity = 1:

       Center              X                  Y                   Z               Mass       
    ------------   -----------------  -----------------  -----------------  -----------------
         C            0.000000000000     0.000000000000    -0.177864000000    12.000000000000
         C            0.036678000000     1.219374000000     0.524165000000    12.000000000000
         C            0.031765000000     1.213120000000     1.915444000000    12.000000000000
         C            0.000000000000     0.000000000000     2.610107000000    12.000000000000
         C           -0.031765000000    -1.213120000000     1.915444000000    12.000000000000
         C           -0.036678000000    -1.219375000000     0.524165000000    12.000000000000
         C            0.000000000000     0.000000000000    -1.644734000000    12.000000000000
         H            0.018170000000     2.164705000000    -0.010854000000     1.007825032070
         H            0.042402000000     2.152895000000     2.457886000000     1.007825032070
         H            0.000000000000     0.000000000000     3.695756000000     1.007825032070
         H           -0.042402000000    -2.152895000000     2.457886000000     1.007825032070
         H           -0.018170000000    -2.164705000000    -0.010853000000     1.007825032070
         N            0.767101000000     0.860283000000    -2.308460000000    14.003074004780
         N           -0.767101000000    -0.860282000000    -2.308461000000    14.003074004780
         H           -0.734216000000    -0.963025000000    -3.315997000000     1.007825032070
         H           -1.466204000000    -1.398215000000    -1.813317000000     1.007825032070
         H            1.466204000000     1.398215000000    -1.813316000000     1.007825032070
         H            0.734216000000     0.963026000000    -3.315996000000     1.007825032070

  Nuclear repulsion =  416.799740245926898

  ==> Basis Set <==

  Basis Set: 6-31G*
    Blend: 6-31G*
    Number of shells: 72
    Number of basis function: 153
    Number of Cartesian functions: 153
    Spherical Harmonics?: false
    Max angular momentum: 2

  ==> DFJKGrad: Density-Fitted SCF Gradients <==

    Gradient:                    1
    J tasked:                  Yes
    K tasked:                  Yes
    wK tasked:                  No
    OpenMP threads:              4
    Integrals threads:           4
    Memory (MB):              2002
    Schwarz Cutoff:          0E+00
    Fitting Condition:       1E-12

   => Auxiliary Basis Set <=

  Basis Set: (6-31G* AUX)
    Blend: CC-PVDZ-JKFIT
    Number of shells: 297
    Number of basis function: 954
    Number of Cartesian functions: 954
    Spherical Harmonics?: false
    Max angular momentum: 3

  ==> DFT Potential <==

   => Composite Functional: B3LYP-D3ZERO <= 

    B3LYP-d3zero Hyb-GGA Exchange-Correlation Functional

    P. J. Stephens, F. J. Devlin, C. F. Chabalowski, and M. J. Frisch, J. Phys. Chem. 98, 11623 (1994)

    Deriv               =              1
    GGA                 =           TRUE
    Meta                =          FALSE

    Exchange Hybrid     =           TRUE
    MP2 Hybrid          =          FALSE

   => Exchange Functionals <=

    0.0800   Slater exchange
    0.7200         Becke 88

   => Exact (HF) Exchange <=

    0.2000               HF 

   => Correlation Functionals <=

    0.1900   Vosko, Wilk & Nusair (VWN5_RPA)
    0.8100   Lee, Yang & Parr

   => Molecular Quadrature <=

    Radial Scheme       =       TREUTLER
    Pruning Scheme      =           FLAT
    Nuclear Scheme      =       TREUTLER

    BS radius alpha     =              1
    Pruning alpha       =              1
    Radial Points       =             75
    Spherical Points    =            302
    Total Points        =         396976
    Total Blocks        =           3026
    Max Points          =            256
    Max Functions       =            149


  -Total Gradient:
     Atom            X                  Y                   Z
    ------   -----------------  -----------------  -----------------
       1        0.000000033398     0.000000511505    -0.000908524812
       2       -0.000278630455    -0.000281920801     0.000457110474
       3        0.000088181831     0.000239954672    -0.000173234366
       4       -0.000000000536    -0.000000067003    -0.000005517999
       5       -0.000088183774    -0.000239726743    -0.000173131865
       6        0.000278639996     0.000280496337     0.000456733930
       7       -0.000000097110    -0.000000168671     0.001035274678
       8       -0.000291691626     0.000110703361     0.000325569143
       9        0.000021494206    -0.000017928456     0.000008212742
      10        0.000000001360     0.000000004698    -0.000010914168
      11       -0.000021495046     0.000017926201     0.000008151872
      12        0.000291681792    -0.000109924879     0.000326056425
      13        0.000393315069    -0.000055087831    -0.000477349370
      14       -0.000392894068     0.000055518454    -0.000477684325
      15        0.000011595931     0.000043306269     0.000142733881
      16       -0.000108198209     0.000169443848    -0.000346838954
      17        0.000107897178    -0.000169678592    -0.000347062843
      18       -0.000011649787    -0.000043362360     0.000142726153


*** tstop() called on green.prib.upf.edu at Sat Sep 29 20:48:59 2018
Module time:
	user time   =      26.05 seconds =       0.43 minutes
	system time =       0.22 seconds =       0.00 minutes
	total time  =          7 seconds =       0.12 minutes
Total time:
	user time   =     124.00 seconds =       2.07 minutes
	system time =       0.69 seconds =       0.01 minutes
	total time  =         34 seconds =       0.57 minutes

			-----------------------------------------
			 OPTKING 2.0: for geometry optimizations 
			  - R.A. King,  Bethel University        
			-----------------------------------------
	At level 1: Red. Int., RFO, no backsteps, dynamic trust

	Internal coordinates to be generated automatically.
	Detected frag 1 with atoms:  1 2 3 4 5 6 7 8 9 10 11 12 13 14 15 16 17 18
	---Fragment 1 Bond Connectivity---
	 1 : 2 6 7
	 2 : 1 3 8
	 3 : 2 4 9
	 4 : 3 5 10
	 5 : 4 6 11
	 6 : 1 5 12
	 7 : 1 13 14
	 8 : 2
	 9 : 3
	 10 : 4
	 11 : 5
	 12 : 6
	 13 : 7 17 18
	 14 : 7 15 16
	 15 : 14
	 16 : 14
	 17 : 13
	 18 : 13

	Assuming in current code that numbering for constraints corresponds to unified fragment.
	Frozen dihedral atom list: 
	     2     1     7    13
	---Fragment 1 Geometry and Gradient---
	 C           0.0000000000        0.0000000000       -0.3361142489
	 C           0.0693113751        2.3042829136        0.9905282984
	 C           0.0600271506        2.2924645663        3.6196645829
	 C           0.0000000000        0.0000000000        4.9323874075
	 C          -0.0600271506       -2.2924645663        3.6196645829
	 C          -0.0693113751       -2.3042848033        0.9905282984
	 C           0.0000000000        0.0000000000       -3.1080968214
	 H           0.0343363238        4.0906996085       -0.0205110874
	 H           0.0801281675        4.0683819429        4.6447314059
	 H           0.0000000000        0.0000000000        6.9839666940
	 H          -0.0801281675       -4.0683819429        4.6447314059
	 H          -0.0343363238       -4.0906996085       -0.0205091977
	 N           1.4496108063        1.6256992668       -4.3623571887
	 N          -1.4496108063       -1.6256973771       -4.3623590784
	 H          -1.3874671624       -1.8198535091       -6.2663261875
	 H          -2.7707240149       -2.6422434249       -3.4266725221
	 H           2.7707240149        2.6422434249       -3.4266706324
	 H           1.3874671624        1.8198553988       -6.2663242977
	             0.0000000334        0.0000005115       -0.0009085248
	            -0.0002786305       -0.0002819208        0.0004571105
	             0.0000881818        0.0002399547       -0.0001732344
	            -0.0000000005       -0.0000000670       -0.0000055180
	            -0.0000881838       -0.0002397267       -0.0001731319
	             0.0002786400        0.0002804963        0.0004567339
	            -0.0000000971       -0.0000001687        0.0010352747
	            -0.0002916916        0.0001107034        0.0003255691
	             0.0000214942       -0.0000179285        0.0000082127
	             0.0000000014        0.0000000047       -0.0000109142
	            -0.0000214950        0.0000179262        0.0000081519
	             0.0002916818       -0.0001099249        0.0003260564
	             0.0003933151       -0.0000550878       -0.0004773494
	            -0.0003928941        0.0000555185       -0.0004776843
	             0.0000115959        0.0000433063        0.0001427339
	            -0.0001081982        0.0001694438       -0.0003468390
	             0.0001078972       -0.0001696786       -0.0003470628
	            -0.0000116498       -0.0000433624        0.0001427262

	Previous optimization step data not found.  Starting new optimization.

	---Fragment 1 Intrafragment Coordinates---
	 - Coordinate -           - BOHR/RAD -       - ANG/DEG -
	 R(1,2)           =         2.659794	       1.407502
	 R(1,6)           =         2.659796	       1.407503
	 R(1,7)           =         2.771983	       1.466870
	 R(2,3)           =         2.629179	       1.391302
	 R(2,8)           =         2.052976	       1.086388
	 R(3,4)           =         2.642393	       1.398294
	 R(3,9)           =         2.050622	       1.085142
	 R(4,5)           =         2.642393	       1.398294
	 R(4,10)          =         2.051579	       1.085649
	 R(5,6)           =         2.629179	       1.391302
	 R(5,11)          =         2.050622	       1.085142
	 R(6,12)          =         2.052973	       1.086386
	 R(7,13)          =         2.513452	       1.330061
	 R(7,14)          =         2.513451	       1.330061
	 R(13,17)         =         1.911599	       1.011575
	 R(13,18)         =         1.914850	       1.013295
	 R(14,15)         =         1.914850	       1.013295
	 R(14,16)         =         1.911600	       1.011575
	 B(1,2,3)         =         2.088380	     119.655376
	 B(1,2,8)         =         2.103396	     120.515689
	 B(1,6,5)         =         2.088379	     119.655315
	 B(1,6,12)        =         2.103396	     120.515729
	 B(1,7,13)        =         2.093263	     119.935126
	 B(1,7,14)        =         2.093264	     119.935180
	 B(2,1,6)         =         2.097220	     120.161857
	 B(2,1,7)         =         2.092983	     119.919082
	 B(2,3,4)         =         2.095279	     120.050636
	 B(2,3,9)         =         2.089719	     119.732108
	 B(3,2,8)         =         2.090149	     119.756722
	 B(3,4,5)         =         2.101793	     120.423859
	 B(3,4,10)        =         2.090696	     119.788070
	 B(4,3,9)         =         2.098135	     120.214297
	 B(4,5,6)         =         2.095280	     120.050677
	 B(4,5,11)        =         2.098135	     120.214297
	 B(5,4,10)        =         2.090696	     119.788070
	 B(5,6,12)        =         2.090149	     119.756743
	 B(6,1,7)         =         2.092982	     119.919061
	 B(6,5,11)        =         2.089719	     119.732067
	 B(7,13,17)       =         2.092412	     119.886390
	 B(7,13,18)       =         2.144859	     122.891372
	 B(7,14,15)       =         2.144860	     122.891422
	 B(7,14,16)       =         2.092412	     119.886368
	 B(13,7,14)       =         2.096659	     120.129694
	 B(15,14,16)      =         2.043399	     117.078159
	 B(17,13,18)      =         2.043400	     117.078180
	 D(1,2,3,4)       =         0.007799	       0.446825
	 D(1,2,3,9)       =        -3.122896	    -178.928735
	 D(1,6,5,4)       =         0.007799	       0.446822
	 D(1,6,5,11)      =        -3.122896	    -178.928737
	 D(1,7,13,17)     =         0.187845	      10.762699
	 D(1,7,13,18)     =        -3.032165	    -173.730232
	 D(1,7,14,15)     =        -3.032164	    -173.730226
	 D(1,7,14,16)     =         0.187843	      10.762613
	 D(2,1,6,5)       =        -0.003906	      -0.223802
	 D(2,1,6,12)      =        -3.091437	    -177.126283
	*D(2,1,7,13)      =         0.698132	      39.999991
	 D(2,1,7,14)      =        -2.443461	    -139.999976
	 D(2,3,4,5)       =        -0.003942	      -0.225875
	 D(2,3,4,10)      =         3.137650	     179.774125
	 D(3,2,1,6)       =        -0.003906	      -0.223806
	 D(3,2,1,7)       =         3.137687	     179.776196
	 D(3,4,5,6)       =        -0.003942	      -0.225874
	 D(3,4,5,11)      =         3.126699	     179.146646
	 D(4,3,2,8)       =         3.095744	     177.373058
	 D(4,5,6,12)      =         3.095744	     177.373055
	 D(5,4,3,9)       =         3.126699	     179.146646
	 D(5,6,1,7)       =         3.137687	     179.776197
	 D(6,1,2,8)       =        -3.091437	    -177.126287
	 D(6,1,7,13)      =        -2.443461	    -140.000007
	 D(6,1,7,14)      =         0.698132	      40.000026
	 D(6,5,4,10)      =         3.137650	     179.774126
	 D(7,1,2,8)       =         0.050156	       2.873714
	 D(7,1,6,12)      =         0.050156	       2.873716
	 D(8,2,3,9)       =        -0.034950	      -2.002503
	 D(9,3,4,10)      =        -0.014894	      -0.853354
	 D(10,4,5,11)     =        -0.014894	      -0.853354
	 D(11,5,6,12)     =        -0.034950	      -2.002504
	 D(13,7,14,15)    =         0.109429	       6.269807
	 D(13,7,14,16)    =        -2.953749	    -169.237353
	 D(14,7,13,17)    =        -2.953749	    -169.237334
	 D(14,7,13,18)    =         0.109428	       6.269735

	Current energy   :      -381.4704120865

	Generating empirical Hessian (Schlegel '84) for each fragment.
	Taking RFO optimization step.
	Going to follow RFO solution 1.
	Using RFO vector 1.
	Norm of target step-size    0.07699
	Projected energy change by RFO approximation:        -0.0002084411

	Back-transformation to cartesian coordinates...
	Could not converge backtransformation.
	Using first guess instead.

	Back-transformation to cartesian coordinates to adjust frozen coordinates...
	Successfully converged to displaced geometry.

	--- Internal Coordinate Step in ANG or DEG, aJ/ANG or AJ/DEG ---
	 ---------------------------------------------------------------------------
	   Coordinate                Previous        Force       Change         New 
	   ----------                --------       ------       ------       ------
	    1 R(1,2)          =      1.407502    -0.003490    -0.000521     1.406982
	    2 R(1,6)          =      1.407503    -0.003493    -0.000405     1.407098
	    3 R(1,7)          =      1.466870    -0.002647    -0.000411     1.466459
	    4 R(2,3)          =      1.391302     0.001414     0.000201     1.391502
	    5 R(2,8)          =      1.086388     0.000491     0.000154     1.086542
	    6 R(3,4)          =      1.398294     0.000733     0.000150     1.398443
	    7 R(3,9)          =      1.085142     0.000088     0.000029     1.085171
	    8 R(4,5)          =      1.398294     0.000735     0.000150     1.398444
	    9 R(4,10)         =      1.085649     0.000082     0.000020     1.085669
	   10 R(5,6)          =      1.391302     0.001416     0.000196     1.391497
	   11 R(5,11)         =      1.085142     0.000089     0.000078     1.085220
	   12 R(6,12)         =      1.086386     0.000498     0.000237     1.086623
	   13 R(7,13)         =      1.330061    -0.003687    -0.000367     1.329695
	   14 R(7,14)         =      1.330061    -0.003687    -0.000166     1.329895
	   15 R(13,17)        =      1.011575     0.001523     0.000349     1.011924
	   16 R(13,18)        =      1.013295     0.001211     0.000172     1.013467
	   17 R(14,15)        =      1.013295     0.001211     0.000195     1.013490
	   18 R(14,16)        =      1.011575     0.001520     0.000541     1.012116
	   19 B(1,2,3)        =    119.655376    -0.000027    -0.089265   119.566111
	   20 B(1,2,8)        =    120.515689    -0.000012    -0.068515   120.447174
	   21 B(1,6,5)        =    119.655315    -0.000027    -0.092706   119.562609
	   22 B(1,6,12)       =    120.515729    -0.000013    -0.065819   120.449910
	   23 B(1,7,13)       =    119.935126    -0.000048    -0.143199   119.791928
	   24 B(1,7,14)       =    119.935180    -0.000048    -0.160112   119.775067
	   25 B(2,1,6)        =    120.161857     0.000054     0.155249   120.317106
	   26 B(2,1,7)        =    119.919082    -0.000027    -0.078605   119.840477
	   27 B(2,3,4)        =    120.050636    -0.000002     0.000686   120.051322
	   28 B(2,3,9)        =    119.732108    -0.000000    -0.007179   119.724929
	   29 B(3,2,8)        =    119.756722     0.000040     0.176714   119.933436
	   30 B(3,4,5)        =    120.423859     0.000003     0.022206   120.446066
	   31 B(3,4,10)       =    119.788070    -0.000002    -0.010211   119.777860
	   32 B(4,3,9)        =    120.214297     0.000002     0.007078   120.221375
	   33 B(4,5,6)        =    120.050677    -0.000002    -0.000399   120.050278
	   34 B(4,5,11)       =    120.214297     0.000002     0.009064   120.223361
	   35 B(5,4,10)       =    119.788070    -0.000002    -0.012200   119.775871
	   36 B(5,6,12)       =    119.756743     0.000040     0.170669   119.927412
	   37 B(6,1,7)        =    119.919061    -0.000027    -0.089410   119.829651
	   38 B(6,5,11)       =    119.732067    -0.000000    -0.006909   119.725158
	   39 B(7,13,17)      =    119.886390    -0.000026    -0.107835   119.778555
	   40 B(7,13,18)      =    122.891372     0.000016     0.082376   122.973748
	   41 B(7,14,15)      =    122.891422     0.000016     0.080665   122.972087
	   42 B(7,14,16)      =    119.886368    -0.000026    -0.094864   119.791503
	   43 B(13,7,14)      =    120.129694     0.000096     0.291783   120.421477
	   44 B(15,14,16)     =    117.078159     0.000011     0.047923   117.126081
	   45 B(17,13,18)     =    117.078180     0.000011     0.059226   117.137407
	   46 D(1,2,3,4)      =      0.446825    -0.000000    -0.122578     0.324247
	   47 D(1,2,3,9)      =   -178.928735    -0.000001    -0.187791  -179.116527
	   48 D(1,6,5,4)      =      0.446822     0.000002     0.355872     0.802694
	   49 D(1,6,5,11)     =   -178.928737     0.000001     0.129498  -178.799239
	   50 D(1,7,13,17)    =     10.762699    -0.000006    -1.176541     9.586158
	   51 D(1,7,13,18)    =   -173.730232    -0.000003    -0.613572  -174.343804
	   52 D(1,7,14,15)    =   -173.730226     0.000003     0.618738  -173.111489
	   53 D(1,7,14,16)    =     10.762613    -0.000001     0.056965    10.819578
	   54 D(2,1,6,5)      =     -0.223802    -0.000003    -0.663110    -0.886912
	   55 D(2,1,6,12)     =   -177.126283    -0.000004    -0.940186  -178.066469
	   56 *D(2,1,7,13)    =     39.999991    -0.000000    -0.000000    39.999991
	   57 D(2,1,7,14)     =   -139.999976    -0.000005    -1.229769  -141.229744
	   58 D(2,3,4,5)      =     -0.225875    -0.000001    -0.183452    -0.409327
	   59 D(2,3,4,10)     =    179.774125    -0.000000    -0.018816   179.755308
	   60 D(3,2,1,6)      =     -0.223806     0.000002     0.546263     0.322457
	   61 D(3,2,1,7)      =    179.776196    -0.000003    -0.755562   179.020634
	   62 D(3,4,5,6)      =     -0.225874     0.000000     0.064861    -0.161013
	   63 D(3,4,5,11)     =    179.146646     0.000001     0.292272   179.438919
	   64 D(4,3,2,8)      =    177.373058     0.000002     0.308817   177.681874
	   65 D(4,5,6,12)     =    177.373055     0.000003     0.624131   177.997187
	   66 D(5,4,3,9)      =    179.146646    -0.000000    -0.118002   179.028645
	   67 D(5,6,1,7)      =    179.776197     0.000002     0.638574   180.414771
	   68 D(6,1,2,8)      =   -177.126287    -0.000000     0.104947  -177.021340
	   69 D(6,1,7,13)     =   -140.000007    -0.000005    -1.295426  -141.295433
	   70 D(6,1,7,14)     =     40.000026    -0.000010    -2.525195    37.474831
	   71 D(6,5,4,10)     =    179.774126    -0.000001    -0.099771   179.674355
	   72 D(7,1,2,8)      =      2.873714    -0.000005    -1.196878     1.676837
	   73 D(7,1,6,12)     =      2.873716     0.000000     0.361497     3.235213
	   74 D(8,2,3,9)      =     -2.002503     0.000001     0.243603    -1.758899
	   75 D(9,3,4,10)     =     -0.853354     0.000000     0.046634    -0.806720
	   76 D(10,4,5,11)    =     -0.853354     0.000001     0.127640    -0.725714
	   77 D(11,5,6,12)    =     -2.002504     0.000002     0.397758    -1.604746
	   78 D(13,7,14,15)   =      6.269807    -0.000003    -0.618892     5.650915
	   79 D(13,7,14,16)   =   -169.237353    -0.000006    -1.180665  -170.418018
	   80 D(14,7,13,17)   =   -169.237334    -0.000001     0.061298  -169.176036
	   81 D(14,7,13,18)   =      6.269735     0.000003     0.624266     6.894001
	 ---------------------------------------------------------------------------
	Successfully symmetrized geometry.

  ==> Convergence Check <==

  Measures of convergence in internal coordinates in au.
  Criteria marked as inactive (o), active & met (*), and active & unmet ( ).
  --------------------------------------------------------------------------------------------- ~
   Step     Total Energy     Delta E     MAX Force     RMS Force      MAX Disp      RMS Disp    ~
  --------------------------------------------------------------------------------------------- ~
    Convergence Criteria    1.00e-06 *    3.00e-04 *             o    1.20e-03 *             o  ~
  --------------------------------------------------------------------------------------------- ~
      1    -381.47041209   -3.81e+02      1.27e-03      2.86e-04 o    4.41e-02      8.55e-03 o  ~
  ---------------------------------------------------------------------------------------------

	Writing optimization data to binary file.
	Structure for next step:
	Cartesian Geometry (in Angstrom)
	    C     0.0094384023   0.0034014497  -0.1783587793
	    C     0.0484279322   1.2218908739   0.5240374932
	    C     0.0397129931   1.2128917580   1.9154835511
	    C    -0.0006926608  -0.0015352190   2.6077108952
	    C    -0.0412056911  -1.2133558259   1.9109362617
	    C    -0.0449174747  -1.2172679470   0.5194492616
	    C    -0.0033580937   0.0065456963  -1.6447581197
	    H     0.0417516580   2.1669278643  -0.0120919153
	    H     0.0551905842   2.1515827773   2.4597407257
	    H    -0.0033155383  -0.0035012597   3.6933747695
	    H    -0.0633127673  -2.1539654882   2.4517395001
	    H    -0.0435152156  -2.1605148468  -0.0200255543
	    N     0.7561438886   0.8716509571  -2.3102187169
	    N    -0.7559150828  -0.8722327539  -2.3005228801
	    H    -0.7254818247  -0.9814731915  -3.3076485123
	    H    -1.4368358073  -1.4261416345  -1.7966272075
	    H     1.4445858609   1.4220710433  -1.8131521511
	    H     0.7232988372   0.9730267466  -3.3180676217
			--------------------------
			 OPTKING Finished Execution 
			--------------------------

    Structure for next step:
    Molecular point group: c1
    Full point group: C1

    Geometry (in Angstrom), charge = 1, multiplicity = 1:

    C            0.009438402335     0.003401449688    -0.178358779336
    C            0.048427932198     1.221890873948     0.524037493188
    C            0.039712993080     1.212891757951     1.915483551133
    C           -0.000692660821    -0.001535218969     2.607710895225
    C           -0.041205691145    -1.213355825861     1.910936261679
    C           -0.044917474705    -1.217267946975     0.519449261614
    C           -0.003358093685     0.006545696257    -1.644758119705
    H            0.041751657976     2.166927864265    -0.012091915273
    H            0.055190584216     2.151582777300     2.459740725742
    H           -0.003315538269    -0.003501259660     3.693374769512
    H           -0.063312767283    -2.153965488231     2.451739500139
    H           -0.043515215634    -2.160514846796    -0.020025554306
    N            0.756143888553     0.871650957107    -2.310218716939
    N           -0.755915082814    -0.872232753925    -2.300522880125
    H           -0.725481824749    -0.981473191517    -3.307648512310
    H           -1.436835807299    -1.426141634483    -1.796627207500
    H            1.444585860867     1.422071043267    -1.813152151066
    H            0.723298837178     0.973026746633    -3.318067621672

gradient() will perform analytic gradient computation.

*** tstart() called on green.prib.upf.edu
*** at Sat Sep 29 20:48:59 2018

   => Loading Basis Set <=

    Name: 6-31G*
    Role: ORBITAL
    Keyword: BASIS
    atoms 1-7         entry C          line   111 file /shared/joao/test_parameterize/miniconda3/share/psi4/basis/6-31gs.gbs 
    atoms 8-12, 15-18 entry H          line    44 file /shared/joao/test_parameterize/miniconda3/share/psi4/basis/6-31gs.gbs 
    atoms 13-14       entry N          line   128 file /shared/joao/test_parameterize/miniconda3/share/psi4/basis/6-31gs.gbs 


         ---------------------------------------------------------
                                   SCF
            by Justin Turney, Rob Parrish, Andy Simmonett
                             and Daniel Smith
                              RKS Reference
                        4 Threads,   2861 MiB Core
         ---------------------------------------------------------

  ==> Geometry <==

    Molecular point group: c1
    Full point group: C1

    Geometry (in Angstrom), charge = 1, multiplicity = 1:

       Center              X                  Y                   Z               Mass       
    ------------   -----------------  -----------------  -----------------  -----------------
         C            0.009438402335     0.003401449688    -0.178358779336    12.000000000000
         C            0.048427932198     1.221890873948     0.524037493188    12.000000000000
         C            0.039712993080     1.212891757951     1.915483551133    12.000000000000
         C           -0.000692660821    -0.001535218969     2.607710895225    12.000000000000
         C           -0.041205691145    -1.213355825861     1.910936261679    12.000000000000
         C           -0.044917474705    -1.217267946975     0.519449261614    12.000000000000
         C           -0.003358093685     0.006545696257    -1.644758119705    12.000000000000
         H            0.041751657976     2.166927864265    -0.012091915273     1.007825032070
         H            0.055190584216     2.151582777300     2.459740725742     1.007825032070
         H           -0.003315538269    -0.003501259660     3.693374769512     1.007825032070
         H           -0.063312767283    -2.153965488231     2.451739500139     1.007825032070
         H           -0.043515215634    -2.160514846796    -0.020025554306     1.007825032070
         N            0.756143888553     0.871650957107    -2.310218716939    14.003074004780
         N           -0.755915082814    -0.872232753925    -2.300522880125    14.003074004780
         H           -0.725481824749    -0.981473191517    -3.307648512310     1.007825032070
         H           -1.436835807299    -1.426141634483    -1.796627207500     1.007825032070
         H            1.444585860867     1.422071043267    -1.813152151066     1.007825032070
         H            0.723298837178     0.973026746633    -3.318067621672     1.007825032070

  Running in c1 symmetry.

  Rotational constants: A =      0.12176  B =      0.03952  C =      0.03142 [cm^-1]
  Rotational constants: A =   3650.15151  B =   1184.87479  C =    942.05734 [MHz]
  Nuclear repulsion =  416.982598449726936

  Charge       = 1
  Multiplicity = 1
  Electrons    = 64
  Nalpha       = 32
  Nbeta        = 32

  ==> Algorithm <==

  SCF Algorithm Type is DF.
  DIIS enabled.
  MOM disabled.
  Fractional occupation disabled.
  Guess Type is READ.
  Energy threshold   = 1.00e-08
  Density threshold  = 1.00e-08
  Integral threshold = 0.00e+00

  ==> Primary Basis <==

  Basis Set: 6-31G*
    Blend: 6-31G*
    Number of shells: 72
    Number of basis function: 153
    Number of Cartesian functions: 153
    Spherical Harmonics?: false
    Max angular momentum: 2

  ==> DFT Potential <==

   => Composite Functional: B3LYP-D3ZERO <= 

    B3LYP-d3zero Hyb-GGA Exchange-Correlation Functional

    P. J. Stephens, F. J. Devlin, C. F. Chabalowski, and M. J. Frisch, J. Phys. Chem. 98, 11623 (1994)

    Deriv               =              1
    GGA                 =           TRUE
    Meta                =          FALSE

    Exchange Hybrid     =           TRUE
    MP2 Hybrid          =          FALSE

   => Exchange Functionals <=

    0.0800   Slater exchange
    0.7200         Becke 88

   => Exact (HF) Exchange <=

    0.2000               HF 

   => Correlation Functionals <=

    0.1900   Vosko, Wilk & Nusair (VWN5_RPA)
    0.8100   Lee, Yang & Parr

   => Molecular Quadrature <=

    Radial Scheme       =       TREUTLER
    Pruning Scheme      =           FLAT
    Nuclear Scheme      =       TREUTLER

    BS radius alpha     =              1
    Pruning alpha       =              1
    Radial Points       =             75
    Spherical Points    =            302
    Total Points        =         396962
    Total Blocks        =           3026
    Max Points          =            256
    Max Functions       =            149

   => -D3ZERO: Empirical Dispersion <=

    Grimme's -D3 (zero-damping) Dispersion Correction
    Grimme S.; Antony J.; Ehrlich S.; Krieg H. (2010), J. Chem. Phys., 132: 154104

        S6 =   1.000000E+00
        S8 =   1.703000E+00
       SR6 =   1.261000E+00
       SR8 =   1.000000E+00
    ALPHA6 =   1.400000E+01

   => Loading Basis Set <=

    Name: (6-31G* AUX)
    Role: JKFIT
    Keyword: DF_BASIS_SCF
    atoms 1-7         entry C          line   121 file /shared/joao/test_parameterize/miniconda3/share/psi4/basis/cc-pvdz-jkfit.gbs 
    atoms 8-12, 15-18 entry H          line    51 file /shared/joao/test_parameterize/miniconda3/share/psi4/basis/cc-pvdz-jkfit.gbs 
    atoms 13-14       entry N          line   171 file /shared/joao/test_parameterize/miniconda3/share/psi4/basis/cc-pvdz-jkfit.gbs 

  Reading orbitals from file 180, no projection.

  ==> Pre-Iterations <==

   -------------------------------------------------------
    Irrep   Nso     Nmo     Nalpha   Nbeta   Ndocc  Nsocc
   -------------------------------------------------------
     A        153     153       0       0       0       0
   -------------------------------------------------------
    Total     153     153      32      32      32       0
   -------------------------------------------------------

  ==> Integral Setup <==

  ==> DiskDFJK: Density-Fitted J/K Matrices <==

    J tasked:                  Yes
    K tasked:                  Yes
    wK tasked:                  No
    OpenMP threads:              4
    Integrals threads:           4
    Memory (MB):              2002
    Algorithm:                Core
    Integral Cache:           NONE
    Schwarz Cutoff:          1E-12
    Fitting Condition:       1E-12

   => Auxiliary Basis Set <=

  Basis Set: (6-31G* AUX)
    Blend: CC-PVDZ-JKFIT
    Number of shells: 297
    Number of basis function: 954
    Number of Cartesian functions: 954
    Spherical Harmonics?: false
    Max angular momentum: 3

  Minimum eigenvalue in the overlap matrix is 4.8714396760E-04.
  Using Symmetric Orthogonalization.

  SCF Guess: Orbitals guess was supplied from a previous computation.

  ==> Iterations <==

                           Total Energy        Delta E     RMS |[F,P]|

   @DF-RKS iter   0:  -381.47039543103881   -3.81470e+02   5.16344e-04 
   @DF-RKS iter   1:  -381.47042394622190   -2.85152e-05   3.52201e-05 
   @DF-RKS iter   2:  -381.47042894984509   -5.00362e-06   2.69665e-05 DIIS
   @DF-RKS iter   3:  -381.47043024095058   -1.29111e-06   1.71925e-05 DIIS
   @DF-RKS iter   4:  -381.47043108328603   -8.42335e-07   3.61246e-06 DIIS
   @DF-RKS iter   5:  -381.47043111404139   -3.07554e-08   1.82895e-06 DIIS
   @DF-RKS iter   6:  -381.47043112434892   -1.03075e-08   2.64609e-07 DIIS
   @DF-RKS iter   7:  -381.47043112450751   -1.58593e-10   1.46265e-07 DIIS
   @DF-RKS iter   8:  -381.47043112457192   -6.44036e-11   2.55195e-08 DIIS
   @DF-RKS iter   9:  -381.47043112457391   -1.98952e-12   1.21420e-08 DIIS
   @DF-RKS iter  10:  -381.47043112457391    0.00000e+00   3.38737e-09 DIIS

  ==> Post-Iterations <==

    Orbital Energies [Eh]
    ---------------------

    Doubly Occupied:                                                      

       1A    -14.568502     2A    -14.568464     3A    -10.497251  
       4A    -10.372666     5A    -10.355750     6A    -10.355705  
       7A    -10.342536     8A    -10.340140     9A    -10.340058  
      10A     -1.183960    11A     -1.092408    12A     -1.014003  
      13A     -0.926398    14A     -0.901841    15A     -0.845224  
      16A     -0.785685    17A     -0.773116    18A     -0.742421  
      19A     -0.732400    20A     -0.688988    21A     -0.668929  
      22A     -0.624933    23A     -0.617824    24A     -0.586052  
      25A     -0.578613    26A     -0.572556    27A     -0.518263  
      28A     -0.505008    29A     -0.497790    30A     -0.473197  
      31A     -0.411348    32A     -0.405370  

    Virtual:                                                              

      33A     -0.215672    34A     -0.157278    35A     -0.130410  
      36A     -0.107726    37A     -0.067018    38A     -0.061316  
      39A     -0.038739    40A     -0.034310    41A      0.007259  
      42A      0.018976    43A      0.021214    44A      0.055644  
      45A      0.061961    46A      0.083505    47A      0.128069  
      48A      0.150775    49A      0.155126    50A      0.157998  
      51A      0.201267    52A      0.242607    53A      0.298127  
      54A      0.348920    55A      0.355600    56A      0.381598  
      57A      0.387548    58A      0.397485    59A      0.422074  
      60A      0.422833    61A      0.442998    62A      0.447690  
      63A      0.452948    64A      0.471558    65A      0.471760  
      66A      0.475758    67A      0.485396    68A      0.512377  
      69A      0.527367    70A      0.532066    71A      0.539243  
      72A      0.587867    73A      0.605873    74A      0.654565  
      75A      0.656892    76A      0.682789    77A      0.687411  
      78A      0.704444    79A      0.715802    80A      0.717684  
      81A      0.738473    82A      0.768850    83A      0.775154  
      84A      0.799922    85A      0.810713    86A      0.830625  
      87A      0.850033    88A      0.942359    89A      0.962679  
      90A      0.992704    91A      1.003459    92A      1.027187  
      93A      1.060159    94A      1.074969    95A      1.144793  
      96A      1.168563    97A      1.223105    98A      1.272422  
      99A      1.286175   100A      1.307636   101A      1.321058  
     102A      1.342831   103A      1.360811   104A      1.375398  
     105A      1.444111   106A      1.454381   107A      1.470492  
     108A      1.608855   109A      1.622490   110A      1.656218  
     111A      1.666797   112A      1.736965   113A      1.755192  
     114A      1.794362   115A      1.825919   116A      1.857067  
     117A      1.902301   118A      1.907503   119A      1.959859  
     120A      1.974956   121A      1.997650   122A      2.016633  
     123A      2.044681   124A      2.065682   125A      2.124330  
     126A      2.131500   127A      2.151942   128A      2.217538  
     129A      2.224348   130A      2.263614   131A      2.353474  
     132A      2.368334   133A      2.440968   134A      2.454210  
     135A      2.489916   136A      2.519469   137A      2.552082  
     138A      2.588105   139A      2.603823   140A      2.630689  
     141A      2.737909   142A      2.883983   143A      2.981673  
     144A      3.259556   145A      3.637754   146A      3.657064  
     147A      3.914503   148A      3.948688   149A      3.964438  
     150A      4.056026   151A      4.175159   152A      4.257909  
     153A      4.546695  

    Final Occupation by Irrep:
              A 
    DOCC [    32 ]

  Energy converged.

  @DF-RKS Final Energy:  -381.47043112457391

   => Energetics <=

    Nuclear Repulsion Energy =            416.9825984497269360
    One-Electron Energy =               -1329.1834943048736477
    Two-Electron Energy =                 575.1481365869497040
    DFT Exchange-Correlation Energy =     -44.4057145063768957
    Empirical Dispersion Energy =          -0.0119573500000000
    VV10 Nonlocal Energy =                  0.0000000000000000
    Total Energy =                       -381.4704311245738495



Properties will be evaluated at   0.000000,   0.000000,   0.000000 [a0]

Properties computed using the SCF density matrix

  Nuclear Dipole Moment: [e a0]
     X:     0.0726      Y:     0.1122      Z:    -0.0207

  Electronic Dipole Moment: [e a0]
     X:    -0.0752      Y:    -0.1127      Z:    -2.2471

  Dipole Moment: [e a0]
     X:    -0.0026      Y:    -0.0005      Z:    -2.2677     Total:     2.2677

  Dipole Moment: [D]
     X:    -0.0067      Y:    -0.0012      Z:    -5.7640     Total:     5.7640


*** tstop() called on green.prib.upf.edu at Sat Sep 29 20:49:20 2018
Module time:
	user time   =      72.53 seconds =       1.21 minutes
	system time =       0.43 seconds =       0.01 minutes
	total time  =         21 seconds =       0.35 minutes
Total time:
	user time   =     197.54 seconds =       3.29 minutes
	system time =       1.21 seconds =       0.02 minutes
	total time  =         55 seconds =       0.92 minutes

*** tstart() called on green.prib.upf.edu
*** at Sat Sep 29 20:49:20 2018


         ------------------------------------------------------------
                                   SCF GRAD                          
                          Rob Parrish, Justin Turney,                
                       Andy Simmonett, and Alex Sokolov              
         ------------------------------------------------------------

  ==> Geometry <==

    Molecular point group: c1
    Full point group: C1

    Geometry (in Angstrom), charge = 1, multiplicity = 1:

       Center              X                  Y                   Z               Mass       
    ------------   -----------------  -----------------  -----------------  -----------------
         C            0.009438402335     0.003401449688    -0.178358779336    12.000000000000
         C            0.048427932198     1.221890873948     0.524037493188    12.000000000000
         C            0.039712993080     1.212891757951     1.915483551133    12.000000000000
         C           -0.000692660821    -0.001535218969     2.607710895225    12.000000000000
         C           -0.041205691145    -1.213355825861     1.910936261679    12.000000000000
         C           -0.044917474705    -1.217267946975     0.519449261614    12.000000000000
         C           -0.003358093685     0.006545696257    -1.644758119705    12.000000000000
         H            0.041751657976     2.166927864265    -0.012091915273     1.007825032070
         H            0.055190584216     2.151582777300     2.459740725742     1.007825032070
         H           -0.003315538269    -0.003501259660     3.693374769512     1.007825032070
         H           -0.063312767283    -2.153965488231     2.451739500139     1.007825032070
         H           -0.043515215634    -2.160514846796    -0.020025554306     1.007825032070
         N            0.756143888553     0.871650957107    -2.310218716939    14.003074004780
         N           -0.755915082814    -0.872232753925    -2.300522880125    14.003074004780
         H           -0.725481824749    -0.981473191517    -3.307648512310     1.007825032070
         H           -1.436835807299    -1.426141634483    -1.796627207500     1.007825032070
         H            1.444585860867     1.422071043267    -1.813152151066     1.007825032070
         H            0.723298837178     0.973026746633    -3.318067621672     1.007825032070

  Nuclear repulsion =  416.982598449726936

  ==> Basis Set <==

  Basis Set: 6-31G*
    Blend: 6-31G*
    Number of shells: 72
    Number of basis function: 153
    Number of Cartesian functions: 153
    Spherical Harmonics?: false
    Max angular momentum: 2

  ==> DFJKGrad: Density-Fitted SCF Gradients <==

    Gradient:                    1
    J tasked:                  Yes
    K tasked:                  Yes
    wK tasked:                  No
    OpenMP threads:              4
    Integrals threads:           4
    Memory (MB):              2002
    Schwarz Cutoff:          0E+00
    Fitting Condition:       1E-12

   => Auxiliary Basis Set <=

  Basis Set: (6-31G* AUX)
    Blend: CC-PVDZ-JKFIT
    Number of shells: 297
    Number of basis function: 954
    Number of Cartesian functions: 954
    Spherical Harmonics?: false
    Max angular momentum: 3

  ==> DFT Potential <==

   => Composite Functional: B3LYP-D3ZERO <= 

    B3LYP-d3zero Hyb-GGA Exchange-Correlation Functional

    P. J. Stephens, F. J. Devlin, C. F. Chabalowski, and M. J. Frisch, J. Phys. Chem. 98, 11623 (1994)

    Deriv               =              1
    GGA                 =           TRUE
    Meta                =          FALSE

    Exchange Hybrid     =           TRUE
    MP2 Hybrid          =          FALSE

   => Exchange Functionals <=

    0.0800   Slater exchange
    0.7200         Becke 88

   => Exact (HF) Exchange <=

    0.2000               HF 

   => Correlation Functionals <=

    0.1900   Vosko, Wilk & Nusair (VWN5_RPA)
    0.8100   Lee, Yang & Parr

   => Molecular Quadrature <=

    Radial Scheme       =       TREUTLER
    Pruning Scheme      =           FLAT
    Nuclear Scheme      =       TREUTLER

    BS radius alpha     =              1
    Pruning alpha       =              1
    Radial Points       =             75
    Spherical Points    =            302
    Total Points        =         396962
    Total Blocks        =           3026
    Max Points          =            256
    Max Functions       =            149


  -Total Gradient:
     Atom            X                  Y                   Z
    ------   -----------------  -----------------  -----------------
       1        0.002323302034    -0.000440756076    -0.000270510103
       2       -0.001083495585     0.000052993292    -0.000048285626
       3       -0.000160954982    -0.000003007343    -0.000099064271
       4        0.000085307161    -0.000095107540     0.000131853280
       5        0.000078460563     0.000076666946     0.000048776027
       6        0.000041265391    -0.000019702825    -0.000239594637
       7       -0.002343554496     0.002025687264     0.000256432244
       8        0.000054579877     0.000039927495    -0.000117460192
       9        0.000047383627     0.000024822431    -0.000035029587
      10       -0.000021906305    -0.000002307616     0.000014466286
      11       -0.000051673631    -0.000050313313    -0.000013982135
      12       -0.000282201530    -0.000082490547    -0.000234646533
      13        0.000873076842    -0.000611991817     0.000203542650
      14        0.000237951893    -0.000394350232     0.000146183517
      15        0.000049691692    -0.000083165748    -0.000054398418
      16       -0.000137870376    -0.000373584838     0.000257628768
      17        0.000247947305     0.000002044688     0.000085369976
      18        0.000041205401    -0.000065911920    -0.000051114802


*** tstop() called on green.prib.upf.edu at Sat Sep 29 20:49:26 2018
Module time:
	user time   =      26.67 seconds =       0.44 minutes
	system time =       0.19 seconds =       0.00 minutes
	total time  =          6 seconds =       0.10 minutes
Total time:
	user time   =     224.26 seconds =       3.74 minutes
	system time =       1.40 seconds =       0.02 minutes
	total time  =         61 seconds =       1.02 minutes

			-----------------------------------------
			 OPTKING 2.0: for geometry optimizations 
			  - R.A. King,  Bethel University        
			-----------------------------------------
	At level 1: Red. Int., RFO, no backsteps, dynamic trust

	Previous internal coordinate definitions found.
	---Fragment 1 Geometry and Gradient---
	 C           0.0178359955        0.0064278084       -0.3370492463
	 C           0.0915155290        2.3090391160        0.9902873455
	 C           0.0750466808        2.2920332514        3.6197393237
	 C          -0.0013089393       -0.0029011434        4.9278594257
	 C          -0.0778674714       -2.2929102126        3.6111461920
	 C          -0.0848817258       -2.3003030501        0.9816168444
	 C          -0.0063458774        0.0123695733       -3.1081424011
	 H           0.0788991992        4.0949002132       -0.0228504083
	 H           0.1042950893        4.0659022013        4.6482363296
	 H          -0.0062654593       -0.0066164219        6.9794668205
	 H          -0.1196437909       -4.0704048724        4.6331162044
	 H          -0.0822318402       -4.0827813665       -0.0378428133
	 N           1.4289048664        1.6471815924       -4.3656806821
	 N          -1.4284724862       -1.6482810291       -4.3473582059
	 H          -1.3709619632       -1.8547155387       -6.2505498321
	 H          -2.7152261737       -2.6950171159       -3.3951333851
	 H           2.7298716525        2.6873248133       -3.4263610028
	 H           1.3668367145        1.8387540711       -6.2702390954
	             0.0023233020       -0.0004407561       -0.0002705101
	            -0.0010834956        0.0000529933       -0.0000482856
	            -0.0001609550       -0.0000030073       -0.0000990643
	             0.0000853072       -0.0000951075        0.0001318533
	             0.0000784606        0.0000766669        0.0000487760
	             0.0000412654       -0.0000197028       -0.0002395946
	            -0.0023435545        0.0020256873        0.0002564322
	             0.0000545799        0.0000399275       -0.0001174602
	             0.0000473836        0.0000248224       -0.0000350296
	            -0.0000219063       -0.0000023076        0.0000144663
	            -0.0000516736       -0.0000503133       -0.0000139821
	            -0.0002822015       -0.0000824905       -0.0002346465
	             0.0008730768       -0.0006119918        0.0002035426
	             0.0002379519       -0.0003943502        0.0001461835
	             0.0000496917       -0.0000831657       -0.0000543984
	            -0.0001378704       -0.0003735848        0.0002576288
	             0.0002479473        0.0000020447        0.0000853700
	             0.0000412054       -0.0000659119       -0.0000511148

	---Fragment 1 Intrafragment Coordinates---
	 - Coordinate -           - BOHR/RAD -       - ANG/DEG -
	 R(1,2)           =         2.658810	       1.406982
	 R(1,6)           =         2.659030	       1.407098
	 R(1,7)           =         2.771205	       1.466459
	 R(2,3)           =         2.629559	       1.391502
	 R(2,8)           =         2.053267	       1.086542
	 R(3,4)           =         2.642675	       1.398443
	 R(3,9)           =         2.050676	       1.085171
	 R(4,5)           =         2.642676	       1.398444
	 R(4,10)          =         2.051617	       1.085669
	 R(5,6)           =         2.629549	       1.391497
	 R(5,11)          =         2.050769	       1.085220
	 R(6,12)          =         2.053420	       1.086623
	 R(7,13)          =         2.512759	       1.329695
	 R(7,14)          =         2.513138	       1.329895
	 R(13,17)         =         1.912259	       1.011924
	 R(13,18)         =         1.915175	       1.013467
	 R(14,15)         =         1.915218	       1.013490
	 R(14,16)         =         1.912622	       1.012116
	 B(1,2,3)         =         2.086822	     119.566111
	 B(1,2,8)         =         2.102200	     120.447174
	 B(1,6,5)         =         2.086761	     119.562609
	 B(1,6,12)        =         2.102248	     120.449910
	 B(1,7,13)        =         2.090764	     119.791928
	 B(1,7,14)        =         2.090469	     119.775067
	 B(2,1,6)         =         2.099930	     120.317106
	 B(2,1,7)         =         2.091611	     119.840477
	 B(2,3,4)         =         2.095291	     120.051322
	 B(2,3,9)         =         2.089594	     119.724929
	 B(3,2,8)         =         2.093233	     119.933436
	 B(3,4,5)         =         2.102180	     120.446066
	 B(3,4,10)        =         2.090518	     119.777860
	 B(4,3,9)         =         2.098259	     120.221375
	 B(4,5,6)         =         2.095273	     120.050278
	 B(4,5,11)        =         2.098293	     120.223361
	 B(5,4,10)        =         2.090483	     119.775871
	 B(5,6,12)        =         2.093128	     119.927412
	 B(6,1,7)         =         2.091422	     119.829651
	 B(6,5,11)        =         2.089598	     119.725158
	 B(7,13,17)       =         2.090530	     119.778555
	 B(7,13,18)       =         2.146297	     122.973748
	 B(7,14,15)       =         2.146268	     122.972087
	 B(7,14,16)       =         2.090756	     119.791503
	 B(13,7,14)       =         2.101751	     120.421477
	 B(15,14,16)      =         2.044236	     117.126081
	 B(17,13,18)      =         2.044433	     117.137407
	 D(1,2,3,4)       =         0.005659	       0.324247
	 D(1,2,3,9)       =        -3.126173	    -179.116527
	 D(1,6,5,4)       =         0.014010	       0.802694
	 D(1,6,5,11)      =        -3.120635	    -178.799239
	 D(1,7,13,17)     =         0.167310	       9.586158
	 D(1,7,13,18)     =        -3.042873	    -174.343804
	 D(1,7,14,15)     =        -3.021365	    -173.111489
	 D(1,7,14,16)     =         0.188837	      10.819578
	 D(2,1,6,5)       =        -0.015480	      -0.886912
	 D(2,1,6,12)      =        -3.107846	    -178.066469
	*D(2,1,7,13)      =         0.698132	      39.999991
	 D(2,1,7,14)      =        -2.464924	    -141.229744
	 D(2,3,4,5)       =        -0.007144	      -0.409327
	 D(2,3,4,10)      =         3.137322	     179.755308
	 D(3,2,1,6)       =         0.005628	       0.322457
	 D(3,2,1,7)       =         3.124499	     179.020634
	 D(3,4,5,6)       =        -0.002810	      -0.161013
	 D(3,4,5,11)      =         3.131800	     179.438919
	 D(4,3,2,8)       =         3.101134	     177.681874
	 D(4,5,6,12)      =         3.106637	     177.997187
	 D(5,4,3,9)       =         3.124639	     179.028645
	 D(5,6,1,7)       =        -3.134354	    -179.585229
	 D(6,1,2,8)       =        -3.089605	    -177.021340
	 D(6,1,7,13)      =        -2.466071	    -141.295433
	 D(6,1,7,14)      =         0.654059	      37.474831
	 D(6,5,4,10)      =         3.135909	     179.674355
	 D(7,1,2,8)       =         0.029266	       1.676837
	 D(7,1,6,12)      =         0.056465	       3.235213
	 D(8,2,3,9)       =        -0.030699	      -1.758899
	 D(9,3,4,10)      =        -0.014080	      -0.806720
	 D(10,4,5,11)     =        -0.012666	      -0.725714
	 D(11,5,6,12)     =        -0.028008	      -1.604746
	 D(13,7,14,15)    =         0.098627	       5.650915
	 D(13,7,14,16)    =        -2.974356	    -170.418018
	 D(14,7,13,17)    =        -2.952679	    -169.176036
	 D(14,7,13,18)    =         0.120323	       6.894001

	Current energy   :      -381.4704311246

	Energy change for the previous step:
		Projected    :        -0.0002084411
		Actual       :        -0.0000190381
	Energy ratio indicates iffy step: Trust radius decreased to 1.250e-01.


	Performing BFGS update.
	Previous computed or guess Hessian on step 1.
	Steps to be used in Hessian update: 1
	Taking RFO optimization step.
	Going to follow RFO solution 1.
	Using RFO vector 1.
	Norm of target step-size    0.03264
	Projected energy change by RFO approximation:        -0.0000429802

	Back-transformation to cartesian coordinates...
	Could not converge backtransformation.
	Using first guess instead.

	Back-transformation to cartesian coordinates to adjust frozen coordinates...
	Successfully converged to displaced geometry.

	--- Internal Coordinate Step in ANG or DEG, aJ/ANG or AJ/DEG ---
	 ---------------------------------------------------------------------------
	   Coordinate                Previous        Force       Change         New 
	   ----------                --------       ------       ------       ------
	    1 R(1,2)          =      1.406982     0.001469     0.000098     1.407080
	    2 R(1,6)          =      1.407098     0.001696     0.000087     1.407185
	    3 R(1,7)          =      1.466459     0.006931     0.000689     1.467147
	    4 R(2,3)          =      1.391502     0.000067     0.000021     1.391523
	    5 R(2,8)          =      1.086542    -0.000756    -0.000094     1.086449
	    6 R(3,4)          =      1.398443    -0.001820    -0.000160     1.398284
	    7 R(3,9)          =      1.085171    -0.000042    -0.000001     1.085170
	    8 R(4,5)          =      1.398444    -0.000743    -0.000061     1.398383
	    9 R(4,10)         =      1.085669    -0.000129    -0.000013     1.085656
	   10 R(5,6)          =      1.391497    -0.000520    -0.000024     1.391473
	   11 R(5,11)         =      1.085220    -0.000315    -0.000043     1.085178
	   12 R(6,12)         =      1.086623    -0.001542    -0.000179     1.086444
	   13 R(7,13)         =      1.329695    -0.000855    -0.000096     1.329598
	   14 R(7,14)         =      1.329895    -0.002499    -0.000199     1.329696
	   15 R(13,17)        =      1.011924    -0.001751    -0.000173     1.011751
	   16 R(13,18)        =      1.013467    -0.000344    -0.000001     1.013466
	   17 R(14,15)        =      1.013490    -0.000522    -0.000019     1.013471
	   18 R(14,16)        =      1.012116    -0.003510    -0.000334     1.011782
	   19 B(1,2,3)        =    119.566111     0.000014     0.022053   119.588164
	   20 B(1,2,8)        =    120.447174    -0.000001    -0.003999   120.443175
	   21 B(1,6,5)        =    119.562609     0.000009     0.010975   119.573584
	   22 B(1,6,12)       =    120.449910     0.000008     0.013190   120.463100
	   23 B(1,7,13)       =    119.791928     0.000001    -0.006731   119.785196
	   24 B(1,7,14)       =    119.775067     0.000059     0.101111   119.876179
	   25 B(2,1,6)        =    120.317106    -0.000026    -0.030420   120.286686
	   26 B(2,1,7)        =    119.840477    -0.000019    -0.042817   119.797659
	   27 B(2,3,4)        =    120.051322    -0.000002    -0.007050   120.044272
	   28 B(2,3,9)        =    119.724929     0.000004     0.012536   119.737465
	   29 B(3,2,8)        =    119.933436    -0.000013    -0.020396   119.913039
	   30 B(3,4,5)        =    120.446066     0.000002     0.001278   120.447344
	   31 B(3,4,10)       =    119.777860    -0.000001    -0.001520   119.776340
	   32 B(4,3,9)        =    120.221375    -0.000002    -0.005972   120.215403
	   33 B(4,5,6)        =    120.050278     0.000003     0.004417   120.054695
	   34 B(4,5,11)       =    120.223361    -0.000004    -0.010340   120.213021
	   35 B(5,4,10)       =    119.775871    -0.000001     0.000424   119.776295
	   36 B(5,6,12)       =    119.927412    -0.000017    -0.033051   119.894361
	   37 B(6,1,7)        =    119.829651     0.000045     0.077193   119.906844
	   38 B(6,5,11)       =    119.725158     0.000001     0.005263   119.730421
	   39 B(7,13,17)      =    119.778555    -0.000000    -0.004548   119.774007
	   40 B(7,13,18)      =    122.973748     0.000002     0.016668   122.990416
	   41 B(7,14,15)      =    122.972087    -0.000003    -0.007016   122.965070
	   42 B(7,14,16)      =    119.791503     0.000002    -0.010186   119.781318
	   43 B(13,7,14)      =    120.421477    -0.000060    -0.084473   120.337004
	   44 B(15,14,16)     =    117.126081    -0.000000    -0.003395   117.122686
	   45 B(17,13,18)     =    117.137407    -0.000001     0.007456   117.144863
	   46 D(1,2,3,4)      =      0.324247     0.000000     0.028874     0.353121
	   47 D(1,2,3,9)      =   -179.116527     0.000001     0.083420  -179.033106
	   48 D(1,6,5,4)      =      0.802694    -0.000000    -0.029933     0.772761
	   49 D(1,6,5,11)     =   -178.799239     0.000001     0.067414  -178.731825
	   50 D(1,7,13,17)    =      9.586158     0.000001     0.128609     9.714768
	   51 D(1,7,13,18)    =   -174.343804     0.000005     0.494249  -173.849555
	   52 D(1,7,14,15)    =   -173.111489    -0.000005    -0.499146  -173.610635
	   53 D(1,7,14,16)    =     10.819578    -0.000000    -0.148259    10.671319
	   54 D(2,1,6,5)      =     -0.886912     0.000001     0.142157    -0.744755
	   55 D(2,1,6,12)     =   -178.066469     0.000003     0.344422  -177.722047
	   56 *D(2,1,7,13)    =     39.999991    -0.000000     0.000000    39.999991
	   57 D(2,1,7,14)     =   -141.229744     0.000007     0.768137  -140.461608
	   58 D(2,3,4,5)      =     -0.409327     0.000001     0.083044    -0.326284
	   59 D(2,3,4,10)     =    179.755308    -0.000000    -0.028564   179.726744
	   60 D(3,2,1,6)      =      0.322457    -0.000001    -0.141575     0.180883
	   61 D(3,2,1,7)      =    179.020634     0.000001     0.079594   179.100228
	   62 D(3,4,5,6)      =     -0.161013    -0.000001    -0.082390    -0.243403
	   63 D(3,4,5,11)     =    179.438919    -0.000002    -0.180148   179.258770
	   64 D(4,3,2,8)      =    177.681874    -0.000001    -0.028670   177.653205
	   65 D(4,5,6,12)     =    177.997187    -0.000002    -0.229719   177.767468
	   66 D(5,4,3,9)      =    179.028645     0.000000     0.028339   179.056984
	   67 D(5,6,1,7)      =   -179.585229    -0.000000    -0.077688  -179.662917
	   68 D(6,1,2,8)      =   -177.021340    -0.000000    -0.083284  -177.104624
	   69 D(6,1,7,13)     =   -141.295433     0.000002     0.218915  -141.076518
	   70 D(6,1,7,14)     =     37.474831     0.000008     0.987052    38.461883
	   71 D(6,5,4,10)     =    179.674355     0.000000     0.029214   179.703569
	   72 D(7,1,2,8)      =      1.676837     0.000002     0.137885     1.814722
	   73 D(7,1,6,12)     =      3.235213     0.000002     0.124577     3.359790
	   74 D(8,2,3,9)      =     -1.758899     0.000000     0.025876    -1.733023
	   75 D(9,3,4,10)     =     -0.806720    -0.000001    -0.083269    -0.889989
	   76 D(10,4,5,11)    =     -0.725714    -0.000001    -0.068544    -0.794257
	   77 D(11,5,6,12)    =     -1.604746    -0.000001    -0.132372    -1.737119
	   78 D(13,7,14,15)   =      5.650915     0.000002     0.274271     5.925186
	   79 D(13,7,14,16)   =   -170.418018     0.000006     0.625158  -169.792860
	   80 D(14,7,13,17)   =   -169.176036    -0.000006    -0.645439  -169.821476
	   81 D(14,7,13,18)   =      6.894001    -0.000002    -0.279800     6.614201
	 ---------------------------------------------------------------------------
	Successfully symmetrized geometry.

  ==> Convergence Check <==

  Measures of convergence in internal coordinates in au.
  Criteria marked as inactive (o), active & met (*), and active & unmet ( ).
  ---------------------------------------------------------------------------------------------
   Step     Total Energy     Delta E     MAX Force     RMS Force      MAX Disp      RMS Disp   
  ---------------------------------------------------------------------------------------------
    Convergence Criteria    1.00e-06 *    3.00e-04 *             o    1.20e-03 *             o
  ---------------------------------------------------------------------------------------------
      2    -381.47043112   -1.90e-05      8.41e-04      2.23e-04 o    1.72e-02      3.63e-03 o  ~
  ---------------------------------------------------------------------------------------------

	Writing optimization data to binary file.
	Structure for next step:
	Cartesian Geometry (in Angstrom)
	    C     0.0100793922  -0.0004864502  -0.1779994275
	    C     0.0465249220   1.2191597710   0.5227209811
	    C     0.0363994449   1.2126951844   1.9141921698
	    C    -0.0022923916  -0.0004853029   2.6083778495
	    C    -0.0379230693  -1.2135918724   1.9136989276
	    C    -0.0401747655  -1.2200372709   0.5222425761
	    C     0.0005885324   0.0015688208  -1.6451147833
	    H     0.0380395402   2.1633004506  -0.0147702060
	    H     0.0485463363   2.1523081318   2.4569391551
	    H    -0.0055590392  -0.0005842631   3.6940290787
	    H    -0.0557646340  -2.1532369897   2.4562479381
	    H    -0.0311994424  -2.1643721971  -0.0148906327
	    N     0.7609018528   0.8667831134  -2.3093133334
	    N    -0.7606607730  -0.8671960485  -2.3037798172
	    H    -0.7333846904  -0.9710870488  -3.3115424726
	    H    -1.4483983042  -1.4140710213  -1.8021349844
	    H     1.4489490628   1.4165326038  -1.8113116678
	    H     0.7253280261   0.9728013890  -3.3165903513
			--------------------------
			 OPTKING Finished Execution 
			--------------------------

    Structure for next step:
    Molecular point group: c1
    Full point group: C1

    Geometry (in Angstrom), charge = 1, multiplicity = 1:

    C            0.010079392212    -0.000486450184    -0.177999427456
    C            0.046524922028     1.219159771047     0.522720981134
    C            0.036399444872     1.212695184351     1.914192169835
    C           -0.002292391626    -0.000485302900     2.608377849523
    C           -0.037923069306    -1.213591872371     1.913698927592
    C           -0.040174765525    -1.220037270905     0.522242576098
    C            0.000588532441     0.001568820797    -1.645114783255
    H            0.038039540216     2.163300450615    -0.014770205954
    H            0.048546336281     2.152308131828     2.456939155108
    H           -0.005559039199    -0.000584263080     3.694029078728
    H           -0.055764634032    -2.153236989716     2.456247938052
    H           -0.031199442442    -2.164372197088    -0.014890632716
    N            0.760901852796     0.866783113387    -2.309313333362
    N           -0.760660772967    -0.867196048469    -2.303779817175
    H           -0.733384690370    -0.971087048825    -3.311542472608
    H           -1.448398304226    -1.414071021271    -1.802134984438
    H            1.448949062797     1.416532603790    -1.811311667780
    H            0.725328026050     0.972801388993    -3.316590351326

gradient() will perform analytic gradient computation.

*** tstart() called on green.prib.upf.edu
*** at Sat Sep 29 20:49:26 2018

   => Loading Basis Set <=

    Name: 6-31G*
    Role: ORBITAL
    Keyword: BASIS
    atoms 1-7         entry C          line   111 file /shared/joao/test_parameterize/miniconda3/share/psi4/basis/6-31gs.gbs 
    atoms 8-12, 15-18 entry H          line    44 file /shared/joao/test_parameterize/miniconda3/share/psi4/basis/6-31gs.gbs 
    atoms 13-14       entry N          line   128 file /shared/joao/test_parameterize/miniconda3/share/psi4/basis/6-31gs.gbs 


         ---------------------------------------------------------
                                   SCF
            by Justin Turney, Rob Parrish, Andy Simmonett
                             and Daniel Smith
                              RKS Reference
                        4 Threads,   2861 MiB Core
         ---------------------------------------------------------

  ==> Geometry <==

    Molecular point group: c1
    Full point group: C1

    Geometry (in Angstrom), charge = 1, multiplicity = 1:

       Center              X                  Y                   Z               Mass       
[...]
	             0.0015252453       -0.0003219649       -0.0000322295
	            -0.0008071377        0.0000486467        0.0000335844
	             0.0000124401       -0.0000099751        0.0000002129
	            -0.0000105947        0.0000054314       -0.0000047442
	            -0.0000101472        0.0000030758       -0.0000025128
	             0.0000096411       -0.0000235411        0.0000197017
	            -0.0014454002        0.0009118923        0.0000349510
	             0.0000070124       -0.0000128392       -0.0000093359
	            -0.0000163186        0.0000000856        0.0000010605
	             0.0000046628        0.0000029270       -0.0000033003
	             0.0000057595        0.0000008338       -0.0000017260
	             0.0000094845        0.0000118088       -0.0000036921
	             0.0006314463       -0.0005706993       -0.0000206128
	             0.0000360435       -0.0000138385       -0.0000175868
	             0.0000063603       -0.0000059490       -0.0000055837
	             0.0000158830        0.0000100501       -0.0000019953
	             0.0000127587       -0.0000259608        0.0000028829
	             0.0000119147       -0.0000109028       -0.0000091630

	---Fragment 1 Intrafragment Coordinates---
	 - Coordinate -           - BOHR/RAD -       - ANG/DEG -
	 R(1,2)           =         2.659116	       1.407144
	 R(1,6)           =         2.659102	       1.407136
	 R(1,7)           =         2.773045	       1.467432
	 R(2,3)           =         2.629621	       1.391535
	 R(2,8)           =         2.053024	       1.086414
	 R(3,4)           =         2.642268	       1.398228
	 R(3,9)           =         2.050660	       1.085162
	 R(4,5)           =         2.642515	       1.398358
	 R(4,10)          =         2.051586	       1.085652
	 R(5,6)           =         2.629471	       1.391456
	 R(5,11)          =         2.050660	       1.085162
	 R(6,12)          =         2.052996	       1.086399
	 R(7,13)          =         2.512542	       1.329580
	 R(7,14)          =         2.512503	       1.329559
	 R(13,17)         =         1.911849	       1.011707
	 R(13,18)         =         1.915105	       1.013430
	 R(14,15)         =         1.915115	       1.013435
	 R(14,16)         =         1.911814	       1.011688
	 B(1,2,3)         =         2.087221	     119.588959
	 B(1,2,8)         =         2.102394	     120.458278
	 B(1,6,5)         =         2.087001	     119.576335
	 B(1,6,12)        =         2.102410	     120.459218
	 B(1,7,13)        =         2.091096	     119.810969
	 B(1,7,14)        =         2.091984	     119.861850
	 B(2,1,6)         =         2.099343	     120.283521
	 B(2,1,7)         =         2.090949	     119.802564
	 B(2,3,4)         =         2.095131	     120.042147
	 B(2,3,9)         =         2.089872	     119.740861
	 B(3,2,8)         =         2.092552	     119.894412
	 B(3,4,5)         =         2.102255	     120.450321
	 B(3,4,10)        =         2.090475	     119.775394
	 B(4,3,9)         =         2.098128	     120.213901
	 B(4,5,6)         =         2.095342	     120.054281
	 B(4,5,11)        =         2.098045	     120.209120
	 B(5,4,10)        =         2.090455	     119.774269
	 B(5,6,12)        =         2.092577	     119.895820
	 B(6,1,7)         =         2.092779	     119.907394
	 B(6,5,11)        =         2.089763	     119.734573
	 B(7,13,17)       =         2.090508	     119.777291
	 B(7,13,18)       =         2.146673	     122.995317
	 B(7,14,15)       =         2.146135	     122.964466
	 B(7,14,16)       =         2.090492	     119.776353
	 B(13,7,14)       =         2.100053	     120.324162
	 B(15,14,16)      =         2.044337	     117.131873
	 B(17,13,18)      =         2.044495	     117.140950
	 D(1,2,3,4)       =         0.006648	       0.380921
	 D(1,2,3,9)       =        -3.123806	    -178.980924
	 D(1,6,5,4)       =         0.012510	       0.716778
	 D(1,6,5,11)      =        -3.120064	    -178.766484
	 D(1,7,13,17)     =         0.167955	       9.623101
	 D(1,7,13,18)     =        -3.034369	    -173.856515
	 D(1,7,14,15)     =        -3.029657	    -173.586551
	 D(1,7,14,16)     =         0.185625	      10.635541
	 D(2,1,6,5)       =        -0.011110	      -0.636541
	 D(2,1,6,12)      =        -3.100073	    -177.621083
	*D(2,1,7,13)      =         0.698132	      39.999991
	 D(2,1,7,14)      =        -2.454454	    -140.629872
	 D(2,3,4,5)       =        -0.005273	      -0.302122
	 D(2,3,4,10)      =         3.137144	     179.745108
	 D(3,2,1,6)       =         0.001515	       0.086775
	 D(3,2,1,7)       =         3.126880	     179.157048
	 D(3,4,5,6)       =        -0.004421	      -0.253281
	 D(3,4,5,11)      =         3.128110	     179.227507
	 D(4,3,2,8)       =         3.099984	     177.616025
	 D(4,5,6,12)      =         3.101773	     177.718529
	 D(5,4,3,9)       =         3.125129	     179.056677
	 D(5,6,1,7)       =        -3.136459	    -179.705836
	 D(6,1,2,8)       =        -3.091544	    -177.132448
	 D(6,1,7,13)      =        -2.459626	    -140.926205
	 D(6,1,7,14)      =         0.670973	      38.443932
	 D(6,5,4,10)      =         3.136348	     179.699489
	 D(7,1,2,8)       =         0.033821	       1.937824
	 D(7,1,6,12)      =         0.057764	       3.309622
	 D(8,2,3,9)       =        -0.030470	      -1.745820
	 D(9,3,4,10)      =        -0.015640	      -0.896093
	 D(10,4,5,11)     =        -0.014307	      -0.819722
	 D(11,5,6,12)     =        -0.030800	      -1.764734
	 D(13,7,14,15)    =         0.100885	       5.780312
	 D(13,7,14,16)    =        -2.967018	    -169.997597
	 D(14,7,13,17)    =        -2.962593	    -169.744084
	 D(14,7,13,18)    =         0.118269	       6.776300

	Current energy   :      -381.4704484563

	Energy change for the previous step:
		Projected    :        -0.0000029217
		Actual       :        -0.0000007386

	Performing BFGS update.
	Previous computed or guess Hessian on step 1.
	Steps to be used in Hessian update: 3 2
	Taking RFO optimization step.
	Going to follow RFO solution 1.
	Using RFO vector 1.
	Norm of target step-size    0.00292
	Projected energy change by RFO approximation:        -0.0000003210

	Back-transformation to cartesian coordinates...
	Successfully converged to displaced geometry.

	Back-transformation to cartesian coordinates to adjust frozen coordinates...
	Successfully converged to displaced geometry.

	--- Internal Coordinate Step in ANG or DEG, aJ/ANG or AJ/DEG ---
	 ---------------------------------------------------------------------------
	   Coordinate                Previous        Force       Change         New 
	   ----------                --------       ------       ------       ------
	    1 R(1,2)          =      1.407144    -0.000160    -0.000015     1.407129
	    2 R(1,6)          =      1.407136    -0.000114    -0.000026     1.407110
	    3 R(1,7)          =      1.467432    -0.000112     0.000013     1.467445
	    4 R(2,3)          =      1.391535     0.000023     0.000005     1.391540
	    5 R(2,8)          =      1.086414     0.000059     0.000006     1.086419
	    6 R(3,4)          =      1.398228     0.000079     0.000005     1.398233
	    7 R(3,9)          =      1.085162    -0.000008    -0.000002     1.085160
	    8 R(4,5)          =      1.398358    -0.000009    -0.000002     1.398356
	    9 R(4,10)         =      1.085652     0.000018     0.000003     1.085655
	   10 R(5,6)          =      1.391456     0.000012    -0.000000     1.391456
	   11 R(5,11)         =      1.085162     0.000009     0.000000     1.085162
	   12 R(6,12)         =      1.086399     0.000074     0.000009     1.086407
	   13 R(7,13)         =      1.329580     0.000056     0.000003     1.329583
	   14 R(7,14)         =      1.329559     0.000136    -0.000002     1.329557
	   15 R(13,17)        =      1.011707     0.000026    -0.000001     1.011706
	   16 R(13,18)        =      1.013430    -0.000052    -0.000010     1.013420
	   17 R(14,15)        =      1.013435    -0.000043    -0.000009     1.013426
	   18 R(14,16)        =      1.011688     0.000137     0.000009     1.011698
	   19 B(1,2,3)        =    119.588959    -0.000000    -0.001181   119.587777
	   20 B(1,2,8)        =    120.458278     0.000001     0.007227   120.465506
	   21 B(1,6,5)        =    119.576335    -0.000000    -0.000278   119.576057
	   22 B(1,6,12)       =    120.459218     0.000001     0.001968   120.461186
	   23 B(1,7,13)       =    119.810969    -0.000001     0.001996   119.812966
	   24 B(1,7,14)       =    119.861850    -0.000002    -0.010010   119.851840
	   25 B(2,1,6)        =    120.283521     0.000001     0.001933   120.285454
	   26 B(2,1,7)        =    119.802564     0.000000     0.001221   119.803785
	   27 B(2,3,4)        =    120.042147    -0.000000    -0.000136   120.042011
	   28 B(2,3,9)        =    119.740861    -0.000000    -0.000380   119.740480
	   29 B(3,2,8)        =    119.894412    -0.000001    -0.005766   119.888646
	   30 B(3,4,5)        =    120.450321    -0.000000     0.000003   120.450324
	   31 B(3,4,10)       =    119.775394     0.000000     0.001073   119.776466
	   32 B(4,3,9)        =    120.213901     0.000000     0.000623   120.214525
	   33 B(4,5,6)        =    120.054281    -0.000000    -0.000410   120.053871
	   34 B(4,5,11)       =    120.209120     0.000000    -0.000252   120.208867
	   35 B(5,4,10)       =    119.774269    -0.000000    -0.001089   119.773180
	   36 B(5,6,12)       =    119.895820    -0.000001    -0.001675   119.894146
	   37 B(6,1,7)        =    119.907394    -0.000001    -0.003227   119.904168
	   38 B(6,5,11)       =    119.734573     0.000000     0.000697   119.735269
	   39 B(7,13,17)      =    119.777291     0.000001     0.006690   119.783982
	   40 B(7,13,18)      =    122.995317    -0.000001    -0.000417   122.994900
	   41 B(7,14,15)      =    122.964466    -0.000000    -0.001494   122.962973
	   42 B(7,14,16)      =    119.776353     0.000001     0.002180   119.778532
	   43 B(13,7,14)      =    120.324162     0.000003     0.008478   120.332640
	   44 B(15,14,16)     =    117.131873    -0.000000    -0.000883   117.130990
	   45 B(17,13,18)     =    117.140950    -0.000000    -0.001273   117.139677
	   46 D(1,2,3,4)      =      0.380921    -0.000000    -0.013292     0.367629
	   47 D(1,2,3,9)      =   -178.980924    -0.000000    -0.024468  -179.005391
	   48 D(1,6,5,4)      =      0.716778     0.000000     0.001479     0.718257
	   49 D(1,6,5,11)     =   -178.766484     0.000000    -0.002901  -178.769386
	   50 D(1,7,13,17)    =      9.623101    -0.000000    -0.031520     9.591581
	   51 D(1,7,13,18)    =   -173.856515     0.000000     0.070499  -173.786017
	   52 D(1,7,14,15)    =   -173.586551    -0.000000    -0.046928  -173.633479
	   53 D(1,7,14,16)    =     10.635541    -0.000000    -0.043636    10.591905
	   54 D(2,1,6,5)      =     -0.636541    -0.000000    -0.021637    -0.658178
	   55 D(2,1,6,12)     =   -177.621083    -0.000000    -0.021911  -177.642994
	   56 *D(2,1,7,13)    =     39.999991    -0.000000     0.000000    39.999991
	   57 D(2,1,7,14)     =   -140.629872     0.000000     0.050552  -140.579320
	   58 D(2,3,4,5)      =     -0.302122    -0.000000    -0.006787    -0.308908
	   59 D(2,3,4,10)     =    179.745108     0.000000     0.008780   179.753889
	   60 D(3,2,1,6)      =      0.086775     0.000000     0.027551     0.114327
	   61 D(3,2,1,7)      =    179.157048     0.000000     0.022352   179.179400
	   62 D(3,4,5,6)      =     -0.253281     0.000000     0.012764    -0.240517
	   63 D(3,4,5,11)     =    179.227507     0.000000     0.017170   179.244677
	   64 D(4,3,2,8)      =    177.616025    -0.000000    -0.006449   177.609576
	   65 D(4,5,6,12)     =    177.718529     0.000000     0.001863   177.720392
	   66 D(5,4,3,9)      =    179.056677     0.000000     0.004436   179.061113
	   67 D(5,6,1,7)      =   -179.705836    -0.000000    -0.016474  -179.722310
	   68 D(6,1,2,8)      =   -177.132448     0.000000     0.021036  -177.111413
	   69 D(6,1,7,13)     =   -140.926205    -0.000000    -0.005131  -140.931336
	   70 D(6,1,7,14)     =     38.443932     0.000000     0.045421    38.489353
	   71 D(6,5,4,10)     =    179.699489    -0.000000    -0.002801   179.696688
	   72 D(7,1,2,8)      =      1.937824     0.000000     0.015837     1.953661
	   73 D(7,1,6,12)     =      3.309622    -0.000000    -0.016748     3.292873
	   74 D(8,2,3,9)      =     -1.745820    -0.000000    -0.017625    -1.763445
	   75 D(9,3,4,10)     =     -0.896093     0.000000     0.020003    -0.876090
	   76 D(10,4,5,11)    =     -0.819722     0.000000     0.001605    -0.818118
	   77 D(11,5,6,12)    =     -1.764734    -0.000000    -0.002517    -1.767251
	   78 D(13,7,14,15)   =      5.780312     0.000000     0.003848     5.784160
	   79 D(13,7,14,16)   =   -169.997597     0.000000     0.007140  -169.990457
	   80 D(14,7,13,17)   =   -169.744084    -0.000001    -0.082200  -169.826284
	   81 D(14,7,13,18)   =      6.776300     0.000000     0.019818     6.796118
	 ---------------------------------------------------------------------------
	Successfully symmetrized geometry.

  ==> Convergence Check <==

  Measures of convergence in internal coordinates in au.
  Criteria marked as inactive (o), active & met (*), and active & unmet ( ).
  ---------------------------------------------------------------------------------------------
   Step     Total Energy     Delta E     MAX Force     RMS Force      MAX Disp      RMS Disp   
  ---------------------------------------------------------------------------------------------
    Convergence Criteria    1.00e-06 *    3.00e-04 *             o    1.20e-03 *             o
  ---------------------------------------------------------------------------------------------
      4    -381.47044846   -7.39e-07 *    4.02e-05 *    1.15e-05 o    1.43e-03      3.24e-04 o  ~
  ---------------------------------------------------------------------------------------------


  **** Optimization is complete! (in 4 steps) ****

  ==> Optimization Summary <==

  Measures of convergence in internal coordinates in au.
  --------------------------------------------------------------------------------------------------------------- ~
   Step         Total Energy             Delta E       MAX Force       RMS Force        MAX Disp        RMS Disp  ~
  --------------------------------------------------------------------------------------------------------------- ~
      1    -381.470412086463   -381.470412086463      0.00126514      0.00028597      0.04407296      0.00854917  ~
      2    -381.470431124574     -0.000019038111      0.00084126      0.00022321      0.01722730      0.00362868  ~
      3    -381.470447717714     -0.000016593140      0.00017756      0.00004264      0.00357333      0.00092924  ~
      4    -381.470448456302     -0.000000738589      0.00004019      0.00001149      0.00143467      0.00032393  ~
  --------------------------------------------------------------------------------------------------------------- ~

	Writing optimization data to binary file.
	Final energy is   -381.4704484563023
	Final (previous) structure:
	Cartesian Geometry (in Angstrom)
	    C     0.0084184898   0.0000959065  -0.1779077097
	    C     0.0455954600   1.2196311655   0.5230949766
	    C     0.0351205501   1.2129179127   1.9145746495
	    C    -0.0040539083  -0.0003553226   2.6084588506
	    C    -0.0393127853  -1.2133317291   1.9135836987
	    C    -0.0409160037  -1.2195467581   0.5221422379
	    C     0.0005502895   0.0022892169  -1.6453172309
	    H     0.0368704674   2.1640070804  -0.0139081200
	    H     0.0469702216   2.1523977437   2.4575431679
	    H    -0.0078943173  -0.0006626096   3.6941043920
	    H    -0.0570184262  -2.1530216504   2.4560288337
	    H    -0.0308494850  -2.1637301731  -0.0151454562
	    N     0.7624541029   0.8663877433  -2.3091087098
	    N    -0.7585164223  -0.8677370668  -2.3045592503
	    H    -0.7298485276  -0.9719027114  -3.3122192967
	    H    -1.4453337531  -1.4160426124  -1.8034040119
	    H     1.4498049295   1.4164222717  -1.8105489145
	    H     0.7279591180   0.9721825929  -3.3164111069
	Saving final (previous) structure.
	Removing binary optimization data file.
			--------------------------
			 OPTKING Finished Execution 
			--------------------------

    Final optimized geometry and variables:
    Molecular point group: c1
    Full point group: C1

    Geometry (in Angstrom), charge = 1, multiplicity = 1:

    C            0.008418489819     0.000095906495    -0.177907709657
    C            0.045595460022     1.219631165515     0.523094976604
    C            0.035120550145     1.212917912737     1.914574649492
    C           -0.004053908289    -0.000355322581     2.608458850606
    C           -0.039312785337    -1.213331729126     1.913583698691
    C           -0.040916003739    -1.219546758130     0.522142237921
    C            0.000550289484     0.002289216882    -1.645317230902
    H            0.036870467390     2.164007080367    -0.013908119966
    H            0.046970221609     2.152397743708     2.457543167869
    H           -0.007894317273    -0.000662609576     3.694104391994
    H           -0.057018426207    -2.153021650425     2.456028833734
    H           -0.030849485020    -2.163730173140    -0.015145456184
    N            0.762454102933     0.866387743286    -2.309108709800
    N           -0.758516422332    -0.867737066826    -2.304559250306
    H           -0.729848527603    -0.971902711443    -3.312219296735
    H           -1.445333753117    -1.416042612354    -1.803404011926
    H            1.449804929500     1.416422271713    -1.810548914495
    H            0.727959118015     0.972182592899    -3.316411106941

	Removing binary optimization data file.
	Cleaning optimization helper files.


Properties will be evaluated at   0.000000,   0.000000,   0.000000 [a0]
OEProp: No title given, name of density matrix used for the following properties is 'SCF density'
  Nuclear Dipole Moment: [e a0]
     X:     0.0957      Y:     0.0008      Z:    -0.0149

  Electronic Dipole Moment: [e a0]
     X:    -0.1010      Y:     0.0031      Z:    -2.2577

  Dipole Moment: [e a0]
     X:    -0.0053      Y:     0.0039      Z:    -2.2726     Total:     2.2726

  Dipole Moment: [D]
     X:    -0.0134      Y:     0.0100      Z:    -5.7763     Total:     5.7763

  Quadrupole Moment: [D A]
    XX:   -48.7782     YY:   -38.5739     ZZ:   -13.3136
    XY:     6.5753     XZ:    -0.0231     YZ:    -0.0334

  Traceless Quadrupole Moment: [D A]
    XX:   -15.2230     YY:    -5.0186     ZZ:    20.2416
    XY:     6.5753     XZ:    -0.0231     YZ:    -0.0334

  Mulliken Charges: (a.u.)
   Center  Symbol    Alpha    Beta     Spin     Total
       1     C     2.96014  2.96014  0.00000  0.07972
       2     C     3.08109  3.08109  0.00000 -0.16219
       3     C     3.06242  3.06242  0.00000 -0.12484
       4     C     3.05159  3.05159  0.00000 -0.10317
       5     C     3.06266  3.06266  0.00000 -0.12531
       6     C     3.08138  3.08138  0.00000 -0.16276
       7     C     2.72412  2.72412  0.00000  0.55177
       8     H     0.41400  0.41400  0.00000  0.17200
       9     H     0.40554  0.40554  0.00000  0.18892
      10     H     0.40407  0.40407  0.00000  0.19187
      11     H     0.40554  0.40554  0.00000  0.18892
      12     H     0.41393  0.41393  0.00000  0.17215
      13     N     3.86153  3.86153  0.00000 -0.72306
      14     N     3.86198  3.86198  0.00000 -0.72397
      15     H     0.30565  0.30565  0.00000  0.38870
      16     H     0.29941  0.29941  0.00000  0.40118
      17     H     0.29928  0.29928  0.00000  0.40144
      18     H     0.30568  0.30568  0.00000  0.38865

   Total alpha = 32.00000, Total beta = 32.00000, Total charge =  1.00000


    Psi4 stopped on: Saturday, 29 September 2018 08:50PM
    Psi4 wall time for execution: 0:01:52.40

*** Psi4 exiting successfully. Buy a developer a beer!
