
    -----------------------------------------------------------------------
          Psi4: An Open-Source Ab Initio Electronic Structure Package
                               Psi4 1.2.1 release

                         Git: Rev {HEAD} 406f4de 


    R. M. Parrish, L. A. Burns, D. G. A. Smith, A. C. Simmonett,
    A. E. DePrince III, E. G. Hohenstein, U. Bozkaya, A. Yu. Sokolov,
    R. Di Remigio, R. M. Richard, J. F. Gonthier, A. M. James,
    H. R. McAlexander, A. Kumar, M. Saitow, X. Wang, B. P. Pritchard,
    P. Verma, H. F. Schaefer III, K. Patkowski, R. A. King, E. F. Valeev,
    F. A. Evangelista, J. M. Turney, T. D. Crawford, and C. D. Sherrill,
    J. Chem. Theory Comput. 13(7) pp 3185--3197 (2017).
    (doi: 10.1021/acs.jctc.7b00174)


                         Additional Contributions by
    P. Kraus, H. Kruse, M. H. Lechner, M. C. Schieber, and R. A. Shaw

    -----------------------------------------------------------------------


    Psi4 started on: Saturday, 29 September 2018 05:09PM

    Process ID: 12942
    Host:       loro.prib.upf.edu
    PSIDATADIR: /shared/joao/test_parameterize/miniconda3/share/psi4
    Memory:     500.0 MiB
    Threads:    1
    
  ==> Input File <==

--------------------------------------------------------------------------
set_num_threads(1)
set_memory('5348 MB')

set { scf_mem_safety_factor 0.7 }

set { reference rks }
set { basis cc-pVDZ }

molecule MOL {
    0 1
    noreorient
    nocom
    symmetry c1
    O    1.050400   0.042900  -0.048100
    C    2.474100   0.047400  -0.029000
    C    3.002600  -1.068900  -0.932000
    N    2.769019  -0.789396  -2.347916
    H    0.760400   0.728400   0.578000
    H    2.809900  -0.097900   1.003200
    H    2.817400   1.026800  -0.378600
    H    2.531389  -2.020675  -0.660296
    H    4.076826  -1.197708  -0.757346
    H    1.766035  -0.789223  -2.530957
    H    3.153303  -1.555199  -2.901200
}

set optking { frozen_dihedral = (" 1 2 3 4 ") }

energy, wfn = energy('B3LYP-D3', return_wfn=True)

import os
os.chdir(os.environ['HTMD_PSI4_WORKDIR'])

oeprop(wfn, 'DIPOLE', 'QUADRUPOLE', 'MULLIKEN_CHARGES')

with open('psi4out.xyz', 'w') as f:
    f.write('11 ' )
    f.write('%.12f\n' % energy)
    f.write(MOL.save_string_xyz())
--------------------------------------------------------------------------
  Threads set to 1 by Python driver.

  Memory set to   4.981 GiB by Python driver.

*** tstart() called on loro.prib.upf.edu
*** at Sat Sep 29 17:09:09 2018

   => Loading Basis Set <=

    Name: CC-PVDZ
    Role: ORBITAL
    Keyword: BASIS
    atoms 1    entry O          line   198 file /shared/joao/test_parameterize/miniconda3/share/psi4/basis/cc-pvdz.gbs 
    atoms 2-3  entry C          line   138 file /shared/joao/test_parameterize/miniconda3/share/psi4/basis/cc-pvdz.gbs 
    atoms 4    entry N          line   168 file /shared/joao/test_parameterize/miniconda3/share/psi4/basis/cc-pvdz.gbs 
    atoms 5-11 entry H          line    22 file /shared/joao/test_parameterize/miniconda3/share/psi4/basis/cc-pvdz.gbs 


         ---------------------------------------------------------
                                   SCF
            by Justin Turney, Rob Parrish, Andy Simmonett
                             and Daniel Smith
                              RKS Reference
                        1 Threads,   5100 MiB Core
         ---------------------------------------------------------

  ==> Geometry <==

    Molecular point group: c1
    Full point group: C1

    Geometry (in Angstrom), charge = 0, multiplicity = 1:

       Center              X                  Y                   Z               Mass       
    ------------   -----------------  -----------------  -----------------  -----------------
         O            1.050400000000     0.042900000000    -0.048100000000    15.994914619560
         C            2.474100000000     0.047400000000    -0.029000000000    12.000000000000
         C            3.002600000000    -1.068900000000    -0.932000000000    12.000000000000
         N            2.769019000000    -0.789396000000    -2.347916000000    14.003074004780
         H            0.760400000000     0.728400000000     0.578000000000     1.007825032070
         H            2.809900000000    -0.097900000000     1.003200000000     1.007825032070
         H            2.817400000000     1.026800000000    -0.378600000000     1.007825032070
         H            2.531389000000    -2.020675000000    -0.660296000000     1.007825032070
         H            4.076826000000    -1.197708000000    -0.757346000000     1.007825032070
         H            1.766035000000    -0.789223000000    -2.530957000000     1.007825032070
         H            3.153303000000    -1.555199000000    -2.901200000000     1.007825032070

  Running in c1 symmetry.

  Rotational constants: A =      0.31652  B =      0.03718  C =      0.03453 [cm^-1]
  Rotational constants: A =   9489.11608  B =   1114.72783  C =   1035.18342 [MHz]
  Nuclear repulsion =  132.569368036479318

  Charge       = 0
  Multiplicity = 1
  Electrons    = 34
  Nalpha       = 17
  Nbeta        = 17

  ==> Algorithm <==

  SCF Algorithm Type is DF.
  DIIS enabled.
  MOM disabled.
  Fractional occupation disabled.
  Guess Type is SAD.
  Energy threshold   = 1.00e-06
  Density threshold  = 1.00e-06
  Integral threshold = 0.00e+00

  ==> Primary Basis <==

  Basis Set: CC-PVDZ
    Blend: CC-PVDZ
    Number of shells: 45
    Number of basis function: 91
    Number of Cartesian functions: 95
    Spherical Harmonics?: true
    Max angular momentum: 2

  ==> DFT Potential <==

   => Composite Functional: B3LYP-D3ZERO <= 

    B3LYP-d3zero Hyb-GGA Exchange-Correlation Functional

    P. J. Stephens, F. J. Devlin, C. F. Chabalowski, and M. J. Frisch, J. Phys. Chem. 98, 11623 (1994)

    Deriv               =              1
    GGA                 =           TRUE
    Meta                =          FALSE

    Exchange Hybrid     =           TRUE
    MP2 Hybrid          =          FALSE

   => Exchange Functionals <=

    0.0800   Slater exchange
    0.7200         Becke 88

   => Exact (HF) Exchange <=

    0.2000               HF 

   => Correlation Functionals <=

    0.1900   Vosko, Wilk & Nusair (VWN5_RPA)
    0.8100   Lee, Yang & Parr

   => Molecular Quadrature <=

    Radial Scheme       =       TREUTLER
    Pruning Scheme      =           FLAT
    Nuclear Scheme      =       TREUTLER

    BS radius alpha     =              1
    Pruning alpha       =              1
    Radial Points       =             75
    Spherical Points    =            302
    Total Points        =         245128
    Total Blocks        =           1904
    Max Points          =            256
    Max Functions       =             91

   => -D3ZERO: Empirical Dispersion <=

    Grimme's -D3 (zero-damping) Dispersion Correction
    Grimme S.; Antony J.; Ehrlich S.; Krieg H. (2010), J. Chem. Phys., 132: 154104

        S6 =   1.000000E+00
        S8 =   1.703000E+00
       SR6 =   1.261000E+00
       SR8 =   1.000000E+00
    ALPHA6 =   1.400000E+01

   => Loading Basis Set <=

    Name: (CC-PVDZ AUX)
    Role: JKFIT
    Keyword: DF_BASIS_SCF
    atoms 1    entry O          line   221 file /shared/joao/test_parameterize/miniconda3/share/psi4/basis/cc-pvdz-jkfit.gbs 
    atoms 2-3  entry C          line   121 file /shared/joao/test_parameterize/miniconda3/share/psi4/basis/cc-pvdz-jkfit.gbs 
    atoms 4    entry N          line   171 file /shared/joao/test_parameterize/miniconda3/share/psi4/basis/cc-pvdz-jkfit.gbs 
    atoms 5-11 entry H          line    51 file /shared/joao/test_parameterize/miniconda3/share/psi4/basis/cc-pvdz-jkfit.gbs 

  ==> Pre-Iterations <==

   -------------------------------------------------------
    Irrep   Nso     Nmo     Nalpha   Nbeta   Ndocc  Nsocc
   -------------------------------------------------------
     A         91      91       0       0       0       0
   -------------------------------------------------------
    Total      91      91      17      17      17       0
   -------------------------------------------------------

  ==> Integral Setup <==

  DFHelper Memory: AOs need 0.036 [GiB]; user supplied 3.486 [GiB]. Using in-core AOs.

  ==> MemDFJK: Density-Fitted J/K Matrices <==

    J tasked:                   Yes
    K tasked:                   Yes
    wK tasked:                   No
    OpenMP threads:               1
    Memory (MB):               3570
    Algorithm:                 Core
    Schwarz Cutoff:           1E-12
    Mask sparsity (%):       0.0000
    Fitting Condition:        1E-12

   => Auxiliary Basis Set <=

  Basis Set: (CC-PVDZ AUX)
    Blend: CC-PVDZ-JKFIT
    Number of shells: 159
    Number of basis function: 441
    Number of Cartesian functions: 499
    Spherical Harmonics?: true
    Max angular momentum: 3

  Minimum eigenvalue in the overlap matrix is 4.9086731239E-03.
  Using Symmetric Orthogonalization.

  SCF Guess: Superposition of Atomic Densities via on-the-fly atomic UHF.

  ==> Iterations <==

                           Total Energy        Delta E     RMS |[F,P]|

   @DF-RKS iter   0:  -210.92017275856082   -2.10920e+02   3.73720e-02 
   @DF-RKS iter   1:  -210.26032941961603    6.59843e-01   6.14300e-03 
   @DF-RKS iter   2:  -210.14343129313539    1.16898e-01   8.67985e-03 DIIS
   @DF-RKS iter   3:  -210.39236450760399   -2.48933e-01   6.05324e-04 DIIS
   @DF-RKS iter   4:  -210.39339343669732   -1.02893e-03   3.13408e-04 DIIS
   @DF-RKS iter   5:  -210.39374897042990   -3.55534e-04   5.84566e-05 DIIS
   @DF-RKS iter   6:  -210.39376111917431   -1.21487e-05   1.47299e-05 DIIS
   @DF-RKS iter   7:  -210.39376182921004   -7.10036e-07   4.57892e-06 DIIS
   @DF-RKS iter   8:  -210.39376190511300   -7.59030e-08   6.33670e-07 DIIS

  ==> Post-Iterations <==

    Orbital Energies [Eh]
    ---------------------

    Doubly Occupied:                                                      

       1A    -19.127661     2A    -14.297440     3A    -10.223197  
       4A    -10.202354     5A     -1.010426     6A     -0.870055  
       7A     -0.713607     8A     -0.593776     9A     -0.513500  
      10A     -0.473769    11A     -0.457279    12A     -0.402719  
      13A     -0.395118    14A     -0.362955    15A     -0.326122  
      16A     -0.261372    17A     -0.226000  

    Virtual:                                                              

      18A      0.049072    19A      0.077308    20A      0.097290  
      21A      0.128471    22A      0.129912    23A      0.141937  
      24A      0.163582    25A      0.206973    26A      0.227659  
      27A      0.245194    28A      0.458229    29A      0.476885  
      30A      0.488744    31A      0.500017    32A      0.522578  
      33A      0.563854    34A      0.598204    35A      0.616430  
      36A      0.640917    37A      0.657206    38A      0.673223  
      39A      0.697572    40A      0.709579    41A      0.808528  
      42A      0.839612    43A      0.868247    44A      0.930004  
      45A      0.974544    46A      0.993729    47A      1.015096  
      48A      1.062403    49A      1.170628    50A      1.205856  
      51A      1.216293    52A      1.270644    53A      1.335928  
      54A      1.362716    55A      1.439259    56A      1.483350  
      57A      1.530960    58A      1.582512    59A      1.606468  
      60A      1.623557    61A      1.648691    62A      1.658453  
      63A      1.679740    64A      1.728133    65A      1.748278  
      66A      1.801117    67A      1.864115    68A      1.890623  
      69A      1.916194    70A      1.957876    71A      1.978008  
      72A      2.012480    73A      2.052667    74A      2.116220  
      75A      2.147251    76A      2.255690    77A      2.283792  
      78A      2.364222    79A      2.397434    80A      2.443340  
      81A      2.494120    82A      2.540994    83A      2.620419  
      84A      2.694994    85A      2.821399    86A      2.960367  
      87A      3.017308    88A      3.072632    89A      3.097374  
      90A      3.206822    91A      3.696042  

    Final Occupation by Irrep:
              A 
    DOCC [    17 ]

  Energy converged.

  @DF-RKS Final Energy:  -210.39376190511300

   => Energetics <=

    Nuclear Repulsion Energy =            132.5693680364793181
    One-Electron Energy =                -548.1297855127686489
    Two-Electron Energy =                 228.6572366712344149
    DFT Exchange-Correlation Energy =     -23.4854863100580609
    Empirical Dispersion Energy =          -0.0050947900000000
    VV10 Nonlocal Energy =                  0.0000000000000000
    Total Energy =                       -210.3937619051129673



Properties will be evaluated at   0.000000,   0.000000,   0.000000 [a0]

Properties computed using the SCF density matrix

  Nuclear Dipole Moment: [e a0]
     X:   148.4603      Y:   -28.7561      Z:   -53.3534

  Electronic Dipole Moment: [e a0]
     X:  -148.3898      Y:    28.6777      Z:    53.7424

  Dipole Moment: [e a0]
     X:     0.0704      Y:    -0.0784      Z:     0.3890     Total:     0.4030

  Dipole Moment: [D]
     X:     0.1790      Y:    -0.1992      Z:     0.9887     Total:     1.0244


*** tstop() called on loro.prib.upf.edu at Sat Sep 29 17:09:27 2018
Module time:
	user time   =      14.91 seconds =       0.25 minutes
	system time =       0.27 seconds =       0.00 minutes
	total time  =         18 seconds =       0.30 minutes
Total time:
	user time   =      14.91 seconds =       0.25 minutes
	system time =       0.27 seconds =       0.00 minutes
	total time  =         18 seconds =       0.30 minutes


Properties will be evaluated at   0.000000,   0.000000,   0.000000 [a0]
OEProp: No title given, name of density matrix used for the following properties is 'SCF density'
  Nuclear Dipole Moment: [e a0]
     X:   148.4603      Y:   -28.7561      Z:   -53.3534

  Electronic Dipole Moment: [e a0]
     X:  -148.3898      Y:    28.6777      Z:    53.7424

  Dipole Moment: [e a0]
     X:     0.0704      Y:    -0.0784      Z:     0.3890     Total:     0.4030

  Dipole Moment: [D]
     X:     0.1790      Y:    -0.1992      Z:     0.9887     Total:     1.0244

  Quadrupole Moment: [D A]
    XX:   -24.8616     YY:   -22.9903     ZZ:   -24.9313
    XY:    -3.0848     XZ:     2.3150     YZ:     4.5197

  Traceless Quadrupole Moment: [D A]
    XX:    -0.6005     YY:     1.2707     ZZ:    -0.6702
    XY:    -3.0848     XZ:     2.3150     YZ:     4.5197

  Mulliken Charges: (a.u.)
   Center  Symbol    Alpha    Beta     Spin     Total
       1     O     4.14146  4.14146  0.00000 -0.28291
       2     C     2.92817  2.92817  0.00000  0.14365
       3     C     2.97938  2.97938  0.00000  0.04123
       4     N     3.59196  3.59196  0.00000 -0.18392
       5     H     0.42999  0.42999  0.00000  0.14002
       6     H     0.50426  0.50426  0.00000 -0.00852
       7     H     0.49931  0.49931  0.00000  0.00137
       8     H     0.50116  0.50116  0.00000 -0.00231
       9     H     0.49567  0.49567  0.00000  0.00865
      10     H     0.46196  0.46196  0.00000  0.07609
      11     H     0.46668  0.46668  0.00000  0.06665

   Total alpha = 17.00000, Total beta = 17.00000, Total charge =  0.00000


    Psi4 stopped on: Saturday, 29 September 2018 05:09PM
    Psi4 wall time for execution: 0:00:18.25

*** Psi4 exiting successfully. Buy a developer a beer!
