
    -----------------------------------------------------------------------
          Psi4: An Open-Source Ab Initio Electronic Structure Package
                               Psi4 1.2.1 release

                         Git: Rev {HEAD} 406f4de 


    R. M. Parrish, L. A. Burns, D. G. A. Smith, A. C. Simmonett,
    A. E. DePrince III, E. G. Hohenstein, U. Bozkaya, A. Yu. Sokolov,
    R. Di Remigio, R. M. Richard, J. F. Gonthier, A. M. James,
    H. R. McAlexander, A. Kumar, M. Saitow, X. Wang, B. P. Pritchard,
    P. Verma, H. F. Schaefer III, K. Patkowski, R. A. King, E. F. Valeev,
    F. A. Evangelista, J. M. Turney, T. D. Crawford, and C. D. Sherrill,
    J. Chem. Theory Comput. 13(7) pp 3185--3197 (2017).
    (doi: 10.1021/acs.jctc.7b00174)


                         Additional Contributions by
    P. Kraus, H. Kruse, M. H. Lechner, M. C. Schieber, and R. A. Shaw

    -----------------------------------------------------------------------


    Psi4 started on: Saturday, 29 September 2018 04:27PM

    Process ID: 26780
    Host:       loro.prib.upf.edu
    PSIDATADIR: /shared/joao/test_parameterize/miniconda3/share/psi4
    Memory:     500.0 MiB
    Threads:    1
    
  ==> Input File <==

--------------------------------------------------------------------------
set_num_threads(1)
set_memory('5348 MB')

set { scf_mem_safety_factor 0.7 }

set { reference rks }
set { basis cc-pVDZ }

molecule MOL {
    0 1
    noreorient
    nocom
    symmetry c1
    O    1.014300  -0.002300   0.060500
    O    2.462400  -0.107500  -0.002400
    H    0.821200  -0.823600  -0.430600
    H    2.559514   0.230508  -0.912980
}

set optking { frozen_dihedral = (" 3 1 2 4 ") }

energy, wfn = energy('B3LYP-D3', return_wfn=True)

import os
os.chdir(os.environ['HTMD_PSI4_WORKDIR'])

oeprop(wfn, 'DIPOLE', 'QUADRUPOLE', 'MULLIKEN_CHARGES')

with open('psi4out.xyz', 'w') as f:
    f.write('4 ' )
    f.write('%.12f\n' % energy)
    f.write(MOL.save_string_xyz())
--------------------------------------------------------------------------
  Threads set to 1 by Python driver.

  Memory set to   4.981 GiB by Python driver.

*** tstart() called on loro.prib.upf.edu
*** at Sat Sep 29 16:27:20 2018

   => Loading Basis Set <=

    Name: CC-PVDZ
    Role: ORBITAL
    Keyword: BASIS
    atoms 1-2 entry O          line   198 file /shared/joao/test_parameterize/miniconda3/share/psi4/basis/cc-pvdz.gbs 
    atoms 3-4 entry H          line    22 file /shared/joao/test_parameterize/miniconda3/share/psi4/basis/cc-pvdz.gbs 


         ---------------------------------------------------------
                                   SCF
            by Justin Turney, Rob Parrish, Andy Simmonett
                             and Daniel Smith
                              RKS Reference
                        1 Threads,   5100 MiB Core
         ---------------------------------------------------------

  ==> Geometry <==

    Molecular point group: c1
    Full point group: C1

    Geometry (in Angstrom), charge = 0, multiplicity = 1:

       Center              X                  Y                   Z               Mass       
    ------------   -----------------  -----------------  -----------------  -----------------
         O            1.014300000000    -0.002300000000     0.060500000000    15.994914619560
         O            2.462400000000    -0.107500000000    -0.002400000000    15.994914619560
         H            0.821200000000    -0.823600000000    -0.430600000000     1.007825032070
         H            2.559514000000     0.230508000000    -0.912980000000     1.007825032070

  Running in c1 symmetry.

  Rotational constants: A =      9.25528  B =      0.13857  C =      0.13819 [cm^-1]
  Rotational constants: A = 277466.27835  B =   4154.34632  C =   4142.92160 [MHz]
  Nuclear repulsion =   36.829659607857316

  Charge       = 0
  Multiplicity = 1
  Electrons    = 18
  Nalpha       = 9
  Nbeta        = 9

  ==> Algorithm <==

  SCF Algorithm Type is DF.
  DIIS enabled.
  MOM disabled.
  Fractional occupation disabled.
  Guess Type is SAD.
  Energy threshold   = 1.00e-06
  Density threshold  = 1.00e-06
  Integral threshold = 0.00e+00

  ==> Primary Basis <==

  Basis Set: CC-PVDZ
    Blend: CC-PVDZ
    Number of shells: 18
    Number of basis function: 38
    Number of Cartesian functions: 40
    Spherical Harmonics?: true
    Max angular momentum: 2

  ==> DFT Potential <==

   => Composite Functional: B3LYP-D3ZERO <= 

    B3LYP-d3zero Hyb-GGA Exchange-Correlation Functional

    P. J. Stephens, F. J. Devlin, C. F. Chabalowski, and M. J. Frisch, J. Phys. Chem. 98, 11623 (1994)

    Deriv               =              1
    GGA                 =           TRUE
    Meta                =          FALSE

    Exchange Hybrid     =           TRUE
    MP2 Hybrid          =          FALSE

   => Exchange Functionals <=

    0.0800   Slater exchange
    0.7200         Becke 88

   => Exact (HF) Exchange <=

    0.2000               HF 

   => Correlation Functionals <=

    0.1900   Vosko, Wilk & Nusair (VWN5_RPA)
    0.8100   Lee, Yang & Parr

   => Molecular Quadrature <=

    Radial Scheme       =       TREUTLER
    Pruning Scheme      =           FLAT
    Nuclear Scheme      =       TREUTLER

    BS radius alpha     =              1
    Pruning alpha       =              1
    Radial Points       =             75
    Spherical Points    =            302
    Total Points        =          88300
    Total Blocks        =            717
    Max Points          =            256
    Max Functions       =             38

   => -D3ZERO: Empirical Dispersion <=

    Grimme's -D3 (zero-damping) Dispersion Correction
    Grimme S.; Antony J.; Ehrlich S.; Krieg H. (2010), J. Chem. Phys., 132: 154104

        S6 =   1.000000E+00
        S8 =   1.703000E+00
       SR6 =   1.261000E+00
       SR8 =   1.000000E+00
    ALPHA6 =   1.400000E+01

   => Loading Basis Set <=

    Name: (CC-PVDZ AUX)
    Role: JKFIT
    Keyword: DF_BASIS_SCF
    atoms 1-2 entry O          line   221 file /shared/joao/test_parameterize/miniconda3/share/psi4/basis/cc-pvdz-jkfit.gbs 
    atoms 3-4 entry H          line    51 file /shared/joao/test_parameterize/miniconda3/share/psi4/basis/cc-pvdz-jkfit.gbs 

  ==> Pre-Iterations <==

   -------------------------------------------------------
    Irrep   Nso     Nmo     Nalpha   Nbeta   Ndocc  Nsocc
   -------------------------------------------------------
     A         38      38       0       0       0       0
   -------------------------------------------------------
    Total      38      38       9       9       9       0
   -------------------------------------------------------

  ==> Integral Setup <==

  DFHelper Memory: AOs need 0.003 [GiB]; user supplied 3.486 [GiB]. Using in-core AOs.

  ==> MemDFJK: Density-Fitted J/K Matrices <==

    J tasked:                   Yes
    K tasked:                   Yes
    wK tasked:                   No
    OpenMP threads:               1
    Memory (MB):               3570
    Algorithm:                 Core
    Schwarz Cutoff:           1E-12
    Mask sparsity (%):       0.0000
    Fitting Condition:        1E-12

   => Auxiliary Basis Set <=

  Basis Set: (CC-PVDZ AUX)
    Blend: CC-PVDZ-JKFIT
    Number of shells: 66
    Number of basis function: 186
    Number of Cartesian functions: 212
    Spherical Harmonics?: true
    Max angular momentum: 3

  Minimum eigenvalue in the overlap matrix is 2.5948637198E-02.
  Using Symmetric Orthogonalization.

  SCF Guess: Superposition of Atomic Densities via on-the-fly atomic UHF.

  ==> Iterations <==

                           Total Energy        Delta E     RMS |[F,P]|

   @DF-RKS iter   0:  -151.65209146446082   -1.51652e+02   4.89911e-02 
   @DF-RKS iter   1:  -151.50728805598860    1.44803e-01   8.18298e-03 
   @DF-RKS iter   2:  -151.50772330150309   -4.35246e-04   8.56209e-03 DIIS
   @DF-RKS iter   3:  -151.54678272253130   -3.90594e-02   1.05134e-03 DIIS
   @DF-RKS iter   4:  -151.54721211271769   -4.29390e-04   5.16624e-04 DIIS
   @DF-RKS iter   5:  -151.54733981710950   -1.27704e-04   1.58236e-04 DIIS
   @DF-RKS iter   6:  -151.54735308021097   -1.32631e-05   6.78696e-06 DIIS
   @DF-RKS iter   7:  -151.54735312337817   -4.31672e-08   1.63213e-06 DIIS
   @DF-RKS iter   8:  -151.54735312547456   -2.09639e-09   2.32860e-07 DIIS

  ==> Post-Iterations <==

    Orbital Energies [Eh]
    ---------------------

    Doubly Occupied:                                                      

       1A    -19.190357     2A    -19.190317     3A     -1.116173  
       4A     -0.886923     5A     -0.532664     6A     -0.466487  
       7A     -0.421884     8A     -0.300987     9A     -0.282566  

    Virtual:                                                              

      10A      0.022830    11A      0.039249    12A      0.107817  
      13A      0.573990    14A      0.577776    15A      0.853342  
      16A      0.872968    17A      0.914683    18A      0.924123  
      19A      1.012334    20A      1.041902    21A      1.232776  
      22A      1.283643    23A      1.331606    24A      1.405031  
      25A      1.675791    26A      1.705324    27A      2.057043  
      28A      2.076077    29A      2.409651    30A      2.464047  
      31A      2.546935    32A      2.862573    33A      2.933564  
      34A      3.083310    35A      3.087156    36A      3.455820  
      37A      3.571539    38A      3.819872  

    Final Occupation by Irrep:
              A 
    DOCC [     9 ]

  Energy converged.

  @DF-RKS Final Energy:  -151.54735312547456

   => Energetics <=

    Nuclear Repulsion Energy =             36.8296596078573160
    One-Electron Energy =                -281.5935695994973003
    Two-Electron Energy =                 107.6783241095127011
    DFT Exchange-Correlation Energy =     -14.4615208733472773
    Empirical Dispersion Energy =          -0.0002463700000000
    VV10 Nonlocal Energy =                  0.0000000000000000
    Total Energy =                       -151.5473531254745865



Properties will be evaluated at   0.000000,   0.000000,   0.000000 [a0]

Properties computed using the SCF density matrix

  Nuclear Dipole Moment: [e a0]
     X:    58.9487      Y:    -2.7807      Z:    -1.6607

  Electronic Dipole Moment: [e a0]
     X:   -59.0120      Y:     2.4623      Z:     0.7370

  Dipole Moment: [e a0]
     X:    -0.0633      Y:    -0.3184      Z:    -0.9236     Total:     0.9790

  Dipole Moment: [D]
     X:    -0.1608      Y:    -0.8094      Z:    -2.3477     Total:     2.4885


*** tstop() called on loro.prib.upf.edu at Sat Sep 29 16:27:24 2018
Module time:
	user time   =       2.73 seconds =       0.05 minutes
	system time =       0.08 seconds =       0.00 minutes
	total time  =          4 seconds =       0.07 minutes
Total time:
	user time   =       2.73 seconds =       0.05 minutes
	system time =       0.08 seconds =       0.00 minutes
	total time  =          4 seconds =       0.07 minutes


Properties will be evaluated at   0.000000,   0.000000,   0.000000 [a0]
OEProp: No title given, name of density matrix used for the following properties is 'SCF density'
  Nuclear Dipole Moment: [e a0]
     X:    58.9487      Y:    -2.7807      Z:    -1.6607

  Electronic Dipole Moment: [e a0]
     X:   -59.0120      Y:     2.4623      Z:     0.7370

  Dipole Moment: [e a0]
     X:    -0.0633      Y:    -0.3184      Z:    -0.9236     Total:     0.9790

  Dipole Moment: [D]
     X:    -0.1608      Y:    -0.8094      Z:    -2.3477     Total:     2.4885

  Quadrupole Moment: [D A]
    XX:   -11.6882     YY:   -10.6140     ZZ:    -9.9310
    XY:     0.5342     XZ:    -4.6587     YZ:     0.2954

  Traceless Quadrupole Moment: [D A]
    XX:    -0.9438     YY:     0.1304     ZZ:     0.8134
    XY:     0.5342     XZ:    -4.6587     YZ:     0.2954

  Mulliken Charges: (a.u.)
   Center  Symbol    Alpha    Beta     Spin     Total
       1     O     4.08687  4.08687  0.00000 -0.17375
       2     O     4.08685  4.08685  0.00000 -0.17371
       3     H     0.41313  0.41313  0.00000  0.17375
       4     H     0.41315  0.41315  0.00000  0.17371

   Total alpha =  9.00000, Total beta =  9.00000, Total charge =  0.00000


    Psi4 stopped on: Saturday, 29 September 2018 04:27PM
    Psi4 wall time for execution: 0:00:04.10

*** Psi4 exiting successfully. Buy a developer a beer!
