
    -----------------------------------------------------------------------
          Psi4: An Open-Source Ab Initio Electronic Structure Package
                               Psi4 1.2.1 release

                         Git: Rev {HEAD} 406f4de 


    R. M. Parrish, L. A. Burns, D. G. A. Smith, A. C. Simmonett,
    A. E. DePrince III, E. G. Hohenstein, U. Bozkaya, A. Yu. Sokolov,
    R. Di Remigio, R. M. Richard, J. F. Gonthier, A. M. James,
    H. R. McAlexander, A. Kumar, M. Saitow, X. Wang, B. P. Pritchard,
    P. Verma, H. F. Schaefer III, K. Patkowski, R. A. King, E. F. Valeev,
    F. A. Evangelista, J. M. Turney, T. D. Crawford, and C. D. Sherrill,
    J. Chem. Theory Comput. 13(7) pp 3185--3197 (2017).
    (doi: 10.1021/acs.jctc.7b00174)


                         Additional Contributions by
    P. Kraus, H. Kruse, M. H. Lechner, M. C. Schieber, and R. A. Shaw

    -----------------------------------------------------------------------


    Psi4 started on: Saturday, 29 September 2018 05:10PM

    Process ID: 13692
    Host:       loro.prib.upf.edu
    PSIDATADIR: /shared/joao/test_parameterize/miniconda3/share/psi4
    Memory:     500.0 MiB
    Threads:    1
    
  ==> Input File <==

--------------------------------------------------------------------------
set_num_threads(1)
set_memory('5348 MB')

set { scf_mem_safety_factor 0.7 }

set { reference rks }
set { basis cc-pVDZ }

molecule MOL {
    0 1
    noreorient
    nocom
    symmetry c1
    O    1.050400   0.042900  -0.048100
    C    2.474100   0.047400  -0.029000
    C    3.002600  -1.068900  -0.932000
    N    4.462700  -1.072400  -1.006800
    H    0.760400   0.728400   0.578000
    H    2.809900  -0.097900   1.003200
    H    2.817400   1.026800  -0.378600
    H    2.581000  -0.963300  -1.938400
    H    2.653800  -2.036400  -0.553400
    H    4.807685  -2.014645  -0.826131
    H    4.831136  -0.491413  -0.253832
}

set optking { frozen_dihedral = (" 2 3 4 10 ") }

energy, wfn = energy('B3LYP-D3', return_wfn=True)

import os
os.chdir(os.environ['HTMD_PSI4_WORKDIR'])

oeprop(wfn, 'DIPOLE', 'QUADRUPOLE', 'MULLIKEN_CHARGES')

with open('psi4out.xyz', 'w') as f:
    f.write('11 ' )
    f.write('%.12f\n' % energy)
    f.write(MOL.save_string_xyz())
--------------------------------------------------------------------------
  Threads set to 1 by Python driver.

  Memory set to   4.981 GiB by Python driver.

*** tstart() called on loro.prib.upf.edu
*** at Sat Sep 29 17:10:06 2018

   => Loading Basis Set <=

    Name: CC-PVDZ
    Role: ORBITAL
    Keyword: BASIS
    atoms 1    entry O          line   198 file /shared/joao/test_parameterize/miniconda3/share/psi4/basis/cc-pvdz.gbs 
    atoms 2-3  entry C          line   138 file /shared/joao/test_parameterize/miniconda3/share/psi4/basis/cc-pvdz.gbs 
    atoms 4    entry N          line   168 file /shared/joao/test_parameterize/miniconda3/share/psi4/basis/cc-pvdz.gbs 
    atoms 5-11 entry H          line    22 file /shared/joao/test_parameterize/miniconda3/share/psi4/basis/cc-pvdz.gbs 


         ---------------------------------------------------------
                                   SCF
            by Justin Turney, Rob Parrish, Andy Simmonett
                             and Daniel Smith
                              RKS Reference
                        1 Threads,   5100 MiB Core
         ---------------------------------------------------------

  ==> Geometry <==

    Molecular point group: c1
    Full point group: C1

    Geometry (in Angstrom), charge = 0, multiplicity = 1:

       Center              X                  Y                   Z               Mass       
    ------------   -----------------  -----------------  -----------------  -----------------
         O            1.050400000000     0.042900000000    -0.048100000000    15.994914619560
         C            2.474100000000     0.047400000000    -0.029000000000    12.000000000000
         C            3.002600000000    -1.068900000000    -0.932000000000    12.000000000000
         N            4.462700000000    -1.072400000000    -1.006800000000    14.003074004780
         H            0.760400000000     0.728400000000     0.578000000000     1.007825032070
         H            2.809900000000    -0.097900000000     1.003200000000     1.007825032070
         H            2.817400000000     1.026800000000    -0.378600000000     1.007825032070
         H            2.581000000000    -0.963300000000    -1.938400000000     1.007825032070
         H            2.653800000000    -2.036400000000    -0.553400000000     1.007825032070
         H            4.807685000000    -2.014645000000    -0.826131000000     1.007825032070
         H            4.831136000000    -0.491413000000    -0.253832000000     1.007825032070

  Running in c1 symmetry.

  Rotational constants: A =      0.72436  B =      0.02774  C =      0.02703 [cm^-1]
  Rotational constants: A =  21715.79353  B =    831.60122  C =    810.47793 [MHz]
  Nuclear repulsion =  130.721105174735300

  Charge       = 0
  Multiplicity = 1
  Electrons    = 34
  Nalpha       = 17
  Nbeta        = 17

  ==> Algorithm <==

  SCF Algorithm Type is DF.
  DIIS enabled.
  MOM disabled.
  Fractional occupation disabled.
  Guess Type is SAD.
  Energy threshold   = 1.00e-06
  Density threshold  = 1.00e-06
  Integral threshold = 0.00e+00

  ==> Primary Basis <==

  Basis Set: CC-PVDZ
    Blend: CC-PVDZ
    Number of shells: 45
    Number of basis function: 91
    Number of Cartesian functions: 95
    Spherical Harmonics?: true
    Max angular momentum: 2

  ==> DFT Potential <==

   => Composite Functional: B3LYP-D3ZERO <= 

    B3LYP-d3zero Hyb-GGA Exchange-Correlation Functional

    P. J. Stephens, F. J. Devlin, C. F. Chabalowski, and M. J. Frisch, J. Phys. Chem. 98, 11623 (1994)

    Deriv               =              1
    GGA                 =           TRUE
    Meta                =          FALSE

    Exchange Hybrid     =           TRUE
    MP2 Hybrid          =          FALSE

   => Exchange Functionals <=

    0.0800   Slater exchange
    0.7200         Becke 88

   => Exact (HF) Exchange <=

    0.2000               HF 

   => Correlation Functionals <=

    0.1900   Vosko, Wilk & Nusair (VWN5_RPA)
    0.8100   Lee, Yang & Parr

   => Molecular Quadrature <=

    Radial Scheme       =       TREUTLER
    Pruning Scheme      =           FLAT
    Nuclear Scheme      =       TREUTLER

    BS radius alpha     =              1
    Pruning alpha       =              1
    Radial Points       =             75
    Spherical Points    =            302
    Total Points        =         245079
    Total Blocks        =           1885
    Max Points          =            256
    Max Functions       =             91

   => -D3ZERO: Empirical Dispersion <=

    Grimme's -D3 (zero-damping) Dispersion Correction
    Grimme S.; Antony J.; Ehrlich S.; Krieg H. (2010), J. Chem. Phys., 132: 154104

        S6 =   1.000000E+00
        S8 =   1.703000E+00
       SR6 =   1.261000E+00
       SR8 =   1.000000E+00
    ALPHA6 =   1.400000E+01

   => Loading Basis Set <=

    Name: (CC-PVDZ AUX)
    Role: JKFIT
    Keyword: DF_BASIS_SCF
    atoms 1    entry O          line   221 file /shared/joao/test_parameterize/miniconda3/share/psi4/basis/cc-pvdz-jkfit.gbs 
    atoms 2-3  entry C          line   121 file /shared/joao/test_parameterize/miniconda3/share/psi4/basis/cc-pvdz-jkfit.gbs 
    atoms 4    entry N          line   171 file /shared/joao/test_parameterize/miniconda3/share/psi4/basis/cc-pvdz-jkfit.gbs 
    atoms 5-11 entry H          line    51 file /shared/joao/test_parameterize/miniconda3/share/psi4/basis/cc-pvdz-jkfit.gbs 

  ==> Pre-Iterations <==

   -------------------------------------------------------
    Irrep   Nso     Nmo     Nalpha   Nbeta   Ndocc  Nsocc
   -------------------------------------------------------
     A         91      91       0       0       0       0
   -------------------------------------------------------
    Total      91      91      17      17      17       0
   -------------------------------------------------------

  ==> Integral Setup <==

  DFHelper Memory: AOs need 0.036 [GiB]; user supplied 3.486 [GiB]. Using in-core AOs.

  ==> MemDFJK: Density-Fitted J/K Matrices <==

    J tasked:                   Yes
    K tasked:                   Yes
    wK tasked:                   No
    OpenMP threads:               1
    Memory (MB):               3570
    Algorithm:                 Core
    Schwarz Cutoff:           1E-12
    Mask sparsity (%):       0.4347
    Fitting Condition:        1E-12

   => Auxiliary Basis Set <=

  Basis Set: (CC-PVDZ AUX)
    Blend: CC-PVDZ-JKFIT
    Number of shells: 159
    Number of basis function: 441
    Number of Cartesian functions: 499
    Spherical Harmonics?: true
    Max angular momentum: 3

  Minimum eigenvalue in the overlap matrix is 4.5080991384E-03.
  Using Symmetric Orthogonalization.

  SCF Guess: Superposition of Atomic Densities via on-the-fly atomic UHF.

  ==> Iterations <==

                           Total Energy        Delta E     RMS |[F,P]|

   @DF-RKS iter   0:  -210.84151868312551   -2.10842e+02   3.66136e-02 
   @DF-RKS iter   1:  -210.21724805802754    6.24271e-01   6.94833e-03 
   @DF-RKS iter   2:  -210.07357424626437    1.43674e-01   9.57866e-03 DIIS
   @DF-RKS iter   3:  -210.38641604232515   -3.12842e-01   5.89863e-04 DIIS
   @DF-RKS iter   4:  -210.38717512979002   -7.59087e-04   3.63900e-04 DIIS
   @DF-RKS iter   5:  -210.38764726354759   -4.72134e-04   4.60163e-05 DIIS
   @DF-RKS iter   6:  -210.38765278079811   -5.51725e-06   2.31824e-05 DIIS
   @DF-RKS iter   7:  -210.38765473437991   -1.95358e-06   1.95023e-06 DIIS
   @DF-RKS iter   8:  -210.38765474820582   -1.38259e-08   6.86582e-07 DIIS

  ==> Post-Iterations <==

    Orbital Energies [Eh]
    ---------------------

    Doubly Occupied:                                                      

       1A    -19.130524     2A    -14.303963     3A    -10.229566  
       4A    -10.201166     5A     -1.012991     6A     -0.877737  
       7A     -0.712652     8A     -0.603697     9A     -0.509086  
      10A     -0.481376    11A     -0.464865    12A     -0.411341  
      13A     -0.385682    14A     -0.369801    15A     -0.326640  
      16A     -0.264600    17A     -0.229853  

    Virtual:                                                              

      18A      0.048374    19A      0.056708    20A      0.097900  
      21A      0.112623    22A      0.123578    23A      0.145132  
      24A      0.177777    25A      0.217034    26A      0.239989  
      27A      0.258530    28A      0.436621    29A      0.444548  
      30A      0.488394    31A      0.524573    32A      0.564610  
      33A      0.591138    34A      0.603208    35A      0.621048  
      36A      0.631804    37A      0.644806    38A      0.656993  
      39A      0.660707    40A      0.685898    41A      0.824673  
      42A      0.844402    43A      0.854636    44A      0.914139  
      45A      0.944868    46A      0.970019    47A      0.993396  
      48A      1.059937    49A      1.154750    50A      1.211480  
      51A      1.224518    52A      1.248864    53A      1.344511  
      54A      1.378494    55A      1.443111    56A      1.476625  
      57A      1.534344    58A      1.591162    59A      1.597034  
      60A      1.626378    61A      1.652204    62A      1.661196  
      63A      1.691188    64A      1.713731    65A      1.750708  
      66A      1.780940    67A      1.824343    68A      1.857888  
      69A      1.903019    70A      1.965610    71A      2.013614  
      72A      2.034644    73A      2.061020    74A      2.133794  
      75A      2.161502    76A      2.204337    77A      2.291892  
      78A      2.380267    79A      2.418378    80A      2.435092  
      81A      2.499710    82A      2.551116    83A      2.592272  
      84A      2.656730    85A      2.821016    86A      2.954867  
      87A      2.999959    88A      3.044418    89A      3.103840  
      90A      3.207537    91A      3.692071  

    Final Occupation by Irrep:
              A 
    DOCC [    17 ]

  Energy converged.

  @DF-RKS Final Energy:  -210.38765474820582

   => Energetics <=

    Nuclear Repulsion Energy =            130.7211051747352997
    One-Electron Energy =                -544.3035826404103545
    Two-Electron Energy =                 226.6874534176944280
    DFT Exchange-Correlation Energy =     -23.4877112802251666
    Empirical Dispersion Energy =          -0.0049194200000000
    VV10 Nonlocal Energy =                  0.0000000000000000
    Total Energy =                       -210.3876547482058186



Properties will be evaluated at   0.000000,   0.000000,   0.000000 [a0]

Properties computed using the SCF density matrix

  Nuclear Dipole Moment: [e a0]
     X:   177.1876      Y:   -32.3919      Z:   -29.4184

  Electronic Dipole Moment: [e a0]
     X:  -176.9882      Y:    32.5704      Z:    30.2499

  Dipole Moment: [e a0]
     X:     0.1994      Y:     0.1785      Z:     0.8314     Total:     0.8735

  Dipole Moment: [D]
     X:     0.5068      Y:     0.4538      Z:     2.1133     Total:     2.2201


*** tstop() called on loro.prib.upf.edu at Sat Sep 29 17:10:23 2018
Module time:
	user time   =      15.18 seconds =       0.25 minutes
	system time =       0.22 seconds =       0.00 minutes
	total time  =         17 seconds =       0.28 minutes
Total time:
	user time   =      15.18 seconds =       0.25 minutes
	system time =       0.22 seconds =       0.00 minutes
	total time  =         17 seconds =       0.28 minutes


Properties will be evaluated at   0.000000,   0.000000,   0.000000 [a0]
OEProp: No title given, name of density matrix used for the following properties is 'SCF density'
  Nuclear Dipole Moment: [e a0]
     X:   177.1876      Y:   -32.3919      Z:   -29.4184

  Electronic Dipole Moment: [e a0]
     X:  -176.9882      Y:    32.5704      Z:    30.2499

  Dipole Moment: [e a0]
     X:     0.1994      Y:     0.1785      Z:     0.8314     Total:     0.8735

  Dipole Moment: [D]
     X:     0.5068      Y:     0.4538      Z:     2.1133     Total:     2.2201

  Quadrupole Moment: [D A]
    XX:   -24.4044     YY:   -22.3192     ZZ:   -27.6522
    XY:    -2.1070     XZ:     6.6817     YZ:     0.5906

  Traceless Quadrupole Moment: [D A]
    XX:     0.3875     YY:     2.4727     ZZ:    -2.8602
    XY:    -2.1070     XZ:     6.6817     YZ:     0.5906

  Mulliken Charges: (a.u.)
   Center  Symbol    Alpha    Beta     Spin     Total
       1     O     4.13727  4.13727  0.00000 -0.27454
       2     C     2.94259  2.94259  0.00000  0.11482
       3     C     2.97786  2.97786  0.00000  0.04428
       4     N     3.59146  3.59146  0.00000 -0.18293
       5     H     0.43019  0.43019  0.00000  0.13962
       6     H     0.50359  0.50359  0.00000 -0.00718
       7     H     0.49720  0.49720  0.00000  0.00560
       8     H     0.48991  0.48991  0.00000  0.02019
       9     H     0.49782  0.49782  0.00000  0.00436
      10     H     0.46270  0.46270  0.00000  0.07459
      11     H     0.46940  0.46940  0.00000  0.06119

   Total alpha = 17.00000, Total beta = 17.00000, Total charge = -0.00000


    Psi4 stopped on: Saturday, 29 September 2018 05:10PM
    Psi4 wall time for execution: 0:00:17.52

*** Psi4 exiting successfully. Buy a developer a beer!
