
    -----------------------------------------------------------------------
          Psi4: An Open-Source Ab Initio Electronic Structure Package
                               Psi4 1.2.1 release

                         Git: Rev {HEAD} 406f4de 


    R. M. Parrish, L. A. Burns, D. G. A. Smith, A. C. Simmonett,
    A. E. DePrince III, E. G. Hohenstein, U. Bozkaya, A. Yu. Sokolov,
    R. Di Remigio, R. M. Richard, J. F. Gonthier, A. M. James,
    H. R. McAlexander, A. Kumar, M. Saitow, X. Wang, B. P. Pritchard,
    P. Verma, H. F. Schaefer III, K. Patkowski, R. A. King, E. F. Valeev,
    F. A. Evangelista, J. M. Turney, T. D. Crawford, and C. D. Sherrill,
    J. Chem. Theory Comput. 13(7) pp 3185--3197 (2017).
    (doi: 10.1021/acs.jctc.7b00174)


                         Additional Contributions by
    P. Kraus, H. Kruse, M. H. Lechner, M. C. Schieber, and R. A. Shaw

    -----------------------------------------------------------------------


    Psi4 started on: Saturday, 29 September 2018 08:51PM

    Process ID: 4529
    Host:       rosa.prib.upf.edu
    PSIDATADIR: /shared/joao/test_parameterize/miniconda3/share/psi4
    Memory:     500.0 MiB
    Threads:    1
    
  ==> Input File <==

--------------------------------------------------------------------------
set_num_threads(4)
set_memory('3000 MB')

set { scf_mem_safety_factor 0.7 }

set { reference rks }
set { basis 6-31G* }

molecule MOL {
    1 1
    noreorient
    nocom
    symmetry c1
    C   -0.000000  -0.000000  -0.177864
    C    0.036678   1.219374   0.524165
    C    0.031765   1.213120   1.915444
    C    0.000000   0.000000   2.610107
    C   -0.031765  -1.213120   1.915444
    C   -0.036678  -1.219375   0.524165
    C   -0.000000   0.000000  -1.644734
    H    0.018170   2.164705  -0.010854
    H    0.042402   2.152895   2.457886
    H    0.000000   0.000000   3.695756
    H   -0.042402  -2.152895   2.457886
    H   -0.018170  -2.164705  -0.010853
    N    0.714007  -0.904833  -2.308461
    N   -0.714007   0.904833  -2.308460
    H   -0.820900   0.890290  -3.315997
    H   -1.122369   1.686726  -1.813316
    H    1.122369  -1.686726  -1.813317
    H    0.820900  -0.890289  -3.315997
}

set optking { frozen_dihedral = (" 2 1 7 13 ") }

set optking { dynamic_level = 1 
 geom_maxiter = 250
 print_trajectory_xyz_file = True }

energy, wfn = optimize('B3LYP-D3', return_wfn=True)

import os
os.chdir(os.environ['HTMD_PSI4_WORKDIR'])

oeprop(wfn, 'DIPOLE', 'QUADRUPOLE', 'MULLIKEN_CHARGES')

with open('psi4out.xyz', 'w') as f:
    f.write('18 ' )
    f.write('%.12f\n' % energy)
    f.write(MOL.save_string_xyz())
--------------------------------------------------------------------------
  Threads set to 4 by Python driver.

  Memory set to   2.794 GiB by Python driver.
gradient() will perform analytic gradient computation.

*** tstart() called on rosa.prib.upf.edu
*** at Sat Sep 29 20:51:22 2018

   => Loading Basis Set <=

    Name: 6-31G*
    Role: ORBITAL
    Keyword: BASIS
    atoms 1-7         entry C          line   111 file /shared/joao/test_parameterize/miniconda3/share/psi4/basis/6-31gs.gbs 
    atoms 8-12, 15-18 entry H          line    44 file /shared/joao/test_parameterize/miniconda3/share/psi4/basis/6-31gs.gbs 
    atoms 13-14       entry N          line   128 file /shared/joao/test_parameterize/miniconda3/share/psi4/basis/6-31gs.gbs 


         ---------------------------------------------------------
                                   SCF
            by Justin Turney, Rob Parrish, Andy Simmonett
                             and Daniel Smith
                              RKS Reference
                        4 Threads,   2861 MiB Core
         ---------------------------------------------------------

  ==> Geometry <==

    Molecular point group: c1
    Full point group: C1

    Geometry (in Angstrom), charge = 1, multiplicity = 1:

       Center              X                  Y                   Z               Mass       
    ------------   -----------------  -----------------  -----------------  -----------------
         C            0.000000000000     0.000000000000    -0.177864000000    12.000000000000
         C            0.036678000000     1.219374000000     0.524165000000    12.000000000000
         C            0.031765000000     1.213120000000     1.915444000000    12.000000000000
         C            0.000000000000     0.000000000000     2.610107000000    12.000000000000
         C           -0.031765000000    -1.213120000000     1.915444000000    12.000000000000
         C           -0.036678000000    -1.219375000000     0.524165000000    12.000000000000
         C            0.000000000000     0.000000000000    -1.644734000000    12.000000000000
         H            0.018170000000     2.164705000000    -0.010854000000     1.007825032070
         H            0.042402000000     2.152895000000     2.457886000000     1.007825032070
         H            0.000000000000     0.000000000000     3.695756000000     1.007825032070
         H           -0.042402000000    -2.152895000000     2.457886000000     1.007825032070
         H           -0.018170000000    -2.164705000000    -0.010853000000     1.007825032070
         N            0.714007000000    -0.904833000000    -2.308461000000    14.003074004780
         N           -0.714007000000     0.904833000000    -2.308460000000    14.003074004780
         H           -0.820900000000     0.890290000000    -3.315997000000     1.007825032070
         H           -1.122369000000     1.686726000000    -1.813316000000     1.007825032070
         H            1.122369000000    -1.686726000000    -1.813317000000     1.007825032070
         H            0.820900000000    -0.890289000000    -3.315997000000     1.007825032070

  Running in c1 symmetry.

  Rotational constants: A =      0.12190  B =      0.03946  C =      0.03136 [cm^-1]
  Rotational constants: A =   3654.48807  B =   1182.86874  C =    940.27214 [MHz]
  Nuclear repulsion =  416.921289779880965

  Charge       = 1
  Multiplicity = 1
  Electrons    = 64
  Nalpha       = 32
  Nbeta        = 32

  ==> Algorithm <==

  SCF Algorithm Type is DF.
  DIIS enabled.
  MOM disabled.
  Fractional occupation disabled.
  Guess Type is SAD.
  Energy threshold   = 1.00e-08
  Density threshold  = 1.00e-08
  Integral threshold = 0.00e+00

  ==> Primary Basis <==

  Basis Set: 6-31G*
    Blend: 6-31G*
    Number of shells: 72
    Number of basis function: 153
    Number of Cartesian functions: 153
    Spherical Harmonics?: false
    Max angular momentum: 2

  ==> DFT Potential <==

   => Composite Functional: B3LYP-D3ZERO <= 

    B3LYP-d3zero Hyb-GGA Exchange-Correlation Functional

    P. J. Stephens, F. J. Devlin, C. F. Chabalowski, and M. J. Frisch, J. Phys. Chem. 98, 11623 (1994)

    Deriv               =              1
    GGA                 =           TRUE
    Meta                =          FALSE

    Exchange Hybrid     =           TRUE
    MP2 Hybrid          =          FALSE

   => Exchange Functionals <=

    0.0800   Slater exchange
    0.7200         Becke 88

   => Exact (HF) Exchange <=

    0.2000               HF 

   => Correlation Functionals <=

    0.1900   Vosko, Wilk & Nusair (VWN5_RPA)
    0.8100   Lee, Yang & Parr

   => Molecular Quadrature <=

    Radial Scheme       =       TREUTLER
    Pruning Scheme      =           FLAT
    Nuclear Scheme      =       TREUTLER

    BS radius alpha     =              1
    Pruning alpha       =              1
    Radial Points       =             75
    Spherical Points    =            302
    Total Points        =         396864
    Total Blocks        =           2987
    Max Points          =            256
    Max Functions       =            149

   => -D3ZERO: Empirical Dispersion <=

    Grimme's -D3 (zero-damping) Dispersion Correction
    Grimme S.; Antony J.; Ehrlich S.; Krieg H. (2010), J. Chem. Phys., 132: 154104

        S6 =   1.000000E+00
        S8 =   1.703000E+00
       SR6 =   1.261000E+00
       SR8 =   1.000000E+00
    ALPHA6 =   1.400000E+01

   => Loading Basis Set <=

    Name: (6-31G* AUX)
    Role: JKFIT
    Keyword: DF_BASIS_SCF
    atoms 1-7         entry C          line   121 file /shared/joao/test_parameterize/miniconda3/share/psi4/basis/cc-pvdz-jkfit.gbs 
    atoms 8-12, 15-18 entry H          line    51 file /shared/joao/test_parameterize/miniconda3/share/psi4/basis/cc-pvdz-jkfit.gbs 
    atoms 13-14       entry N          line   171 file /shared/joao/test_parameterize/miniconda3/share/psi4/basis/cc-pvdz-jkfit.gbs 

  ==> Pre-Iterations <==

   -------------------------------------------------------
    Irrep   Nso     Nmo     Nalpha   Nbeta   Ndocc  Nsocc
   -------------------------------------------------------
     A        153     153       0       0       0       0
   -------------------------------------------------------
    Total     153     153      32      32      32       0
   -------------------------------------------------------

  ==> Integral Setup <==

  ==> DiskDFJK: Density-Fitted J/K Matrices <==

    J tasked:                  Yes
    K tasked:                  Yes
    wK tasked:                  No
    OpenMP threads:              4
    Integrals threads:           4
    Memory (MB):              2002
    Algorithm:                Core
    Integral Cache:           NONE
    Schwarz Cutoff:          1E-12
    Fitting Condition:       1E-12

   => Auxiliary Basis Set <=

  Basis Set: (6-31G* AUX)
    Blend: CC-PVDZ-JKFIT
    Number of shells: 297
    Number of basis function: 954
    Number of Cartesian functions: 954
    Spherical Harmonics?: false
    Max angular momentum: 3

  Minimum eigenvalue in the overlap matrix is 4.8497089667E-04.
  Using Symmetric Orthogonalization.

  SCF Guess: Superposition of Atomic Densities via on-the-fly atomic UHF.

  ==> Iterations <==

                           Total Energy        Delta E     RMS |[F,P]|

   @DF-RKS iter   0:  -379.48132650655953   -3.79481e+02   6.76032e-02 
   @DF-RKS iter   1:  -381.00792640550600   -1.52660e+00   1.24875e-02 
   @DF-RKS iter   2:  -380.89525317089044    1.12673e-01   1.39811e-02 DIIS
   @DF-RKS iter   3:  -381.45393753487463   -5.58684e-01   2.07669e-03 DIIS
   @DF-RKS iter   4:  -381.46305522004991   -9.11769e-03   9.01987e-04 DIIS
   @DF-RKS iter   5:  -381.46508288843717   -2.02767e-03   2.52335e-04 DIIS
   @DF-RKS iter   6:  -381.46523719849313   -1.54310e-04   8.10368e-05 DIIS
   @DF-RKS iter   7:  -381.46525434847626   -1.71500e-05   1.93651e-05 DIIS
   @DF-RKS iter   8:  -381.46525541381806   -1.06534e-06   7.22224e-06 DIIS
   @DF-RKS iter   9:  -381.46525557975593   -1.65938e-07   2.19450e-06 DIIS
   @DF-RKS iter  10:  -381.46525559318553   -1.34296e-08   6.13109e-07 DIIS
   @DF-RKS iter  11:  -381.46525559424077   -1.05524e-09   1.22954e-07 DIIS
   @DF-RKS iter  12:  -381.46525559426857   -2.77964e-11   8.57207e-08 DIIS
   @DF-RKS iter  13:  -381.46525559429313   -2.45564e-11   1.55490e-08 DIIS
   @DF-RKS iter  14:  -381.46525559429460   -1.47793e-12   7.70307e-09 DIIS

  ==> Post-Iterations <==

    Orbital Energies [Eh]
    ---------------------

    Doubly Occupied:                                                      

       1A    -14.569926     2A    -14.569919     3A    -10.500217  
       4A    -10.374124     5A    -10.356999     6A    -10.356990  
       7A    -10.341422     8A    -10.340378     9A    -10.340239  
      10A     -1.186032    11A     -1.094059    12A     -1.014485  
      13A     -0.927143    14A     -0.902683    15A     -0.847012  
      16A     -0.786934    17A     -0.775408    18A     -0.742528  
      19A     -0.734557    20A     -0.690344    21A     -0.669112  
      22A     -0.628037    23A     -0.618201    24A     -0.588730  
      25A     -0.578701    26A     -0.576468    27A     -0.516449  
      28A     -0.507022    29A     -0.498659    30A     -0.472995  
      31A     -0.409074    32A     -0.405443  

    Virtual:                                                              

      33A     -0.214453    34A     -0.157221    35A     -0.137910  
      36A     -0.110921    37A     -0.073555    38A     -0.065081  
      39A     -0.038673    40A     -0.036247    41A      0.010315  
      42A      0.022591    43A      0.026049    44A      0.063190  
      45A      0.066563    46A      0.080278    47A      0.122546  
      48A      0.153640    49A      0.156840    50A      0.163857  
      51A      0.209293    52A      0.238072    53A      0.297807  
      54A      0.347560    55A      0.352656    56A      0.376793  
      57A      0.389601    58A      0.397363    59A      0.419155  
      60A      0.423499    61A      0.445027    62A      0.448069  
      63A      0.448475    64A      0.470360    65A      0.470546  
      66A      0.475108    67A      0.483797    68A      0.502470  
      69A      0.511150    70A      0.542331    71A      0.545922  
      72A      0.581661    73A      0.611196    74A      0.649649  
      75A      0.662213    76A      0.679827    77A      0.688725  
      78A      0.705717    79A      0.716650    80A      0.729050  
      81A      0.759578    82A      0.776860    83A      0.777417  
      84A      0.798757    85A      0.816290    86A      0.845652  
      87A      0.848565    88A      0.936485    89A      0.970750  
      90A      0.993328    91A      1.001125    92A      1.024457  
      93A      1.027401    94A      1.057397    95A      1.138751  
      96A      1.181391    97A      1.231922    98A      1.273996  
      99A      1.274783   100A      1.308130   101A      1.321922  
     102A      1.341508   103A      1.359252   104A      1.369904  
     105A      1.391081   106A      1.453085   107A      1.506105  
     108A      1.616416   109A      1.620631   110A      1.650504  
     111A      1.683184   112A      1.736634   113A      1.754151  
     114A      1.801407   115A      1.820866   116A      1.857842  
     117A      1.898130   118A      1.902000   119A      1.945556  
     120A      1.977423   121A      1.994720   122A      2.020987  
     123A      2.037109   124A      2.075169   125A      2.130922  
     126A      2.135650   127A      2.154958   128A      2.186732  
     129A      2.225500   130A      2.258091   131A      2.348293  
     132A      2.366742   133A      2.441974   134A      2.449284  
     135A      2.491065   136A      2.533034   137A      2.546680  
     138A      2.589998   139A      2.607840   140A      2.630754  
     141A      2.735873   142A      2.883044   143A      2.979454  
     144A      3.257391   145A      3.634463   146A      3.659121  
     147A      3.917082   148A      3.950262   149A      3.964107  
     150A      4.058809   151A      4.173927   152A      4.257248  
     153A      4.545095  

    Final Occupation by Irrep:
              A 
    DOCC [    32 ]

  Energy converged.

  @DF-RKS Final Energy:  -381.46525559429460

   => Energetics <=

    Nuclear Repulsion Energy =            416.9212897798809649
    One-Electron Energy =               -1328.9849409703165293
    Two-Electron Energy =                 575.0159425684430516
    DFT Exchange-Correlation Energy =     -44.4057238223020647
    Empirical Dispersion Energy =          -0.0118231500000000
    VV10 Nonlocal Energy =                  0.0000000000000000
    Total Energy =                       -381.4652555942946606



Properties will be evaluated at   0.000000,   0.000000,   0.000000 [a0]

Properties computed using the SCF density matrix

  Nuclear Dipole Moment: [e a0]
     X:     0.0000      Y:    -0.0000      Z:     0.0248

  Electronic Dipole Moment: [e a0]
     X:    -0.0000      Y:     0.0000      Z:    -2.3395

  Dipole Moment: [e a0]
     X:    -0.0000      Y:     0.0000      Z:    -2.3148     Total:     2.3148

  Dipole Moment: [D]
     X:    -0.0000      Y:     0.0000      Z:    -5.8836     Total:     5.8836


*** tstop() called on rosa.prib.upf.edu at Sat Sep 29 20:51:50 2018
Module time:
	user time   =     101.05 seconds =       1.68 minutes
	system time =       0.81 seconds =       0.01 minutes
	total time  =         28 seconds =       0.47 minutes
Total time:
	user time   =     101.05 seconds =       1.68 minutes
	system time =       0.81 seconds =       0.01 minutes
	total time  =         28 seconds =       0.47 minutes

*** tstart() called on rosa.prib.upf.edu
*** at Sat Sep 29 20:51:50 2018


         ------------------------------------------------------------
                                   SCF GRAD                          
                          Rob Parrish, Justin Turney,                
                       Andy Simmonett, and Alex Sokolov              
         ------------------------------------------------------------

  ==> Geometry <==

    Molecular point group: c1
    Full point group: C1

    Geometry (in Angstrom), charge = 1, multiplicity = 1:

       Center              X                  Y                   Z               Mass       
    ------------   -----------------  -----------------  -----------------  -----------------
         C            0.000000000000     0.000000000000    -0.177864000000    12.000000000000
         C            0.036678000000     1.219374000000     0.524165000000    12.000000000000
         C            0.031765000000     1.213120000000     1.915444000000    12.000000000000
         C            0.000000000000     0.000000000000     2.610107000000    12.000000000000
         C           -0.031765000000    -1.213120000000     1.915444000000    12.000000000000
         C           -0.036678000000    -1.219375000000     0.524165000000    12.000000000000
         C            0.000000000000     0.000000000000    -1.644734000000    12.000000000000
         H            0.018170000000     2.164705000000    -0.010854000000     1.007825032070
         H            0.042402000000     2.152895000000     2.457886000000     1.007825032070
         H            0.000000000000     0.000000000000     3.695756000000     1.007825032070
         H           -0.042402000000    -2.152895000000     2.457886000000     1.007825032070
         H           -0.018170000000    -2.164705000000    -0.010853000000     1.007825032070
         N            0.714007000000    -0.904833000000    -2.308461000000    14.003074004780
         N           -0.714007000000     0.904833000000    -2.308460000000    14.003074004780
         H           -0.820900000000     0.890290000000    -3.315997000000     1.007825032070
         H           -1.122369000000     1.686726000000    -1.813316000000     1.007825032070
         H            1.122369000000    -1.686726000000    -1.813317000000     1.007825032070
         H            0.820900000000    -0.890289000000    -3.315997000000     1.007825032070

  Nuclear repulsion =  416.921289779880965

  ==> Basis Set <==

  Basis Set: 6-31G*
    Blend: 6-31G*
    Number of shells: 72
    Number of basis function: 153
    Number of Cartesian functions: 153
    Spherical Harmonics?: false
    Max angular momentum: 2

  ==> DFJKGrad: Density-Fitted SCF Gradients <==

    Gradient:                    1
    J tasked:                  Yes
    K tasked:                  Yes
    wK tasked:                  No
    OpenMP threads:              4
    Integrals threads:           4
    Memory (MB):              2002
    Schwarz Cutoff:          0E+00
    Fitting Condition:       1E-12

   => Auxiliary Basis Set <=

  Basis Set: (6-31G* AUX)
    Blend: CC-PVDZ-JKFIT
    Number of shells: 297
    Number of basis function: 954
    Number of Cartesian functions: 954
    Spherical Harmonics?: false
    Max angular momentum: 3

  ==> DFT Potential <==

   => Composite Functional: B3LYP-D3ZERO <= 

    B3LYP-d3zero Hyb-GGA Exchange-Correlation Functional

    P. J. Stephens, F. J. Devlin, C. F. Chabalowski, and M. J. Frisch, J. Phys. Chem. 98, 11623 (1994)

    Deriv               =              1
    GGA                 =           TRUE
    Meta                =          FALSE

    Exchange Hybrid     =           TRUE
    MP2 Hybrid          =          FALSE

   => Exchange Functionals <=

    0.0800   Slater exchange
    0.7200         Becke 88

   => Exact (HF) Exchange <=

    0.2000               HF 

   => Correlation Functionals <=

    0.1900   Vosko, Wilk & Nusair (VWN5_RPA)
    0.8100   Lee, Yang & Parr

   => Molecular Quadrature <=

    Radial Scheme       =       TREUTLER
    Pruning Scheme      =           FLAT
    Nuclear Scheme      =       TREUTLER

    BS radius alpha     =              1
    Pruning alpha       =              1
    Radial Points       =             75
    Spherical Points    =            302
    Total Points        =         396864
    Total Blocks        =           2987
    Max Points          =            256
    Max Functions       =            149


  -Total Gradient:
     Atom            X                  Y                   Z
    ------   -----------------  -----------------  -----------------
       1       -0.000000047708     0.000000672023    -0.004695447613
       2        0.008415467962     0.002023849072     0.001125304757
       3        0.000495051410     0.000329634201    -0.000458283504
       4       -0.000000000185    -0.000000046558     0.000193269383
       5       -0.000495043421    -0.000329404899    -0.000458148710
       6       -0.008415472604    -0.002025310740     0.001124914166
       7       -0.000000161354     0.000000165096     0.003924322921
       8       -0.004191367034    -0.000737042661    -0.000758168159
       9       -0.000923338162     0.000002241494     0.000027519620
      10       -0.000000000639     0.000000004782     0.000073337603
      11        0.000923336380    -0.000002274296     0.000027479521
      12        0.004191346877     0.000737786140    -0.000757695989
      13        0.004540981166     0.002064129963    -0.000071584301
      14       -0.004540648958    -0.002064429137    -0.000070353900
      15       -0.002959521648    -0.002048021132     0.000272613238
      16        0.004370446842     0.002501348918     0.000111733299
      17       -0.004370455362    -0.002501342711     0.000111799579
      18        0.002959426378     0.002048040550     0.000273435824


*** tstop() called on rosa.prib.upf.edu at Sat Sep 29 20:51:57 2018
Module time:
	user time   =      26.80 seconds =       0.45 minutes
	system time =       0.40 seconds =       0.01 minutes
	total time  =          7 seconds =       0.12 minutes
Total time:
	user time   =     127.91 seconds =       2.13 minutes
	system time =       1.22 seconds =       0.02 minutes
	total time  =         35 seconds =       0.58 minutes

			-----------------------------------------
			 OPTKING 2.0: for geometry optimizations 
			  - R.A. King,  Bethel University        
			-----------------------------------------
	At level 1: Red. Int., RFO, no backsteps, dynamic trust

	Internal coordinates to be generated automatically.
	Detected frag 1 with atoms:  1 2 3 4 5 6 7 8 9 10 11 12 13 14 15 16 17 18
	---Fragment 1 Bond Connectivity---
	 1 : 2 6 7
	 2 : 1 3 8
	 3 : 2 4 9
	 4 : 3 5 10
	 5 : 4 6 11
	 6 : 1 5 12
	 7 : 1 13 14
	 8 : 2
	 9 : 3
	 10 : 4
	 11 : 5
	 12 : 6
	 13 : 7 17 18
	 14 : 7 15 16
	 15 : 14
	 16 : 14
	 17 : 13
	 18 : 13

	Assuming in current code that numbering for constraints corresponds to unified fragment.
	Frozen dihedral atom list: 
	     2     1     7    13
	---Fragment 1 Geometry and Gradient---
	 C           0.0000000000        0.0000000000       -0.3361142489
	 C           0.0693113751        2.3042829136        0.9905282984
	 C           0.0600271506        2.2924645663        3.6196645829
	 C           0.0000000000        0.0000000000        4.9323874075
	 C          -0.0600271506       -2.2924645663        3.6196645829
	 C          -0.0693113751       -2.3042848033        0.9905282984
	 C           0.0000000000        0.0000000000       -3.1080968214
	 H           0.0343363238        4.0906996085       -0.0205110874
	 H           0.0801281675        4.0683819429        4.6447314059
	 H           0.0000000000        0.0000000000        6.9839666940
	 H          -0.0801281675       -4.0683819429        4.6447314059
	 H          -0.0343363238       -4.0906996085       -0.0205091977
	 N           1.3492776870       -1.7098865660       -4.3623590784
	 N          -1.3492776870        1.7098865660       -4.3623571887
	 H          -1.5512761825        1.6824042788       -6.2663261875
	 H          -2.1209700300        3.1874502012       -3.4266706324
	 H           2.1209700300       -3.1874502012       -3.4266725221
	 H           1.5512761825       -1.6824023891       -6.2663261875
	            -0.0000000477        0.0000006720       -0.0046954476
	             0.0084154680        0.0020238491        0.0011253048
	             0.0004950514        0.0003296342       -0.0004582835
	            -0.0000000002       -0.0000000466        0.0001932694
	            -0.0004950434       -0.0003294049       -0.0004581487
	            -0.0084154726       -0.0020253107        0.0011249142
	            -0.0000001614        0.0000001651        0.0039243229
	            -0.0041913670       -0.0007370427       -0.0007581682
	            -0.0009233382        0.0000022415        0.0000275196
	            -0.0000000006        0.0000000048        0.0000733376
	             0.0009233364       -0.0000022743        0.0000274795
	             0.0041913469        0.0007377861       -0.0007576960
	             0.0045409812        0.0020641300       -0.0000715843
	            -0.0045406490       -0.0020644291       -0.0000703539
	            -0.0029595216       -0.0020480211        0.0002726132
	             0.0043704468        0.0025013489        0.0001117333
	            -0.0043704554       -0.0025013427        0.0001117996
	             0.0029594264        0.0020480405        0.0002734358

	Previous optimization step data not found.  Starting new optimization.

	---Fragment 1 Intrafragment Coordinates---
	 - Coordinate -           - BOHR/RAD -       - ANG/DEG -
	 R(1,2)           =         2.659794	       1.407502
	 R(1,6)           =         2.659796	       1.407503
	 R(1,7)           =         2.771983	       1.466870
	 R(2,3)           =         2.629179	       1.391302
	 R(2,8)           =         2.052976	       1.086388
	 R(3,4)           =         2.642393	       1.398294
	 R(3,9)           =         2.050622	       1.085142
	 R(4,5)           =         2.642393	       1.398294
	 R(4,10)          =         2.051579	       1.085649
	 R(5,6)           =         2.629179	       1.391302
	 R(5,11)          =         2.050622	       1.085142
	 R(6,12)          =         2.052973	       1.086386
	 R(7,13)          =         2.513451	       1.330061
	 R(7,14)          =         2.513450	       1.330061
	 R(13,17)         =         1.911600	       1.011575
	 R(13,18)         =         1.914850	       1.013295
	 R(14,15)         =         1.914852	       1.013296
	 R(14,16)         =         1.911600	       1.011575
	 B(1,2,3)         =         2.088380	     119.655376
	 B(1,2,8)         =         2.103396	     120.515689
	 B(1,6,5)         =         2.088379	     119.655315
	 B(1,6,12)        =         2.103396	     120.515729
	 B(1,7,13)        =         2.093264	     119.935183
	 B(1,7,14)        =         2.093263	     119.935145
	 B(2,1,6)         =         2.097220	     120.161857
	 B(2,1,7)         =         2.092983	     119.919082
	 B(2,3,4)         =         2.095279	     120.050636
	 B(2,3,9)         =         2.089719	     119.732108
	 B(3,2,8)         =         2.090149	     119.756722
	 B(3,4,5)         =         2.101793	     120.423859
	 B(3,4,10)        =         2.090696	     119.788070
	 B(4,3,9)         =         2.098135	     120.214297
	 B(4,5,6)         =         2.095280	     120.050677
	 B(4,5,11)        =         2.098135	     120.214297
	 B(5,4,10)        =         2.090696	     119.788070
	 B(5,6,12)        =         2.090149	     119.756743
	 B(6,1,7)         =         2.092982	     119.919061
	 B(6,5,11)        =         2.089719	     119.732067
	 B(7,13,17)       =         2.092411	     119.886344
	 B(7,13,18)       =         2.144861	     122.891455
	 B(7,14,15)       =         2.144861	     122.891461
	 B(7,14,16)       =         2.092412	     119.886381
	 B(13,7,14)       =         2.096658	     120.129672
	 B(15,14,16)      =         2.043398	     117.078100
	 B(17,13,18)      =         2.043399	     117.078146
	 D(1,2,3,4)       =         0.007799	       0.446825
	 D(1,2,3,9)       =        -3.122896	    -178.928735
	 D(1,6,5,4)       =         0.007799	       0.446822
	 D(1,6,5,11)      =        -3.122896	    -178.928737
	 D(1,7,13,17)     =         0.187844	      10.762667
	 D(1,7,13,18)     =        -3.032164	    -173.730212
	 D(1,7,14,15)     =        -3.032165	    -173.730259
	 D(1,7,14,16)     =         0.187844	      10.762671
	 D(2,1,6,5)       =        -0.003906	      -0.223802
	 D(2,1,6,12)      =        -3.091437	    -177.126283
	*D(2,1,7,13)      =         2.443461	     140.000000
	 D(2,1,7,14)      =        -0.698132	     -40.000000
	 D(2,3,4,5)       =        -0.003942	      -0.225875
	 D(2,3,4,10)      =         3.137650	     179.774125
	 D(3,2,1,6)       =        -0.003906	      -0.223806
	 D(3,2,1,7)       =         3.137687	     179.776196
	 D(3,4,5,6)       =        -0.003942	      -0.225874
	 D(3,4,5,11)      =         3.126699	     179.146646
	 D(4,3,2,8)       =         3.095744	     177.373058
	 D(4,5,6,12)      =         3.095744	     177.373055
	 D(5,4,3,9)       =         3.126699	     179.146646
	 D(5,6,1,7)       =         3.137687	     179.776197
	 D(6,1,2,8)       =        -3.091437	    -177.126287
	 D(6,1,7,13)      =        -0.698132	     -39.999999
	 D(6,1,7,14)      =         2.443461	     140.000001
	 D(6,5,4,10)      =         3.137650	     179.774126
	 D(7,1,2,8)       =         0.050156	       2.873714
	 D(7,1,6,12)      =         0.050156	       2.873716
	 D(8,2,3,9)       =        -0.034950	      -2.002503
	 D(9,3,4,10)      =        -0.014894	      -0.853354
	 D(10,4,5,11)     =        -0.014894	      -0.853354
	 D(11,5,6,12)     =        -0.034950	      -2.002504
	 D(13,7,14,15)    =         0.109428	       6.269741
	 D(13,7,14,16)    =        -2.953749	    -169.237329
	 D(14,7,13,17)    =        -2.953749	    -169.237333
	 D(14,7,13,18)    =         0.109428	       6.269788

	Current energy   :      -381.4652555943

	Generating empirical Hessian (Schlegel '84) for each fragment.
	Taking RFO optimization step.
	Going to follow RFO solution 1.
	Using RFO vector 1.
	Norm of target step-size    0.46079
	Projected energy change by RFO approximation:        -0.0036836250

	Back-transformation to cartesian coordinates...
	Could not converge backtransformation.
	Using first guess instead.

	Back-transformation to cartesian coordinates to adjust frozen coordinates...
	Successfully converged to displaced geometry.

	--- Internal Coordinate Step in ANG or DEG, aJ/ANG or AJ/DEG ---
	 ---------------------------------------------------------------------------
	   Coordinate                Previous        Force       Change         New 
	   ----------                --------       ------       ------       ------
	    1 R(1,2)          =      1.407502    -0.006086    -0.000861     1.406641
	    2 R(1,6)          =      1.407503    -0.006090    -0.000901     1.406602
	    3 R(1,7)          =      1.466870     0.037515     0.006571     1.473441
	    4 R(2,3)          =      1.391302     0.002377     0.000441     1.391742
	    5 R(2,8)          =      1.086388     0.001620     0.003135     1.089522
	    6 R(3,4)          =      1.398294    -0.007096    -0.000886     1.397408
	    7 R(3,9)          =      1.085142    -0.000056     0.000737     1.085879
	    8 R(4,5)          =      1.398294    -0.007095    -0.000896     1.397398
	    9 R(4,10)         =      1.085649    -0.000606    -0.000107     1.085542
	   10 R(5,6)          =      1.391302     0.002377     0.000502     1.391804
	   11 R(5,11)         =      1.085142    -0.000056     0.000843     1.085985
	   12 R(6,12)         =      1.086386     0.001627     0.003141     1.089528
	   13 R(7,13)         =      1.330061    -0.003523    -0.000306     1.329755
	   14 R(7,14)         =      1.330061    -0.003519    -0.000232     1.329829
	   15 R(13,17)        =      1.011575    -0.001844     0.010687     1.022262
	   16 R(13,18)        =      1.013295    -0.000573     0.004476     1.017771
	   17 R(14,15)        =      1.013296    -0.000580     0.003908     1.017204
	   18 R(14,16)        =      1.011575    -0.001844     0.010603     1.022178
	   19 B(1,2,3)        =    119.655376     0.000037     0.136882   119.792258
	   20 B(1,2,8)        =    120.515689     0.000072     0.326710   120.842399
	   21 B(1,6,5)        =    119.655315     0.000037     0.138002   119.793317
	   22 B(1,6,12)       =    120.515729     0.000072     0.343827   120.859556
	   23 B(1,7,13)       =    119.935183     0.000073     0.212781   120.147964
	   24 B(1,7,14)       =    119.935145     0.000073     0.211230   120.146375
	   25 B(2,1,6)        =    120.161857    -0.000064    -0.227976   119.933881
	   26 B(2,1,7)        =    119.919082     0.000032     0.112778   120.031860
	   27 B(2,3,4)        =    120.050636     0.000013     0.022211   120.072847
	   28 B(2,3,9)        =    119.732108    -0.000009    -0.019598   119.712510
	   29 B(3,2,8)        =    119.756722    -0.000099    -0.465722   119.291000
	   30 B(3,4,5)        =    120.423859    -0.000034    -0.112515   120.311345
	   31 B(3,4,10)       =    119.788070     0.000017     0.056918   119.844989
	   32 B(4,3,9)        =    120.214297    -0.000003    -0.001096   120.213201
	   33 B(4,5,6)        =    120.050677     0.000013     0.020639   120.071317
	   34 B(4,5,11)       =    120.214297    -0.000003    -0.005306   120.208990
	   35 B(5,4,10)       =    119.788070     0.000017     0.055585   119.843655
	   36 B(5,6,12)       =    119.756743    -0.000099    -0.481996   119.274747
	   37 B(6,1,7)        =    119.919061     0.000032     0.114462   120.033523
	   38 B(6,5,11)       =    119.732067    -0.000010    -0.014082   119.717985
	   39 B(7,13,17)      =    119.886344     0.000094     0.198290   120.084634
	   40 B(7,13,18)      =    122.891455    -0.000046    -0.380726   122.510729
	   41 B(7,14,15)      =    122.891461    -0.000046    -0.391659   122.499802
	   42 B(7,14,16)      =    119.886381     0.000094     0.250769   120.137150
	   43 B(13,7,14)      =    120.129672    -0.000145    -0.424720   119.704952
	   44 B(15,14,16)     =    117.078100    -0.000042     0.260747   117.338847
	   45 B(17,13,18)     =    117.078146    -0.000042     0.302294   117.380441
	   46 D(1,2,3,4)      =      0.446825    -0.000014    -1.982439    -1.535614
	   47 D(1,2,3,9)      =   -178.928735    -0.000022    -3.042672  -181.971408
	   48 D(1,6,5,4)      =      0.446822    -0.000014    -1.866985    -1.420163
	   49 D(1,6,5,11)     =   -178.928737    -0.000022    -2.965907  -181.894644
	   50 D(1,7,13,17)    =     10.762667    -0.000073    -9.038743     1.723923
	   51 D(1,7,13,18)    =   -173.730212    -0.000051    -6.382713  -180.112925
	   52 D(1,7,14,15)    =   -173.730259    -0.000049    -6.075497  -179.805756
	   53 D(1,7,14,16)    =     10.762671    -0.000071    -8.730686     2.031985
	   54 D(2,1,6,5)      =     -0.223802     0.000006     0.818512     0.594711
	   55 D(2,1,6,12)     =   -177.126283    -0.000038    -5.395181  -182.521464
	   56 *D(2,1,7,13)    =    140.000000    -0.000000    -0.000000   140.000000
	   57 D(2,1,7,14)     =    -40.000000    -0.000002    -0.307172   -40.307172
	   58 D(2,3,4,5)      =     -0.225875     0.000007     0.941296     0.715421
	   59 D(2,3,4,10)     =    179.774125     0.000007     0.980830   180.754954
	   60 D(3,2,1,6)      =     -0.223806     0.000008     1.108241     0.884435
	   61 D(3,2,1,7)      =    179.776196     0.000006     0.796330   180.572525
	   62 D(3,4,5,6)      =     -0.225874     0.000007     1.000713     0.774839
	   63 D(3,4,5,11)     =    179.146646     0.000015     2.105024   181.251671
	   64 D(4,3,2,8)      =    177.373058     0.000031     4.199775   181.572833
	   65 D(4,5,6,12)     =    177.373055     0.000032     4.273404   181.646459
	   66 D(5,4,3,9)      =    179.146646     0.000015     2.006769   181.153416
	   67 D(5,6,1,7)      =    179.776197     0.000008     1.130429   180.906626
	   68 D(6,1,2,8)      =   -177.126287    -0.000037    -5.146886  -182.273173
	   69 D(6,1,7,13)     =    -39.999999    -0.000002    -0.312224   -40.312223
	   70 D(6,1,7,14)     =    140.000001    -0.000004    -0.619396   139.380605
	   71 D(6,5,4,10)     =    179.774126     0.000007     0.961181   180.735306
	   72 D(7,1,2,8)      =      2.873714    -0.000038    -5.458798    -2.585083
	   73 D(7,1,6,12)     =      2.873716    -0.000036    -5.083265    -2.209549
	   74 D(8,2,3,9)      =     -2.002503     0.000023     3.139541     1.137039
	   75 D(9,3,4,10)     =     -0.853354     0.000015     2.046303     1.192949
	   76 D(10,4,5,11)    =     -0.853354     0.000015     2.065492     1.212138
	   77 D(11,5,6,12)    =     -2.002504     0.000024     3.174481     1.171977
	   78 D(13,7,14,15)   =      6.269741    -0.000051    -6.381305    -0.111564
	   79 D(13,7,14,16)   =   -169.237329    -0.000073    -9.036493  -178.273823
	   80 D(14,7,13,17)   =   -169.237333    -0.000071    -8.732931  -177.970264
	   81 D(14,7,13,18)   =      6.269788    -0.000049    -6.076900     0.192888
	 ---------------------------------------------------------------------------
	Successfully symmetrized geometry.

  ==> Convergence Check <==

  Measures of convergence in internal coordinates in au.
  Criteria marked as inactive (o), active & met (*), and active & unmet ( ).
  --------------------------------------------------------------------------------------------- ~
   Step     Total Energy     Delta E     MAX Force     RMS Force      MAX Disp      RMS Disp    ~
  --------------------------------------------------------------------------------------------- ~
    Convergence Criteria    1.00e-06 *    3.00e-04 *             o    1.20e-03 *             o  ~
  --------------------------------------------------------------------------------------------- ~
      1    -381.46525559   -3.81e+02      4.55e-03      1.49e-03 o    1.58e-01      5.11e-02 o  ~
  ---------------------------------------------------------------------------------------------

	Writing optimization data to binary file.
	Structure for next step:
	Cartesian Geometry (in Angstrom)
	    C     0.0043752177   0.0007426517  -0.1760750025
	    C     0.0282876140   1.2180901852   0.5282915304
	    C     0.0416442745   1.2116228389   1.9199546883
	    C    -0.0010757874   0.0000895997   2.6150162328
	    C    -0.0423177339  -1.2110830300   1.9192571102
	    C    -0.0247534892  -1.2168602683   0.5275759882
	    C     0.0028924347   0.0012176077  -1.6495155374
	    H     0.0880640253   2.1685640137  -0.0009393113
	    H     0.0925329579   2.1511154772   2.4620768290
	    H    -0.0028789518  -0.0001753126   3.7005567323
	    H    -0.0959699315  -2.1508294363   2.4608852621
	    H    -0.0846503607  -2.1671075088  -0.0020592447
	    N     0.7244309945  -0.8933501308  -2.3183796613
	    N    -0.7248288542   0.8923947559  -2.3163506125
	    H    -0.7545150991   0.9232477361  -3.3326527043
	    H    -1.2611265020   1.5996385601  -1.8093612916
	    H     1.2614439648  -1.6005818021  -1.8119612656
	    H     0.7484452261  -0.9267359373  -3.3353197422
			--------------------------
			 OPTKING Finished Execution 
			--------------------------

    Structure for next step:
    Molecular point group: c1
    Full point group: C1

    Geometry (in Angstrom), charge = 1, multiplicity = 1:

    C            0.004375217741     0.000742651656    -0.176075002469
    C            0.028287614020     1.218090185224     0.528291530439
    C            0.041644274465     1.211622838865     1.919954688301
    C           -0.001075787403     0.000089599749     2.615016232810
    C           -0.042317733881    -1.211083030044     1.919257110226
    C           -0.024753489161    -1.216860268307     0.527575988228
    C            0.002892434748     0.001217607719    -1.649515537384
    H            0.088064025307     2.168564013690    -0.000939311312
    H            0.092532957949     2.151115477209     2.462076829015
    H           -0.002878951818    -0.000175312640     3.700556732317
    H           -0.095969931466    -2.150829436322     2.460885262097
    H           -0.084650360740    -2.167107508760    -0.002059244748
    N            0.724430994481    -0.893350130766    -2.318379661345
    N           -0.724828854191     0.892394755852    -2.316350612455
    H           -0.754515099057     0.923247736132    -3.332652704322
    H           -1.261126501960     1.599638560056    -1.809361291610
    H            1.261443964821    -1.600581802057    -1.811961265581
    H            0.748445226145    -0.926735937255    -3.335319742207

gradient() will perform analytic gradient computation.

*** tstart() called on rosa.prib.upf.edu
*** at Sat Sep 29 20:51:58 2018

   => Loading Basis Set <=

    Name: 6-31G*
    Role: ORBITAL
    Keyword: BASIS
    atoms 1-7         entry C          line   111 file /shared/joao/test_parameterize/miniconda3/share/psi4/basis/6-31gs.gbs 
    atoms 8-12, 15-18 entry H          line    44 file /shared/joao/test_parameterize/miniconda3/share/psi4/basis/6-31gs.gbs 
    atoms 13-14       entry N          line   128 file /shared/joao/test_parameterize/miniconda3/share/psi4/basis/6-31gs.gbs 


         ---------------------------------------------------------
                                   SCF
            by Justin Turney, Rob Parrish, Andy Simmonett
                             and Daniel Smith
                              RKS Reference
                        4 Threads,   2861 MiB Core
         ---------------------------------------------------------

  ==> Geometry <==

    Molecular point group: c1
    Full point group: C1

    Geometry (in Angstrom), charge = 1, multiplicity = 1:

       Center              X                  Y                   Z               Mass       
    ------------   -----------------  -----------------  -----------------  -----------------
         C            0.004375217741     0.000742651656    -0.176075002469    12.000000000000
         C            0.028287614020     1.218090185224     0.528291530439    12.000000000000
         C            0.041644274465     1.211622838865     1.919954688301    12.000000000000
         C           -0.001075787403     0.000089599749     2.615016232810    12.000000000000
         C           -0.042317733881    -1.211083030044     1.919257110226    12.000000000000
         C           -0.024753489161    -1.216860268307     0.527575988228    12.000000000000
         C            0.002892434748     0.001217607719    -1.649515537384    12.000000000000
         H            0.088064025307     2.168564013690    -0.000939311312     1.007825032070
         H            0.092532957949     2.151115477209     2.462076829015     1.007825032070
         H           -0.002878951818    -0.000175312640     3.700556732317     1.007825032070
         H           -0.095969931466    -2.150829436322     2.460885262097     1.007825032070
         H           -0.084650360740    -2.167107508760    -0.002059244748     1.007825032070
         N            0.724430994481    -0.893350130766    -2.318379661345    14.003074004780
         N           -0.724828854191     0.892394755852    -2.316350612455    14.003074004780
         H           -0.754515099057     0.923247736132    -3.332652704322     1.007825032070
         H           -1.261126501960     1.599638560056    -1.809361291610     1.007825032070
         H            1.261443964821    -1.600581802057    -1.811961265581     1.007825032070
         H            0.748445226145    -0.926735937255    -3.335319742207     1.007825032070

  Running in c1 symmetry.

  Rotational constants: A =      0.12221  B =      0.03915  C =      0.03130 [cm^-1]
  Rotational constants: A =   3663.63009  B =   1173.64201  C =    938.30942 [MHz]
  Nuclear repulsion =  416.331968809967805

  Charge       = 1
  Multiplicity = 1
  Electrons    = 64
  Nalpha       = 32
  Nbeta        = 32

  ==> Algorithm <==

  SCF Algorithm Type is DF.
  DIIS enabled.
  MOM disabled.
  Fractional occupation disabled.
  Guess Type is READ.
  Energy threshold   = 1.00e-08
  Density threshold  = 1.00e-08
  Integral threshold = 0.00e+00

  ==> Primary Basis <==

  Basis Set: 6-31G*
    Blend: 6-31G*
    Number of shells: 72
    Number of basis function: 153
    Number of Cartesian functions: 153
    Spherical Harmonics?: false
    Max angular momentum: 2

  ==> DFT Potential <==

   => Composite Functional: B3LYP-D3ZERO <= 

    B3LYP-d3zero Hyb-GGA Exchange-Correlation Functional

    P. J. Stephens, F. J. Devlin, C. F. Chabalowski, and M. J. Frisch, J. Phys. Chem. 98, 11623 (1994)

    Deriv               =              1
    GGA                 =           TRUE
    Meta                =          FALSE

    Exchange Hybrid     =           TRUE
    MP2 Hybrid          =          FALSE

   => Exchange Functionals <=

    0.0800   Slater exchange
    0.7200         Becke 88

   => Exact (HF) Exchange <=

    0.2000               HF 

   => Correlation Functionals <=

    0.1900   Vosko, Wilk & Nusair (VWN5_RPA)
    0.8100   Lee, Yang & Parr

   => Molecular Quadrature <=

    Radial Scheme       =       TREUTLER
    Pruning Scheme      =           FLAT
    Nuclear Scheme      =       TREUTLER

    BS radius alpha     =              1
    Pruning alpha       =              1
    Radial Points       =             75
    Spherical Points    =            302
    Total Points        =         396916
    Total Blocks        =           2991
    Max Points          =            256
    Max Functions       =            148

   => -D3ZERO: Empirical Dispersion <=

    Grimme's -D3 (zero-damping) Dispersion Correction
    Grimme S.; Antony J.; Ehrlich S.; Krieg H. (2010), J. Chem. Phys., 132: 154104

        S6 =   1.000000E+00
        S8 =   1.703000E+00
       SR6 =   1.261000E+00
       SR8 =   1.000000E+00
    ALPHA6 =   1.400000E+01

   => Loading Basis Set <=

    Name: (6-31G* AUX)
    Role: JKFIT
    Keyword: DF_BASIS_SCF
    atoms 1-7         entry C          line   121 file /shared/joao/test_parameterize/miniconda3/share/psi4/basis/cc-pvdz-jkfit.gbs 
    atoms 8-12, 15-18 entry H          line    51 file /shared/joao/test_parameterize/miniconda3/share/psi4/basis/cc-pvdz-jkfit.gbs 
    atoms 13-14       entry N          line   171 file /shared/joao/test_parameterize/miniconda3/share/psi4/basis/cc-pvdz-jkfit.gbs 

  Reading orbitals from file 180, no projection.

  ==> Pre-Iterations <==

   -------------------------------------------------------
    Irrep   Nso     Nmo     Nalpha   Nbeta   Ndocc  Nsocc
   -------------------------------------------------------
     A        153     153       0       0       0       0
   -------------------------------------------------------
    Total     153     153      32      32      32       0
   -------------------------------------------------------

  ==> Integral Setup <==

  ==> DiskDFJK: Density-Fitted J/K Matrices <==

    J tasked:                  Yes
    K tasked:                  Yes
    wK tasked:                  No
    OpenMP threads:              4
    Integrals threads:           4
    Memory (MB):              2002
    Algorithm:                Core
    Integral Cache:           NONE
    Schwarz Cutoff:          1E-12
    Fitting Condition:       1E-12

   => Auxiliary Basis Set <=

  Basis Set: (6-31G* AUX)
    Blend: CC-PVDZ-JKFIT
    Number of shells: 297
    Number of basis function: 954
    Number of Cartesian functions: 954
    Spherical Harmonics?: false
    Max angular momentum: 3

  Minimum eigenvalue in the overlap matrix is 4.8534061744E-04.
  Using Symmetric Orthogonalization.

  SCF Guess: Orbitals guess was supplied from a previous computation.

  ==> Iterations <==

                           Total Energy        Delta E     RMS |[F,P]|

   @DF-RKS iter   0:  -381.44077722101150   -3.81441e+02   1.27149e-03 
   @DF-RKS iter   1:  -381.46858512140767   -2.78079e-02   1.80891e-04 
   @DF-RKS iter   2:  -381.46860546381276   -2.03424e-05   2.11756e-04 DIIS
   @DF-RKS iter   3:  -381.46874332528319   -1.37861e-04   6.87278e-05 DIIS
   @DF-RKS iter   4:  -381.46875686004887   -1.35348e-05   3.09212e-05 DIIS
   @DF-RKS iter   5:  -381.46875944775832   -2.58771e-06   6.80683e-06 DIIS
   @DF-RKS iter   6:  -381.46875958550680   -1.37748e-07   1.71990e-06 DIIS
   @DF-RKS iter   7:  -381.46875959338831   -7.88151e-09   3.44118e-07 DIIS
   @DF-RKS iter   8:  -381.46875959368481   -2.96495e-10   1.36919e-07 DIIS
   @DF-RKS iter   9:  -381.46875959373773   -5.29212e-11   2.72237e-08 DIIS
   @DF-RKS iter  10:  -381.46875959374069   -2.95586e-12   1.18049e-08 DIIS
   @DF-RKS iter  11:  -381.46875959374029    3.97904e-13   3.38377e-09 DIIS

  ==> Post-Iterations <==

    Orbital Energies [Eh]
    ---------------------

    Doubly Occupied:                                                      

       1A    -14.570211     2A    -14.570162     3A    -10.499035  
       4A    -10.374467     5A    -10.356173     6A    -10.356112  
       7A    -10.341221     8A    -10.339847     9A    -10.339738  
      10A     -1.184184    11A     -1.090546    12A     -1.013886  
      13A     -0.925851    14A     -0.901497    15A     -0.844607  
      16A     -0.785412    17A     -0.772416    18A     -0.741529  
      19A     -0.733039    20A     -0.684572    21A     -0.668386  
      22A     -0.624960    23A     -0.619449    24A     -0.588347  
      25A     -0.578473    26A     -0.573416    27A     -0.517474  
      28A     -0.505266    29A     -0.497651    30A     -0.471919  
      31A     -0.410131    32A     -0.404956  

    Virtual:                                                              

      33A     -0.212856    34A     -0.157395    35A     -0.134021  
      36A     -0.112173    37A     -0.070549    38A     -0.066252  
      39A     -0.039910    40A     -0.037876    41A      0.006957  
      42A      0.020787    43A      0.021966    44A      0.059515  
      45A      0.062862    46A      0.079649    47A      0.125606  
      48A      0.152304    49A      0.158524    50A      0.158965  
      51A      0.202936    52A      0.240367    53A      0.297640  
      54A      0.348255    55A      0.353947    56A      0.380444  
      57A      0.388171    58A      0.397782    59A      0.419015  
      60A      0.422737    61A      0.443732    62A      0.447811  
      63A      0.452857    64A      0.469446    65A      0.471835  
      66A      0.475555    67A      0.484643    68A      0.506373  
      69A      0.521304    70A      0.535024    71A      0.539395  
      72A      0.585350    73A      0.605084    74A      0.652645  
      75A      0.657081    76A      0.676372    77A      0.684318  
      78A      0.704522    79A      0.714671    80A      0.716089  
      81A      0.744120    82A      0.775954    83A      0.776656  
      84A      0.799090    85A      0.812861    86A      0.836715  
      87A      0.848296    88A      0.940187    89A      0.968088  
      90A      0.996256    91A      0.998908    92A      1.027991  
      93A      1.049497    94A      1.068426    95A      1.144328  
      96A      1.184768    97A      1.237520    98A      1.270001  
      99A      1.283531   100A      1.306133   101A      1.318390  
     102A      1.342838   103A      1.362712   104A      1.365864  
     105A      1.412859   106A      1.456380   107A      1.490300  
     108A      1.597161   109A      1.622228   110A      1.654254  
     111A      1.672763   112A      1.734989   113A      1.752499  
     114A      1.795155   115A      1.825486   116A      1.851908  
     117A      1.904369   118A      1.909753   119A      1.954955  
     120A      1.976335   121A      1.996837   122A      2.020309  
     123A      2.037411   124A      2.088792   125A      2.108644  
     126A      2.132731   127A      2.150539   128A      2.194446  
     129A      2.223617   130A      2.255137   131A      2.346184  
     132A      2.364371   133A      2.439644   134A      2.450280  
     135A      2.488297   136A      2.526973   137A      2.552562  
     138A      2.589146   139A      2.608362   140A      2.626023  
     141A      2.734961   142A      2.882792   143A      2.975082  
     144A      3.257992   145A      3.633611   146A      3.654603  
     147A      3.915059   148A      3.950688   149A      3.963585  
     150A      4.060627   151A      4.175038   152A      4.257170  
     153A      4.545000  

    Final Occupation by Irrep:
              A 
    DOCC [    32 ]

  Energy converged.

  @DF-RKS Final Energy:  -381.46875959374029

   => Energetics <=

    Nuclear Repulsion Energy =            416.3319688099678046
    One-Electron Energy =               -1327.8933017579395255
    Two-Electron Energy =                 574.4966323068265410
    DFT Exchange-Correlation Energy =     -44.3921709125950770
    Empirical Dispersion Energy =          -0.0118880400000000
    VV10 Nonlocal Energy =                  0.0000000000000000
    Total Energy =                       -381.4687595937402875



Properties will be evaluated at   0.000000,   0.000000,   0.000000 [a0]

Properties computed using the SCF density matrix

  Nuclear Dipole Moment: [e a0]
     X:     0.0810      Y:     0.0253      Z:    -0.0092

  Electronic Dipole Moment: [e a0]
     X:    -0.0836      Y:    -0.0264      Z:    -2.2963

  Dipole Moment: [e a0]
     X:    -0.0026      Y:    -0.0011      Z:    -2.3055     Total:     2.3055

  Dipole Moment: [D]
     X:    -0.0066      Y:    -0.0029      Z:    -5.8599     Total:     5.8599


*** tstop() called on rosa.prib.upf.edu at Sat Sep 29 20:52:21 2018
Module time:
	user time   =      84.36 seconds =       1.41 minutes
	system time =       0.83 seconds =       0.01 minutes
	total time  =         23 seconds =       0.38 minutes
Total time:
	user time   =     213.15 seconds =       3.55 minutes
	system time =       2.09 seconds =       0.03 minutes
	total time  =         59 seconds =       0.98 minutes

*** tstart() called on rosa.prib.upf.edu
*** at Sat Sep 29 20:52:21 2018


         ------------------------------------------------------------
                                   SCF GRAD                          
                          Rob Parrish, Justin Turney,                
                       Andy Simmonett, and Alex Sokolov              
         ------------------------------------------------------------

  ==> Geometry <==

    Molecular point group: c1
    Full point group: C1

    Geometry (in Angstrom), charge = 1, multiplicity = 1:

       Center              X                  Y                   Z               Mass       
    ------------   -----------------  -----------------  -----------------  -----------------
         C            0.004375217741     0.000742651656    -0.176075002469    12.000000000000
         C            0.028287614020     1.218090185224     0.528291530439    12.000000000000
         C            0.041644274465     1.211622838865     1.919954688301    12.000000000000
         C           -0.001075787403     0.000089599749     2.615016232810    12.000000000000
         C           -0.042317733881    -1.211083030044     1.919257110226    12.000000000000
         C           -0.024753489161    -1.216860268307     0.527575988228    12.000000000000
         C            0.002892434748     0.001217607719    -1.649515537384    12.000000000000
         H            0.088064025307     2.168564013690    -0.000939311312     1.007825032070
         H            0.092532957949     2.151115477209     2.462076829015     1.007825032070
         H           -0.002878951818    -0.000175312640     3.700556732317     1.007825032070
         H           -0.095969931466    -2.150829436322     2.460885262097     1.007825032070
         H           -0.084650360740    -2.167107508760    -0.002059244748     1.007825032070
         N            0.724430994481    -0.893350130766    -2.318379661345    14.003074004780
         N           -0.724828854191     0.892394755852    -2.316350612455    14.003074004780
         H           -0.754515099057     0.923247736132    -3.332652704322     1.007825032070
         H           -1.261126501960     1.599638560056    -1.809361291610     1.007825032070
         H            1.261443964821    -1.600581802057    -1.811961265581     1.007825032070
         H            0.748445226145    -0.926735937255    -3.335319742207     1.007825032070

  Nuclear repulsion =  416.331968809967805

  ==> Basis Set <==

  Basis Set: 6-31G*
    Blend: 6-31G*
    Number of shells: 72
    Number of basis function: 153
    Number of Cartesian functions: 153
    Spherical Harmonics?: false
    Max angular momentum: 2

  ==> DFJKGrad: Density-Fitted SCF Gradients <==

    Gradient:                    1
    J tasked:                  Yes
    K tasked:                  Yes
    wK tasked:                  No
    OpenMP threads:              4
    Integrals threads:           4
    Memory (MB):              2002
    Schwarz Cutoff:          0E+00
    Fitting Condition:       1E-12

   => Auxiliary Basis Set <=

  Basis Set: (6-31G* AUX)
    Blend: CC-PVDZ-JKFIT
    Number of shells: 297
    Number of basis function: 954
    Number of Cartesian functions: 954
    Spherical Harmonics?: false
    Max angular momentum: 3

  ==> DFT Potential <==

   => Composite Functional: B3LYP-D3ZERO <= 

    B3LYP-d3zero Hyb-GGA Exchange-Correlation Functional

    P. J. Stephens, F. J. Devlin, C. F. Chabalowski, and M. J. Frisch, J. Phys. Chem. 98, 11623 (1994)

    Deriv               =              1
    GGA                 =           TRUE
    Meta                =          FALSE

    Exchange Hybrid     =           TRUE
    MP2 Hybrid          =          FALSE

   => Exchange Functionals <=

    0.0800   Slater exchange
    0.7200         Becke 88

   => Exact (HF) Exchange <=

    0.2000               HF 

   => Correlation Functionals <=

    0.1900   Vosko, Wilk & Nusair (VWN5_RPA)
    0.8100   Lee, Yang & Parr

   => Molecular Quadrature <=

    Radial Scheme       =       TREUTLER
    Pruning Scheme      =           FLAT
    Nuclear Scheme      =       TREUTLER

    BS radius alpha     =              1
    Pruning alpha       =              1
    Radial Points       =             75
    Spherical Points    =            302
    Total Points        =         396916
    Total Blocks        =           2991
    Max Points          =            256
    Max Functions       =            148


  -Total Gradient:
     Atom            X                  Y                   Z
    ------   -----------------  -----------------  -----------------
       1        0.000270223965    -0.000185351168     0.000560452716
       2       -0.000314516525    -0.002347733537     0.001473731551
       3        0.000221816769    -0.000286858352    -0.000234134903
       4        0.000016648235     0.000016260050    -0.000296341846
       5       -0.000208116253     0.000289643228    -0.000258091480
       6        0.000023154594     0.002431000618     0.001457638876
       7        0.000469468842     0.000396886962     0.000418219484
       8       -0.000249306732     0.001876143427    -0.000388686783
       9        0.000389164898     0.000367806376     0.000359116710
      10       -0.000007009867    -0.000002141392    -0.000042372747
      11       -0.000388869165    -0.000424305414     0.000409689254
      12        0.000204925042    -0.001896112290    -0.000374515667
      13       -0.001876234097     0.007361563194    -0.002386983909
      14        0.001564555794    -0.007539788924    -0.002741547277
      15       -0.000857852340    -0.002000947121    -0.003477506875
      16       -0.002678407538     0.007985322341     0.004675728380
      17        0.002611994160    -0.008028673228     0.004811842615
      18        0.000807954849     0.001988846317    -0.003987909994


*** tstop() called on rosa.prib.upf.edu at Sat Sep 29 20:52:28 2018
Module time:
	user time   =      25.62 seconds =       0.43 minutes
	system time =       0.64 seconds =       0.01 minutes
	total time  =          7 seconds =       0.12 minutes
Total time:
	user time   =     238.84 seconds =       3.98 minutes
	system time =       2.73 seconds =       0.05 minutes
	total time  =         66 seconds =       1.10 minutes

			-----------------------------------------
			 OPTKING 2.0: for geometry optimizations 
			  - R.A. King,  Bethel University        
			-----------------------------------------
	At level 1: Red. Int., RFO, no backsteps, dynamic trust

	Previous internal coordinate definitions found.
	---Fragment 1 Geometry and Gradient---
	 C           0.0082679633        0.0014034082       -0.3327335335
	 C           0.0534558435        2.3018568552        0.9983263109
	 C           0.0786962737        2.2896353418        3.6281885484
	 C          -0.0020329436        0.0001693190        4.9416645131
	 C          -0.0799689276       -2.2886152510        3.6268703169
	 C          -0.0467773153       -2.2995326491        0.9969741320
	 C           0.0054659095        0.0023009451       -3.1171326176
	 H           0.1664168900        4.0979920875       -0.0017750411
	 H           0.1748619488        4.0650191321        4.6526509250
	 H          -0.0054404305       -0.0003312929        6.9930387633
	 H          -0.1813568875       -4.0644785932        4.6503991898
	 H          -0.1599659988       -4.0952396921       -0.0038914086
	 N           1.3689761817       -1.6881870879       -4.3811026320
	 N          -1.3697280276        1.6863816910       -4.3772682853
	 H          -1.4258269003        1.7446853741       -6.2978009072
	 H          -2.3831837076        3.0228787901       -3.4191973166
	 H           2.3837836255       -3.0246612592       -3.4241105553
	 H           1.4143565029       -1.7512771189       -6.3028408784
	             0.0002702240       -0.0001853512        0.0005604527
	            -0.0003145165       -0.0023477335        0.0014737316
	             0.0002218168       -0.0002868584       -0.0002341349
	             0.0000166482        0.0000162601       -0.0002963418
	            -0.0002081163        0.0002896432       -0.0002580915
	             0.0000231546        0.0024310006        0.0014576389
	             0.0004694688        0.0003968870        0.0004182195
	            -0.0002493067        0.0018761434       -0.0003886868
	             0.0003891649        0.0003678064        0.0003591167
	            -0.0000070099       -0.0000021414       -0.0000423727
	            -0.0003888692       -0.0004243054        0.0004096893
	             0.0002049250       -0.0018961123       -0.0003745157
	            -0.0018762341        0.0073615632       -0.0023869839
	             0.0015645558       -0.0075397889       -0.0027415473
	            -0.0008578523       -0.0020009471       -0.0034775069
	            -0.0026784075        0.0079853223        0.0046757284
	             0.0026119942       -0.0080286732        0.0048118426
	             0.0008079548        0.0019888463       -0.0039879100

	---Fragment 1 Intrafragment Coordinates---
	 - Coordinate -           - BOHR/RAD -       - ANG/DEG -
	 R(1,2)           =         2.658166	       1.406641
	 R(1,6)           =         2.658093	       1.406602
	 R(1,7)           =         2.784401	       1.473441
	 R(2,3)           =         2.630012	       1.391742
	 R(2,8)           =         2.058899	       1.089522
	 R(3,4)           =         2.640718	       1.397408
	 R(3,9)           =         2.052013	       1.085879
	 R(4,5)           =         2.640699	       1.397398
	 R(4,10)          =         2.051377	       1.085542
	 R(5,6)           =         2.630128	       1.391804
	 R(5,11)          =         2.052214	       1.085985
	 R(6,12)          =         2.058909	       1.089528
	 R(7,13)          =         2.512873	       1.329755
	 R(7,14)          =         2.513012	       1.329829
	 R(13,17)         =         1.931795	       1.022262
	 R(13,18)         =         1.923309	       1.017771
	 R(14,15)         =         1.922236	       1.017204
	 R(14,16)         =         1.931636	       1.022178
	 B(1,2,3)         =         2.090769	     119.792258
	 B(1,2,8)         =         2.109098	     120.842399
	 B(1,6,5)         =         2.090788	     119.793317
	 B(1,6,12)        =         2.109397	     120.859556
	 B(1,7,13)        =         2.096978	     120.147964
	 B(1,7,14)        =         2.096950	     120.146375
	 B(2,1,6)         =         2.093241	     119.933881
	 B(2,1,7)         =         2.094951	     120.031860
	 B(2,3,4)         =         2.095667	     120.072847
	 B(2,3,9)         =         2.089377	     119.712510
	 B(3,2,8)         =         2.082021	     119.291000
	 B(3,4,5)         =         2.099829	     120.311345
	 B(3,4,10)        =         2.091690	     119.844989
	 B(4,3,9)         =         2.098116	     120.213201
	 B(4,5,6)         =         2.095640	     120.071317
	 B(4,5,11)        =         2.098043	     120.208990
	 B(5,4,10)        =         2.091666	     119.843655
	 B(5,6,12)        =         2.081737	     119.274747
	 B(6,1,7)         =         2.094980	     120.033523
	 B(6,5,11)        =         2.089473	     119.717985
	 B(7,13,17)       =         2.095872	     120.084634
	 B(7,13,18)       =         2.138216	     122.510729
	 B(7,14,15)       =         2.138025	     122.499802
	 B(7,14,16)       =         2.096789	     120.137150
	 B(13,7,14)       =         2.089246	     119.704952
	 B(15,14,16)      =         2.047949	     117.338847
	 B(17,13,18)      =         2.048675	     117.380441
	 D(1,2,3,4)       =        -0.026802	      -1.535614
	 D(1,2,3,9)       =         3.107185	     178.028592
	 D(1,6,5,4)       =        -0.024787	      -1.420163
	 D(1,6,5,11)      =         3.108525	     178.105356
	 D(1,7,13,17)     =         0.030088	       1.723923
	 D(1,7,13,18)     =         3.139622	     179.887075
	 D(1,7,14,15)     =        -3.138202	    -179.805756
	 D(1,7,14,16)     =         0.035465	       2.031985
	 D(2,1,6,5)       =         0.010380	       0.594711
	 D(2,1,6,12)      =         3.097585	     177.478536
	*D(2,1,7,13)      =         2.443461	     140.000000
	 D(2,1,7,14)      =        -0.703493	     -40.307172
	 D(2,3,4,5)       =         0.012486	       0.715421
	 D(2,3,4,10)      =        -3.128416	    -179.245046
	 D(3,2,1,6)       =         0.015436	       0.884435
	 D(3,2,1,7)       =        -3.131600	    -179.427475
	 D(3,4,5,6)       =         0.013523	       0.774839
	 D(3,4,5,11)      =        -3.119747	    -178.748329
	 D(4,3,2,8)       =        -3.114142	    -178.427167
	 D(4,5,6,12)      =        -3.112857	    -178.353541
	 D(5,4,3,9)       =        -3.121462	    -178.846584
	 D(5,6,1,7)       =        -3.125769	    -179.093374
	 D(6,1,2,8)       =         3.101918	     177.726827
	 D(6,1,7,13)      =        -0.703581	     -40.312223
	 D(6,1,7,14)      =         2.432650	     139.380605
	 D(6,5,4,10)      =        -3.128759	    -179.264694
	 D(7,1,2,8)       =        -0.045118	      -2.585083
	 D(7,1,6,12)      =        -0.038564	      -2.209549
	 D(8,2,3,9)       =         0.019845	       1.137039
	 D(9,3,4,10)      =         0.020821	       1.192949
	 D(10,4,5,11)     =         0.021156	       1.212138
	 D(11,5,6,12)     =         0.020455	       1.171977
	 D(13,7,14,15)    =        -0.001947	      -0.111564
	 D(13,7,14,16)    =        -3.111465	    -178.273823
	 D(14,7,13,17)    =        -3.106167	    -177.970264
	 D(14,7,13,18)    =         0.003367	       0.192888

	Current energy   :      -381.4687595937

	Energy change for the previous step:
		Projected    :        -0.0036836250
		Actual       :        -0.0035039994
	Energy ratio indicates good step: Trust radius increased to 1.000e+00.


	Performing BFGS update.
	Previous computed or guess Hessian on step 1.
	Steps to be used in Hessian update: 1
	Taking RFO optimization step.
	Going to follow RFO solution 1.
	Using RFO vector 1.
	Norm of target step-size    0.36798
	Projected energy change by RFO approximation:        -0.0007450567

	Back-transformation to cartesian coordinates...
	Could not converge backtransformation.
	Using first guess instead.

	Back-transformation to cartesian coordinates to adjust frozen coordinates...
	Successfully converged to displaced geometry.

	--- Internal Coordinate Step in ANG or DEG, aJ/ANG or AJ/DEG ---
	 ---------------------------------------------------------------------------
	   Coordinate                Previous        Force       Change         New 
	   ----------                --------       ------       ------       ------
	    1 R(1,2)          =      1.406641    -0.005048    -0.001142     1.405499
	    2 R(1,6)          =      1.406602    -0.005011    -0.001215     1.405387
	    3 R(1,7)          =      1.473441    -0.022078    -0.003443     1.469999
	    4 R(2,3)          =      1.391742     0.000307     0.000208     1.391950
	    5 R(2,8)          =      1.089522    -0.014922    -0.001692     1.087830
	    6 R(3,4)          =      1.397408     0.004167     0.000648     1.398056
	    7 R(3,9)          =      1.085879    -0.004254    -0.000595     1.085284
	    8 R(4,5)          =      1.397398     0.004083     0.000614     1.398012
	    9 R(4,10)         =      1.085542     0.000339     0.000062     1.085604
	   10 R(5,6)          =      1.391804     0.000113     0.000264     1.392068
	   11 R(5,11)         =      1.085985    -0.004872    -0.000659     1.085326
	   12 R(6,12)         =      1.089528    -0.015027    -0.001746     1.087782
	   13 R(7,13)         =      1.329755    -0.006041    -0.000770     1.328985
	   14 R(7,14)         =      1.329829    -0.006660    -0.000547     1.329281
	   15 R(13,17)        =      1.022262    -0.076711    -0.001379     1.020882
	   16 R(13,18)        =      1.017771    -0.032438    -0.000312     1.017460
	   17 R(14,15)        =      1.017204    -0.028321     0.001452     1.018656
	   18 R(14,16)        =      1.022178    -0.076207    -0.001747     1.020430
	   19 B(1,2,3)        =    119.792258    -0.000046    -0.155352   119.636906
	   20 B(1,2,8)        =    120.842399    -0.000021    -0.105292   120.737107
	   21 B(1,6,5)        =    119.793317    -0.000047    -0.162060   119.631257
	   22 B(1,6,12)       =    120.859556    -0.000022    -0.114235   120.745321
	   23 B(1,7,13)       =    120.147964    -0.000133    -0.457375   119.690589
	   24 B(1,7,14)       =    120.146375    -0.000133    -0.466266   119.680109
	   25 B(2,1,6)        =    119.933881     0.000100     0.310055   120.243936
	   26 B(2,1,7)        =    120.031860    -0.000047    -0.146457   119.885403
	   27 B(2,3,4)        =    120.072847    -0.000005     0.003058   120.075906
	   28 B(2,3,9)        =    119.712510    -0.000007    -0.061843   119.650667
	   29 B(3,2,8)        =    119.291000     0.000067     0.235759   119.526759
	   30 B(3,4,5)        =    120.311345     0.000002     0.018294   120.329639
	   31 B(3,4,10)       =    119.844989    -0.000001    -0.009115   119.835873
	   32 B(4,3,9)        =    120.213201     0.000012     0.053624   120.266825
	   33 B(4,5,6)        =    120.071317    -0.000003     0.007688   120.079005
	   34 B(4,5,11)       =    120.208990     0.000012     0.056068   120.265058
	   35 B(5,4,10)       =    119.843655    -0.000001    -0.009213   119.834442
	   36 B(5,6,12)       =    119.274747     0.000070     0.246644   119.521391
	   37 B(6,1,7)        =    120.033523    -0.000053    -0.163885   119.869639
	   38 B(6,5,11)       =    119.717985    -0.000010    -0.067938   119.650047
	   39 B(7,13,17)      =    120.084634    -0.000027    -0.462590   119.622044
	   40 B(7,13,18)      =    122.510729     0.000102     0.411826   122.922555
	   41 B(7,14,15)      =    122.499802     0.000104     0.453177   122.952979
	   42 B(7,14,16)      =    120.137150    -0.000036    -0.589313   119.547837
	   43 B(13,7,14)      =    119.704952     0.000266     0.921389   120.626341
	   44 B(15,14,16)     =    117.338847    -0.000066     0.156454   117.495302
	   45 B(17,13,18)     =    117.380441    -0.000073     0.067248   117.447689
	   46 D(1,2,3,4)      =     -1.535614     0.000007     1.115773    -0.419841
	   47 D(1,2,3,9)      =    178.028592     0.000005     0.619420   178.648013
	   48 D(1,6,5,4)      =     -1.420163     0.000006     0.826276    -0.593887
	   49 D(1,6,5,11)     =    178.105356     0.000004     0.420245   178.525601
	   50 D(1,7,13,17)    =      1.723923    -0.000039    -8.116218    -6.392295
	   51 D(1,7,13,18)    =    179.887075    -0.000025    -5.242676   174.644400
	   52 D(1,7,14,15)    =   -179.805756    -0.000029    -6.221129  -186.026885
	   53 D(1,7,14,16)    =      2.031985    -0.000041    -8.794135    -6.762150
	   54 D(2,1,6,5)      =      0.594711    -0.000002    -0.111692     0.483018
	   55 D(2,1,6,12)     =    177.478536     0.000000    -0.685576   176.792960
	   56 *D(2,1,7,13)    =    140.000000     0.000000    -0.000000   140.000000
	   57 D(2,1,7,14)     =    -40.307172     0.000004     0.929201   -39.377972
	   58 D(2,3,4,5)      =      0.715421    -0.000003    -0.404654     0.310767
	   59 D(2,3,4,10)     =   -179.245046    -0.000003    -0.522411  -179.767457
	   60 D(3,2,1,6)      =      0.884435    -0.000004    -0.860096     0.024339
	   61 D(3,2,1,7)      =   -179.427475    -0.000002    -0.179925  -179.607400
	   62 D(3,4,5,6)      =      0.774839    -0.000003    -0.573498     0.201341
	   63 D(3,4,5,11)     =   -178.748329    -0.000002    -0.164353  -178.912682
	   64 D(4,3,2,8)      =   -178.427167     0.000005     1.601798  -176.825370
	   65 D(4,5,6,12)     =   -178.353541     0.000005     1.404176  -176.949365
	   66 D(5,4,3,9)      =   -178.846584    -0.000001     0.095294  -178.751290
	   67 D(5,6,1,7)      =   -179.093374    -0.000004    -0.791810  -179.885185
	   68 D(6,1,2,8)      =    177.726827    -0.000002    -1.341364   176.385463
	   69 D(6,1,7,13)     =    -40.312223     0.000002     0.679095   -39.633129
	   70 D(6,1,7,14)     =    139.380605     0.000007     1.608295   140.988900
	   71 D(6,5,4,10)     =   -179.264694    -0.000003    -0.455742  -179.720436
	   72 D(7,1,2,8)      =     -2.585083    -0.000000    -0.661193    -3.246276
	   73 D(7,1,6,12)     =     -2.209549    -0.000002    -1.365694    -3.575243
	   74 D(8,2,3,9)      =      1.137039     0.000004     1.105445     2.242484
	   75 D(9,3,4,10)     =      1.192949    -0.000001    -0.022463     1.170486
	   76 D(10,4,5,11)    =      1.212138    -0.000002    -0.046597     1.165541
	   77 D(11,5,6,12)    =      1.171977     0.000003     0.998145     2.170123
	   78 D(13,7,14,15)   =     -0.111564    -0.000025    -5.287361    -5.398925
	   79 D(13,7,14,16)   =   -178.273823    -0.000037    -7.860367  -186.134189
	   80 D(14,7,13,17)   =   -177.970264    -0.000042    -9.050057  -187.020321
	   81 D(14,7,13,18)   =      0.192888    -0.000028    -6.176514    -5.983626
	 ---------------------------------------------------------------------------
	Successfully symmetrized geometry.

  ==> Convergence Check <==

  Measures of convergence in internal coordinates in au.
  Criteria marked as inactive (o), active & met (*), and active & unmet ( ).
  ---------------------------------------------------------------------------------------------
   Step     Total Energy     Delta E     MAX Force     RMS Force      MAX Disp      RMS Disp   
  ---------------------------------------------------------------------------------------------
    Convergence Criteria    1.00e-06 *    3.00e-04 *             o    1.20e-03 *             o
  ---------------------------------------------------------------------------------------------
      2    -381.46875959   -3.50e-03      9.31e-03      1.85e-03 o    1.58e-01      4.08e-02 o  ~
  ---------------------------------------------------------------------------------------------

	Writing optimization data to binary file.
	Structure for next step:
	Cartesian Geometry (in Angstrom)
	    C    -0.0058399389  -0.0017478173  -0.1796615821
	    C     0.0297304988   1.2168991732   0.5196686701
	    C     0.0374235409   1.2117713527   1.9115878221
	    C     0.0010120905   0.0000439509   2.6079717557
	    C    -0.0367392660  -1.2125708996   1.9132944331
	    C    -0.0340314703  -1.2195515303   0.5212465282
	    C    -0.0053999909  -0.0029473656  -1.6496595865
	    H     0.1106259441   2.1616962223  -0.0134249324
	    H     0.0871268506   2.1518035341   2.4516893075
	    H     0.0033433564   0.0007134617   3.6935730235
	    H    -0.0827637045  -2.1520109269   2.4548357277
	    H    -0.1138979873  -2.1653209144  -0.0101766400
	    N     0.7106117786  -0.9092949617  -2.3069732581
	    N    -0.7113730686   0.9103428141  -2.3088194008
	    H    -0.6770467288   1.0122618397  -3.3217821996
	    H    -1.3284766394   1.5381887944  -1.7928048602
	    H     1.3306125628  -1.5342753710  -1.7900597935
	    H     0.6850821722  -1.0060013564  -3.3195050147
			--------------------------
			 OPTKING Finished Execution 
			--------------------------

    Structure for next step:
    Molecular point group: c1
    Full point group: C1

    Geometry (in Angstrom), charge = 1, multiplicity = 1:

    C           -0.005839938868    -0.001747817290    -0.179661582063
    C            0.029730498835     1.216899173242     0.519668670096
    C            0.037423540884     1.211771352720     1.911587822070
    C            0.001012090490     0.000043950916     2.607971755714
    C           -0.036739266029    -1.212570899568     1.913294433063
    C           -0.034031470308    -1.219551530256     0.521246528164
    C           -0.005399990937    -0.002947365641    -1.649659586452
    H            0.110625944114     2.161696222302    -0.013424932375
    H            0.087126850599     2.151803534107     2.451689307531
    H            0.003343356418     0.000713461674     3.693573023512
    H           -0.082763704533    -2.152010926877     2.454835727716
    H           -0.113897987335    -2.165320914391    -0.010176639991
    N            0.710611778553    -0.909294961722    -2.306973258144
    N           -0.711373068616     0.910342814095    -2.308819400769
    H           -0.677046728839     1.012261839676    -3.321782199645
    H           -1.328476639422     1.538188794390    -1.792804860246
    H            1.330612562754    -1.534275370964    -1.790059793468
    H            0.685082172242    -1.006001356413    -3.319505014716

gradient() will perform analytic gradient computation.

*** tstart() called on rosa.prib.upf.edu
*** at Sat Sep 29 20:52:28 2018

   => Loading Basis Set <=

    Name: 6-31G*
    Role: ORBITAL
    Keyword: BASIS
    atoms 1-7         entry C          line   111 file /shared/joao/test_parameterize/miniconda3/share/psi4/basis/6-31gs.gbs 
    atoms 8-12, 15-18 entry H          line    44 file /shared/joao/test_parameterize/miniconda3/share/psi4/basis/6-31gs.gbs 
    atoms 13-14       entry N          line   128 file /shared/joao/test_parameterize/miniconda3/share/psi4/basis/6-31gs.gbs 


         ---------------------------------------------------------
                                   SCF
            by Justin Turney, Rob Parrish, Andy Simmonett
                             and Daniel Smith
                              RKS Reference
                        4 Threads,   2861 MiB Core
         ---------------------------------------------------------

  ==> Geometry <==

    Molecular point group: c1
    Full point group: C1

    Geometry (in Angstrom), charge = 1, multiplicity = 1:

[...]
	            -0.0000260413       -0.0000135136        0.0000146919
	            -0.0006091745       -0.0007729678        0.0000488120
	            -0.0000154306       -0.0000057291       -0.0000098453
	            -0.0000006882       -0.0000008520        0.0000006632
	            -0.0000062892        0.0000007543        0.0000003406
	             0.0000001271       -0.0000000695        0.0000007304
	            -0.0000040614        0.0000031806       -0.0000013779
	             0.0007102687        0.0005373025       -0.0000013217
	            -0.0000484109       -0.0000132618        0.0000359517
	             0.0000185529        0.0000125354       -0.0000076271
	             0.0000365255       -0.0000115255       -0.0000272526
	            -0.0000074797        0.0000019714       -0.0000180702
	            -0.0000151779       -0.0000078310       -0.0000012419

	---Fragment 1 Intrafragment Coordinates---
	 - Coordinate -           - BOHR/RAD -       - ANG/DEG -
	 R(1,2)           =         2.659048	       1.407108
	 R(1,6)           =         2.659125	       1.407148
	 R(1,7)           =         2.772908	       1.467360
	 R(2,3)           =         2.629632	       1.391542
	 R(2,8)           =         2.052960	       1.086380
	 R(3,4)           =         2.642301	       1.398245
	 R(3,9)           =         2.050662	       1.085163
	 R(4,5)           =         2.642492	       1.398346
	 R(4,10)          =         2.051596	       1.085658
	 R(5,6)           =         2.629451	       1.391445
	 R(5,11)          =         2.050659	       1.085162
	 R(6,12)          =         2.053094	       1.086450
	 R(7,13)          =         2.512463	       1.329538
	 R(7,14)          =         2.512601	       1.329611
	 R(13,17)         =         1.911782	       1.011671
	 R(13,18)         =         1.915110	       1.013433
	 R(14,15)         =         1.915106	       1.013430
	 R(14,16)         =         1.911773	       1.011666
	 B(1,2,3)         =         2.087039	     119.578518
	 B(1,2,8)         =         2.102589	     120.469483
	 B(1,6,5)         =         2.087192	     119.587303
	 B(1,6,12)        =         2.102349	     120.455713
	 B(1,7,13)        =         2.091630	     119.841590
	 B(1,7,14)        =         2.091573	     119.838294
	 B(2,1,6)         =         2.099357	     120.284284
	 B(2,1,7)         =         2.091184	     119.816002
	 B(2,3,4)         =         2.095298	     120.051731
	 B(2,3,9)         =         2.089758	     119.734286
	 B(3,2,8)         =         2.092524	     119.892783
	 B(3,4,5)         =         2.102268	     120.451064
	 B(3,4,10)        =         2.090466	     119.774889
	 B(4,3,9)         =         2.098080	     120.211109
	 B(4,5,6)         =         2.095145	     120.042951
	 B(4,5,11)        =         2.098089	     120.211643
	 B(5,4,10)        =         2.090451	     119.774030
	 B(5,6,12)        =         2.092477	     119.890089
	 B(6,1,7)         =         2.092528	     119.893018
	 B(6,5,11)        =         2.089917	     119.743407
	 B(7,13,17)       =         2.090929	     119.801395
	 B(7,13,18)       =         2.146320	     122.975073
	 B(7,14,15)       =         2.146303	     122.974076
	 B(7,14,16)       =         2.090659	     119.785926
	 B(13,7,14)       =         2.099931	     120.317165
	 B(15,14,16)      =         2.044251	     117.126961
	 B(17,13,18)      =         2.044586	     117.146167
	 D(1,2,3,4)       =        -0.007069	      -0.405047
	 D(1,2,3,9)       =         3.123784	     178.979621
	 D(1,6,5,4)       =        -0.011981	      -0.686445
	 D(1,6,5,11)      =         3.120654	     178.800331
	 D(1,7,13,17)     =        -0.165764	      -9.497583
	 D(1,7,13,18)     =         3.033282	     173.794255
	 D(1,7,14,15)     =         3.026670	     173.415405
	 D(1,7,14,16)     =        -0.184369	     -10.563545
	 D(2,1,6,5)       =         0.010225	       0.585822
	 D(2,1,6,12)      =         3.099852	     177.608423
	*D(2,1,7,13)      =         2.443461	     140.000000
	 D(2,1,7,14)      =        -0.687261	     -39.377142
	 D(2,3,4,5)       =         0.005342	       0.306053
	 D(2,3,4,10)      =        -3.137074	    -179.741113
	 D(3,2,1,6)       =        -0.000682	      -0.039102
	 D(3,2,1,7)       =        -3.125829	    -179.096836
	 D(3,4,5,6)       =         0.004297	       0.246195
	 D(3,4,5,11)      =        -3.128296	    -179.238156
	 D(4,3,2,8)       =        -3.100055	    -177.620048
	 D(4,5,6,12)      =        -3.101906	    -177.726101
	 D(5,4,3,9)       =        -3.125460	    -179.075655
	 D(5,6,1,7)       =         3.135359	     179.642829
	 D(6,1,2,8)       =         3.092017	     177.159536
	 D(6,1,7,13)      =        -0.681751	     -39.061456
	 D(6,1,7,14)      =         2.470713	     141.561403
	 D(6,5,4,10)      =        -3.136473	    -179.706640
	 D(7,1,2,8)       =        -0.033130	      -1.898198
	 D(7,1,6,12)      =        -0.058199	      -3.334571
	 D(8,2,3,9)       =         0.030798	       1.764620
	 D(9,3,4,10)      =         0.015310	       0.877179
	 D(10,4,5,11)     =         0.014120	       0.809010
	 D(11,5,6,12)     =         0.030730	       1.760675
	 D(13,7,14,15)    =        -0.104000	      -5.958735
	 D(13,7,14,16)    =         2.968147	     170.062315
	 D(14,7,13,17)    =         2.964905	     169.876536
	 D(14,7,13,18)    =        -0.119234	      -6.831626

	Current energy   :      -381.4704491983

	Energy change for the previous step:
		Projected    :        -0.0000011575
		Actual       :        -0.0000005149

	Performing BFGS update.
	Previous computed or guess Hessian on step 1.
	Steps to be used in Hessian update: 6 5
	Taking RFO optimization step.
	Going to follow RFO solution 1.
	Using RFO vector 1.
	Norm of target step-size    0.00311
	Projected energy change by RFO approximation:        -0.0000002116

	Back-transformation to cartesian coordinates...
	Successfully converged to displaced geometry.

	Back-transformation to cartesian coordinates to adjust frozen coordinates...
	Successfully converged to displaced geometry.

	--- Internal Coordinate Step in ANG or DEG, aJ/ANG or AJ/DEG ---
	 ---------------------------------------------------------------------------
	   Coordinate                Previous        Force       Change         New 
	   ----------                --------       ------       ------       ------
	    1 R(1,2)          =      1.407108     0.000039     0.000017     1.407125
	    2 R(1,6)          =      1.407148    -0.000124    -0.000002     1.407146
	    3 R(1,7)          =      1.467360     0.000303     0.000038     1.467398
	    4 R(2,3)          =      1.391542     0.000043     0.000005     1.391547
	    5 R(2,8)          =      1.086380     0.000013    -0.000002     1.086378
	    6 R(3,4)          =      1.398245    -0.000004    -0.000002     1.398243
	    7 R(3,9)          =      1.085163    -0.000001    -0.000001     1.085163
	    8 R(4,5)          =      1.398346     0.000024     0.000007     1.398353
	    9 R(4,10)         =      1.085658    -0.000012    -0.000002     1.085656
	   10 R(5,6)          =      1.391445     0.000028    -0.000003     1.391443
	   11 R(5,11)         =      1.085162    -0.000007    -0.000002     1.085160
	   12 R(6,12)         =      1.086450     0.000020     0.000002     1.086452
	   13 R(7,13)         =      1.329538    -0.000085    -0.000004     1.329534
	   14 R(7,14)         =      1.329611     0.000114     0.000013     1.329625
	   15 R(13,17)        =      1.011671     0.000118     0.000026     1.011698
	   16 R(13,18)        =      1.013433    -0.000011     0.000003     1.013436
	   17 R(14,15)        =      1.013430    -0.000071    -0.000002     1.013428
	   18 R(14,16)        =      1.011666     0.000353     0.000064     1.011730
	   19 B(1,2,3)        =    119.578518     0.000000     0.001399   119.579916
	   20 B(1,2,8)        =    120.469483     0.000001     0.000583   120.470066
	   21 B(1,6,5)        =    119.587303     0.000000     0.001412   119.588715
	   22 B(1,6,12)       =    120.455713     0.000000    -0.001979   120.453734
	   23 B(1,7,13)       =    119.841590    -0.000003    -0.006250   119.835340
	   24 B(1,7,14)       =    119.838294     0.000001     0.002071   119.840365
	   25 B(2,1,6)        =    120.284284    -0.000000    -0.002621   120.281663
	   26 B(2,1,7)        =    119.816002     0.000002     0.004034   119.820036
	   27 B(2,3,4)        =    120.051731     0.000000     0.000130   120.051861
	   28 B(2,3,9)        =    119.734286    -0.000000     0.000434   119.734720
	   29 B(3,2,8)        =    119.892783    -0.000001    -0.002609   119.890173
	   30 B(3,4,5)        =    120.451064    -0.000000    -0.001171   120.449894
	   31 B(3,4,10)       =    119.774889     0.000000     0.000876   119.775765
	   32 B(4,3,9)        =    120.211109     0.000000    -0.000614   120.210495
	   33 B(4,5,6)        =    120.042951     0.000000     0.000651   120.043602
	   34 B(4,5,11)       =    120.211643    -0.000000    -0.001279   120.210364
	   35 B(5,4,10)       =    119.774030     0.000000     0.000279   119.774309
	   36 B(5,6,12)       =    119.890089    -0.000000    -0.000097   119.889992
	   37 B(6,1,7)        =    119.893018    -0.000002    -0.001806   119.891212
	   38 B(6,5,11)       =    119.743407    -0.000000     0.000672   119.744079
	   39 B(7,13,17)      =    119.801395    -0.000001    -0.007453   119.793941
	   40 B(7,13,18)      =    122.975073     0.000001     0.003956   122.979029
	   41 B(7,14,15)      =    122.974076     0.000001     0.001289   122.975365
	   42 B(7,14,16)      =    119.785926    -0.000001    -0.007169   119.778757
	   43 B(13,7,14)      =    120.317165     0.000002     0.004169   120.321334
	   44 B(15,14,16)     =    117.126961     0.000000    -0.001728   117.125232
	   45 B(17,13,18)     =    117.146167     0.000000    -0.000271   117.145896
	   46 D(1,2,3,4)      =     -0.405047     0.000000     0.004049    -0.400998
	   47 D(1,2,3,9)      =    178.979621    -0.000000    -0.001309   178.978312
	   48 D(1,6,5,4)      =     -0.686445    -0.000000    -0.014499    -0.700944
	   49 D(1,6,5,11)     =    178.800331    -0.000000    -0.008797   178.791534
	   50 D(1,7,13,17)    =     -9.497583    -0.000000    -0.024856    -9.522439
	   51 D(1,7,13,18)    =    173.794255     0.000000     0.054303   173.848558
	   52 D(1,7,14,15)    =    173.415405     0.000000     0.074950   173.490355
	   53 D(1,7,14,16)    =    -10.563545    -0.000000    -0.056678   -10.620223
	   54 D(2,1,6,5)      =      0.585822     0.000000     0.029188     0.615010
	   55 D(2,1,6,12)     =    177.608423     0.000000     0.014464   177.622887
	   56 *D(2,1,7,13)    =    140.000000    -0.000000    -0.000000   140.000000
	   57 D(2,1,7,14)     =    -39.377142    -0.000000     0.001008   -39.376134
	   58 D(2,3,4,5)      =      0.306053     0.000000     0.010617     0.316670
	   59 D(2,3,4,10)     =   -179.741113    -0.000000    -0.008472  -179.749586
	   60 D(3,2,1,6)      =     -0.039102    -0.000000    -0.023957    -0.063058
	   61 D(3,2,1,7)      =   -179.096836     0.000000     0.003286  -179.093549
	   62 D(3,4,5,6)      =      0.246195    -0.000000    -0.005342     0.240852
	   63 D(3,4,5,11)     =   -179.238156    -0.000000    -0.011081  -179.249237
	   64 D(4,3,2,8)      =   -177.620048     0.000000     0.018734  -177.601314
	   65 D(4,5,6,12)     =   -177.726101    -0.000000     0.000198  -177.725902
	   66 D(5,4,3,9)      =   -179.075655     0.000000     0.015994  -179.059661
	   67 D(5,6,1,7)      =    179.642829    -0.000000     0.001981   179.644810
	   68 D(6,1,2,8)      =    177.159536    -0.000000    -0.038819   177.120717
	   69 D(6,1,7,13)     =    -39.061456     0.000000     0.027144   -39.034312
	   70 D(6,1,7,14)     =    141.561403     0.000000     0.028152   141.589555
	   71 D(6,5,4,10)     =   -179.706640     0.000000     0.013746  -179.692893
	   72 D(7,1,2,8)      =     -1.898198    -0.000000    -0.011576    -1.909774
	   73 D(7,1,6,12)     =     -3.334571    -0.000000    -0.012743    -3.347314
	   74 D(8,2,3,9)      =      1.764620     0.000000     0.013376     1.777996
	   75 D(9,3,4,10)     =      0.877179    -0.000000    -0.003095     0.874084
	   76 D(10,4,5,11)    =      0.809010     0.000000     0.008007     0.817017
	   77 D(11,5,6,12)    =      1.760675    -0.000000     0.005900     1.766576
	   78 D(13,7,14,15)   =     -5.958735     0.000000     0.076029    -5.882706
	   79 D(13,7,14,16)   =    170.062315    -0.000000    -0.055599   170.006716
	   80 D(14,7,13,17)   =    169.876536     0.000000    -0.025883   169.850653
	   81 D(14,7,13,18)   =     -6.831626     0.000000     0.053276    -6.778350
	 ---------------------------------------------------------------------------
	Successfully symmetrized geometry.

  ==> Convergence Check <==

  Measures of convergence in internal coordinates in au.
  Criteria marked as inactive (o), active & met (*), and active & unmet ( ).
  ---------------------------------------------------------------------------------------------
   Step     Total Energy     Delta E     MAX Force     RMS Force      MAX Disp      RMS Disp   
  ---------------------------------------------------------------------------------------------
    Convergence Criteria    1.00e-06 *    3.00e-04 *             o    1.20e-03 *             o
  ---------------------------------------------------------------------------------------------
      7    -381.47044920   -5.15e-07 *    4.29e-05 *    1.16e-05 o    1.33e-03      3.46e-04 o  ~
  ---------------------------------------------------------------------------------------------


  **** Optimization is complete! (in 7 steps) ****

  ==> Optimization Summary <==

  Measures of convergence in internal coordinates in au.
  --------------------------------------------------------------------------------------------------------------- ~
   Step         Total Energy             Delta E       MAX Force       RMS Force        MAX Disp        RMS Disp  ~
  --------------------------------------------------------------------------------------------------------------- ~
      1    -381.465255594295   -381.465255594295      0.00455350      0.00148804      0.15775583      0.05109725  ~
      2    -381.468759593740     -0.003503999446      0.00931107      0.00184999      0.15795328      0.04078382  ~
      3    -381.470148455670     -0.001388861930      0.00806577      0.00144342      0.06382960      0.01361550  ~
      4    -381.470429102390     -0.000280646720      0.00111375      0.00022803      0.02159705      0.00518446  ~
      5    -381.470441279796     -0.000012177405      0.00044587      0.00012109      0.01071950      0.00228980  ~
      6    -381.470448683397     -0.000007403601      0.00012624      0.00003420      0.00286295      0.00076638  ~
      7    -381.470449198334     -0.000000514938      0.00004290      0.00001158      0.00132695      0.00034581  ~
  --------------------------------------------------------------------------------------------------------------- ~

	Writing optimization data to binary file.
	Final energy is   -381.4704491983344
	Final (previous) structure:
	Cartesian Geometry (in Angstrom)
	    C    -0.0125285203  -0.0014941671  -0.1779208942
	    C     0.0322887621   1.2184114207   0.5219178590
	    C     0.0448686863   1.2119811563   1.9133877020
	    C     0.0045338358  -0.0006278057   2.6084004523
	    C    -0.0421835552  -1.2138619383   1.9146762490
	    C    -0.0436369852  -1.2211075649   0.5232505909
	    C    -0.0059296628  -0.0015023931  -1.6452660327
	    H     0.1027581402   2.1597333697  -0.0158254116
	    H     0.0961755739   2.1506259890   2.4555068626
	    H     0.0102958628  -0.0002435916   3.6940429102
	    H    -0.0858473840  -2.1522051565   2.4579825297
	    H    -0.1173041834  -2.1630067376  -0.0131945342
	    N     0.7030510277  -0.9133864873  -2.3036624316
	    N    -0.6990668325   0.9180760632  -2.3099481703
	    H    -0.6519516739   1.0233378105  -3.3167954151
	    H    -1.3519576046   1.5109150493  -1.8142218533
	    H     1.3460891681  -1.5102275267  -1.7999150758
	    H     0.6703453449  -1.0154174898  -3.3114153368
	Saving final (previous) structure.
	Removing binary optimization data file.
			--------------------------
			 OPTKING Finished Execution 
			--------------------------

    Final optimized geometry and variables:
    Molecular point group: c1
    Full point group: C1

    Geometry (in Angstrom), charge = 1, multiplicity = 1:

    C           -0.012528520293    -0.001494167072    -0.177920894243
    C            0.032288762073     1.218411420654     0.521917858972
    C            0.044868686256     1.211981156309     1.913387702045
    C            0.004533835801    -0.000627805728     2.608400452336
    C           -0.042183555234    -1.213861938315     1.914676249027
    C           -0.043636985223    -1.221107564877     0.523250590904
    C           -0.005929662755    -0.001502393072    -1.645266032685
    H            0.102758140239     2.159733369690    -0.015825411604
    H            0.096175573949     2.150625989034     2.455506862559
    H            0.010295862798    -0.000243591643     3.694042910203
    H           -0.085847383981    -2.152205156491     2.457982529721
    H           -0.117304183390    -2.163006737628    -0.013194534236
    N            0.703051027695    -0.913386487340    -2.303662431592
    N           -0.699066832468     0.918076063209    -2.309948170340
    H           -0.651951673895     1.023337810463    -3.316795415077
    H           -1.351957604599     1.510915049334    -1.814221853315
    H            1.346089168092    -1.510227526744    -1.799915075831
    H            0.670345344935    -1.015417489783    -3.311415336846

	Removing binary optimization data file.
	Cleaning optimization helper files.


Properties will be evaluated at   0.000000,   0.000000,   0.000000 [a0]
OEProp: No title given, name of density matrix used for the following properties is 'SCF density'
  Nuclear Dipole Moment: [e a0]
     X:    -0.1682      Y:    -0.0243      Z:    -0.0159

  Electronic Dipole Moment: [e a0]
     X:     0.1718      Y:     0.0248      Z:    -2.2559

  Dipole Moment: [e a0]
     X:     0.0036      Y:     0.0004      Z:    -2.2719     Total:     2.2719

  Dipole Moment: [D]
     X:     0.0091      Y:     0.0011      Z:    -5.7745     Total:     5.7746

  Quadrupole Moment: [D A]
    XX:   -49.6246     YY:   -37.7240     ZZ:   -13.3194
    XY:    -5.8378     XZ:     0.0172     YZ:    -0.0540

  Traceless Quadrupole Moment: [D A]
    XX:   -16.0686     YY:    -4.1680     ZZ:    20.2366
    XY:    -5.8378     XZ:     0.0172     YZ:    -0.0540

  Mulliken Charges: (a.u.)
   Center  Symbol    Alpha    Beta     Spin     Total
       1     C     2.96005  2.96005  0.00000  0.07990
       2     C     3.08083  3.08083  0.00000 -0.16165
       3     C     3.06244  3.06244  0.00000 -0.12488
       4     C     3.05158  3.05158  0.00000 -0.10316
       5     C     3.06265  3.06265  0.00000 -0.12529
       6     C     3.08164  3.08164  0.00000 -0.16328
       7     C     2.72411  2.72411  0.00000  0.55179
       8     H     0.41401  0.41401  0.00000  0.17198
       9     H     0.40554  0.40554  0.00000  0.18893
      10     H     0.40406  0.40406  0.00000  0.19187
      11     H     0.40554  0.40554  0.00000  0.18892
      12     H     0.41396  0.41396  0.00000  0.17209
      13     N     3.86162  3.86162  0.00000 -0.72325
      14     N     3.86196  3.86196  0.00000 -0.72391
      15     H     0.30566  0.30566  0.00000  0.38868
      16     H     0.29937  0.29937  0.00000  0.40127
      17     H     0.29933  0.29933  0.00000  0.40133
      18     H     0.30566  0.30566  0.00000  0.38868

   Total alpha = 32.00000, Total beta = 32.00000, Total charge =  1.00000


    Psi4 stopped on: Saturday, 29 September 2018 08:54PM
    Psi4 wall time for execution: 0:03:16.23

*** Psi4 exiting successfully. Buy a developer a beer!
