
    -----------------------------------------------------------------------
          Psi4: An Open-Source Ab Initio Electronic Structure Package
                               Psi4 1.2.1 release

                         Git: Rev {HEAD} 406f4de 


    R. M. Parrish, L. A. Burns, D. G. A. Smith, A. C. Simmonett,
    A. E. DePrince III, E. G. Hohenstein, U. Bozkaya, A. Yu. Sokolov,
    R. Di Remigio, R. M. Richard, J. F. Gonthier, A. M. James,
    H. R. McAlexander, A. Kumar, M. Saitow, X. Wang, B. P. Pritchard,
    P. Verma, H. F. Schaefer III, K. Patkowski, R. A. King, E. F. Valeev,
    F. A. Evangelista, J. M. Turney, T. D. Crawford, and C. D. Sherrill,
    J. Chem. Theory Comput. 13(7) pp 3185--3197 (2017).
    (doi: 10.1021/acs.jctc.7b00174)


                         Additional Contributions by
    P. Kraus, H. Kruse, M. H. Lechner, M. C. Schieber, and R. A. Shaw

    -----------------------------------------------------------------------


    Psi4 started on: Saturday, 29 September 2018 05:08PM

    Process ID: 12770
    Host:       loro.prib.upf.edu
    PSIDATADIR: /shared/joao/test_parameterize/miniconda3/share/psi4
    Memory:     500.0 MiB
    Threads:    1
    
  ==> Input File <==

--------------------------------------------------------------------------
set_num_threads(1)
set_memory('5348 MB')

set { scf_mem_safety_factor 0.7 }

set { reference rks }
set { basis cc-pVDZ }

molecule MOL {
    0 1
    noreorient
    nocom
    symmetry c1
    O    1.050400   0.042900  -0.048100
    C    2.474100   0.047400  -0.029000
    C    3.002600  -1.068900  -0.932000
    N    1.943454  -1.673141  -1.738599
    H    0.760400   0.728400   0.578000
    H    2.809900  -0.097900   1.003200
    H    2.817400   1.026800  -0.378600
    H    3.489285  -1.839811  -0.323253
    H    3.778425  -0.664035  -1.591724
    H    1.285014  -2.153441  -1.126022
    H    2.353249  -2.396525  -2.329390
}

set optking { frozen_dihedral = (" 1 2 3 4 ") }

energy, wfn = energy('B3LYP-D3', return_wfn=True)

import os
os.chdir(os.environ['HTMD_PSI4_WORKDIR'])

oeprop(wfn, 'DIPOLE', 'QUADRUPOLE', 'MULLIKEN_CHARGES')

with open('psi4out.xyz', 'w') as f:
    f.write('11 ' )
    f.write('%.12f\n' % energy)
    f.write(MOL.save_string_xyz())
--------------------------------------------------------------------------
  Threads set to 1 by Python driver.

  Memory set to   4.981 GiB by Python driver.

*** tstart() called on loro.prib.upf.edu
*** at Sat Sep 29 17:08:50 2018

   => Loading Basis Set <=

    Name: CC-PVDZ
    Role: ORBITAL
    Keyword: BASIS
    atoms 1    entry O          line   198 file /shared/joao/test_parameterize/miniconda3/share/psi4/basis/cc-pvdz.gbs 
    atoms 2-3  entry C          line   138 file /shared/joao/test_parameterize/miniconda3/share/psi4/basis/cc-pvdz.gbs 
    atoms 4    entry N          line   168 file /shared/joao/test_parameterize/miniconda3/share/psi4/basis/cc-pvdz.gbs 
    atoms 5-11 entry H          line    22 file /shared/joao/test_parameterize/miniconda3/share/psi4/basis/cc-pvdz.gbs 


         ---------------------------------------------------------
                                   SCF
            by Justin Turney, Rob Parrish, Andy Simmonett
                             and Daniel Smith
                              RKS Reference
                        1 Threads,   5100 MiB Core
         ---------------------------------------------------------

  ==> Geometry <==

    Molecular point group: c1
    Full point group: C1

    Geometry (in Angstrom), charge = 0, multiplicity = 1:

       Center              X                  Y                   Z               Mass       
    ------------   -----------------  -----------------  -----------------  -----------------
         O            1.050400000000     0.042900000000    -0.048100000000    15.994914619560
         C            2.474100000000     0.047400000000    -0.029000000000    12.000000000000
         C            3.002600000000    -1.068900000000    -0.932000000000    12.000000000000
         N            1.943454000000    -1.673141000000    -1.738599000000    14.003074004780
         H            0.760400000000     0.728400000000     0.578000000000     1.007825032070
         H            2.809900000000    -0.097900000000     1.003200000000     1.007825032070
         H            2.817400000000     1.026800000000    -0.378600000000     1.007825032070
         H            3.489285000000    -1.839811000000    -0.323253000000     1.007825032070
         H            3.778425000000    -0.664035000000    -1.591724000000     1.007825032070
         H            1.285014000000    -2.153441000000    -1.126022000000     1.007825032070
         H            2.353249000000    -2.396525000000    -2.329390000000     1.007825032070

  Running in c1 symmetry.

  Rotational constants: A =      0.28530  B =      0.04436  C =      0.03909 [cm^-1]
  Rotational constants: A =   8552.99873  B =   1329.79860  C =   1171.76691 [MHz]
  Nuclear repulsion =  134.185619628240346

  Charge       = 0
  Multiplicity = 1
  Electrons    = 34
  Nalpha       = 17
  Nbeta        = 17

  ==> Algorithm <==

  SCF Algorithm Type is DF.
  DIIS enabled.
  MOM disabled.
  Fractional occupation disabled.
  Guess Type is SAD.
  Energy threshold   = 1.00e-06
  Density threshold  = 1.00e-06
  Integral threshold = 0.00e+00

  ==> Primary Basis <==

  Basis Set: CC-PVDZ
    Blend: CC-PVDZ
    Number of shells: 45
    Number of basis function: 91
    Number of Cartesian functions: 95
    Spherical Harmonics?: true
    Max angular momentum: 2

  ==> DFT Potential <==

   => Composite Functional: B3LYP-D3ZERO <= 

    B3LYP-d3zero Hyb-GGA Exchange-Correlation Functional

    P. J. Stephens, F. J. Devlin, C. F. Chabalowski, and M. J. Frisch, J. Phys. Chem. 98, 11623 (1994)

    Deriv               =              1
    GGA                 =           TRUE
    Meta                =          FALSE

    Exchange Hybrid     =           TRUE
    MP2 Hybrid          =          FALSE

   => Exchange Functionals <=

    0.0800   Slater exchange
    0.7200         Becke 88

   => Exact (HF) Exchange <=

    0.2000               HF 

   => Correlation Functionals <=

    0.1900   Vosko, Wilk & Nusair (VWN5_RPA)
    0.8100   Lee, Yang & Parr

   => Molecular Quadrature <=

    Radial Scheme       =       TREUTLER
    Pruning Scheme      =           FLAT
    Nuclear Scheme      =       TREUTLER

    BS radius alpha     =              1
    Pruning alpha       =              1
    Radial Points       =             75
    Spherical Points    =            302
    Total Points        =         245090
    Total Blocks        =           1886
    Max Points          =            256
    Max Functions       =             91

   => -D3ZERO: Empirical Dispersion <=

    Grimme's -D3 (zero-damping) Dispersion Correction
    Grimme S.; Antony J.; Ehrlich S.; Krieg H. (2010), J. Chem. Phys., 132: 154104

        S6 =   1.000000E+00
        S8 =   1.703000E+00
       SR6 =   1.261000E+00
       SR8 =   1.000000E+00
    ALPHA6 =   1.400000E+01

   => Loading Basis Set <=

    Name: (CC-PVDZ AUX)
    Role: JKFIT
    Keyword: DF_BASIS_SCF
    atoms 1    entry O          line   221 file /shared/joao/test_parameterize/miniconda3/share/psi4/basis/cc-pvdz-jkfit.gbs 
    atoms 2-3  entry C          line   121 file /shared/joao/test_parameterize/miniconda3/share/psi4/basis/cc-pvdz-jkfit.gbs 
    atoms 4    entry N          line   171 file /shared/joao/test_parameterize/miniconda3/share/psi4/basis/cc-pvdz-jkfit.gbs 
    atoms 5-11 entry H          line    51 file /shared/joao/test_parameterize/miniconda3/share/psi4/basis/cc-pvdz-jkfit.gbs 

  ==> Pre-Iterations <==

   -------------------------------------------------------
    Irrep   Nso     Nmo     Nalpha   Nbeta   Ndocc  Nsocc
   -------------------------------------------------------
     A         91      91       0       0       0       0
   -------------------------------------------------------
    Total      91      91      17      17      17       0
   -------------------------------------------------------

  ==> Integral Setup <==

  DFHelper Memory: AOs need 0.036 [GiB]; user supplied 3.486 [GiB]. Using in-core AOs.

  ==> MemDFJK: Density-Fitted J/K Matrices <==

    J tasked:                   Yes
    K tasked:                   Yes
    wK tasked:                   No
    OpenMP threads:               1
    Memory (MB):               3570
    Algorithm:                 Core
    Schwarz Cutoff:           1E-12
    Mask sparsity (%):       0.0000
    Fitting Condition:        1E-12

   => Auxiliary Basis Set <=

  Basis Set: (CC-PVDZ AUX)
    Blend: CC-PVDZ-JKFIT
    Number of shells: 159
    Number of basis function: 441
    Number of Cartesian functions: 499
    Spherical Harmonics?: true
    Max angular momentum: 3

  Minimum eigenvalue in the overlap matrix is 4.3515567795E-03.
  Using Symmetric Orthogonalization.

  SCF Guess: Superposition of Atomic Densities via on-the-fly atomic UHF.

  ==> Iterations <==

                           Total Energy        Delta E     RMS |[F,P]|

   @DF-RKS iter   0:  -210.86886923271990   -2.10869e+02   3.69195e-02 
   @DF-RKS iter   1:  -210.21371280139405    6.55156e-01   6.90709e-03 
   @DF-RKS iter   2:  -210.03736530926074    1.76347e-01   1.00212e-02 DIIS
   @DF-RKS iter   3:  -210.38091436854586   -3.43549e-01   6.37248e-04 DIIS
   @DF-RKS iter   4:  -210.38193918783784   -1.02482e-03   3.64640e-04 DIIS
   @DF-RKS iter   5:  -210.38241085313186   -4.71665e-04   6.50281e-05 DIIS
   @DF-RKS iter   6:  -210.38242523818917   -1.43851e-05   1.63961e-05 DIIS
   @DF-RKS iter   7:  -210.38242617332804   -9.35139e-07   4.13437e-06 DIIS
   @DF-RKS iter   8:  -210.38242623466877   -6.13407e-08   5.87825e-07 DIIS

  ==> Post-Iterations <==

    Orbital Energies [Eh]
    ---------------------

    Doubly Occupied:                                                      

       1A    -19.124396     2A    -14.292676     3A    -10.222932  
       4A    -10.200626     5A     -1.008119     6A     -0.865566  
       7A     -0.714216     8A     -0.590255     9A     -0.512979  
      10A     -0.476817    11A     -0.446423    12A     -0.410294  
      13A     -0.388940    14A     -0.355934    15A     -0.323702  
      16A     -0.260506    17A     -0.215960  

    Virtual:                                                              

      18A      0.043798    19A      0.083999    20A      0.093045  
      21A      0.101664    22A      0.138167    23A      0.149073  
      24A      0.178572    25A      0.187739    26A      0.244249  
      27A      0.301208    28A      0.444280    29A      0.462686  
      30A      0.489303    31A      0.519128    32A      0.547057  
      33A      0.560733    34A      0.591613    35A      0.621977  
      36A      0.637298    37A      0.650616    38A      0.661283  
      39A      0.699738    40A      0.729277    41A      0.761707  
      42A      0.815963    43A      0.848217    44A      0.918233  
      45A      0.956094    46A      0.990730    47A      1.041732  
      48A      1.062120    49A      1.216477    50A      1.239737  
      51A      1.246516    52A      1.287203    53A      1.336719  
      54A      1.371367    55A      1.463710    56A      1.491926  
      57A      1.545105    58A      1.568061    59A      1.600966  
      60A      1.607415    61A      1.612635    62A      1.664695  
      63A      1.719457    64A      1.731615    65A      1.779643  
      66A      1.795771    67A      1.833113    68A      1.879358  
      69A      1.929016    70A      1.961099    71A      1.997866  
      72A      2.018049    73A      2.041890    74A      2.133068  
      75A      2.168933    76A      2.211678    77A      2.318422  
      78A      2.372816    79A      2.392045    80A      2.462171  
      81A      2.501635    82A      2.542431    83A      2.609722  
      84A      2.672830    85A      2.824000    86A      2.965209  
      87A      3.020774    88A      3.059207    89A      3.128686  
      90A      3.197236    91A      3.705730  

    Final Occupation by Irrep:
              A 
    DOCC [    17 ]

  Energy converged.

  @DF-RKS Final Energy:  -210.38242623466877

   => Energetics <=

    Nuclear Repulsion Energy =            134.1856196282403459
    One-Electron Energy =                -551.4303884997007117
    Two-Electron Energy =                 230.3582470248173593
    DFT Exchange-Correlation Energy =     -23.4910150480257833
    Empirical Dispersion Energy =          -0.0048893400000000
    VV10 Nonlocal Energy =                  0.0000000000000000
    Total Energy =                       -210.3824262346687703



Properties will be evaluated at   0.000000,   0.000000,   0.000000 [a0]

Properties computed using the SCF density matrix

  Nuclear Dipole Moment: [e a0]
     X:   136.3650      Y:   -43.2640      Z:   -42.4976

  Electronic Dipole Moment: [e a0]
     X:  -135.9304      Y:    43.2424      Z:    43.0665

  Dipole Moment: [e a0]
     X:     0.4346      Y:    -0.0215      Z:     0.5689     Total:     0.7162

  Dipole Moment: [D]
     X:     1.1047      Y:    -0.0547      Z:     1.4459     Total:     1.8205


*** tstop() called on loro.prib.upf.edu at Sat Sep 29 17:09:09 2018
Module time:
	user time   =      15.18 seconds =       0.25 minutes
	system time =       0.24 seconds =       0.00 minutes
	total time  =         19 seconds =       0.32 minutes
Total time:
	user time   =      15.18 seconds =       0.25 minutes
	system time =       0.24 seconds =       0.00 minutes
	total time  =         19 seconds =       0.32 minutes


Properties will be evaluated at   0.000000,   0.000000,   0.000000 [a0]
OEProp: No title given, name of density matrix used for the following properties is 'SCF density'
  Nuclear Dipole Moment: [e a0]
     X:   136.3650      Y:   -43.2640      Z:   -42.4976

  Electronic Dipole Moment: [e a0]
     X:  -135.9304      Y:    43.2424      Z:    43.0665

  Dipole Moment: [e a0]
     X:     0.4346      Y:    -0.0215      Z:     0.5689     Total:     0.7162

  Dipole Moment: [D]
     X:     1.1047      Y:    -0.0547      Z:     1.4459     Total:     1.8205

  Quadrupole Moment: [D A]
    XX:   -20.9572     YY:   -20.6815     ZZ:   -26.7438
    XY:    -1.5515     XZ:    -0.2978     YZ:     2.2635

  Traceless Quadrupole Moment: [D A]
    XX:     1.8370     YY:     2.1127     ZZ:    -3.9496
    XY:    -1.5515     XZ:    -0.2978     YZ:     2.2635

  Mulliken Charges: (a.u.)
   Center  Symbol    Alpha    Beta     Spin     Total
       1     O     4.13493  4.13493  0.00000 -0.26986
       2     C     2.92631  2.92631  0.00000  0.14737
       3     C     2.98821  2.98821  0.00000  0.02358
       4     N     3.58266  3.58266  0.00000 -0.16532
       5     H     0.43201  0.43201  0.00000  0.13598
       6     H     0.50364  0.50364  0.00000 -0.00728
       7     H     0.50071  0.50071  0.00000 -0.00141
       8     H     0.50528  0.50528  0.00000 -0.01057
       9     H     0.49404  0.49404  0.00000  0.01192
      10     H     0.46362  0.46362  0.00000  0.07275
      11     H     0.46859  0.46859  0.00000  0.06282

   Total alpha = 17.00000, Total beta = 17.00000, Total charge = -0.00000


    Psi4 stopped on: Saturday, 29 September 2018 05:09PM
    Psi4 wall time for execution: 0:00:19.18

*** Psi4 exiting successfully. Buy a developer a beer!
