
    -----------------------------------------------------------------------
          Psi4: An Open-Source Ab Initio Electronic Structure Package
                               Psi4 1.2.1 release

                         Git: Rev {HEAD} 406f4de 


    R. M. Parrish, L. A. Burns, D. G. A. Smith, A. C. Simmonett,
    A. E. DePrince III, E. G. Hohenstein, U. Bozkaya, A. Yu. Sokolov,
    R. Di Remigio, R. M. Richard, J. F. Gonthier, A. M. James,
    H. R. McAlexander, A. Kumar, M. Saitow, X. Wang, B. P. Pritchard,
    P. Verma, H. F. Schaefer III, K. Patkowski, R. A. King, E. F. Valeev,
    F. A. Evangelista, J. M. Turney, T. D. Crawford, and C. D. Sherrill,
    J. Chem. Theory Comput. 13(7) pp 3185--3197 (2017).
    (doi: 10.1021/acs.jctc.7b00174)


                         Additional Contributions by
    P. Kraus, H. Kruse, M. H. Lechner, M. C. Schieber, and R. A. Shaw

    -----------------------------------------------------------------------


    Psi4 started on: Saturday, 29 September 2018 08:33PM

    Process ID: 26615
    Host:       oliva.prib.upf.edu
    PSIDATADIR: /shared/joao/test_parameterize/miniconda3/share/psi4
    Memory:     500.0 MiB
    Threads:    1
    
  ==> Input File <==

--------------------------------------------------------------------------
set_num_threads(4)
set_memory('3000 MB')

set { scf_mem_safety_factor 0.7 }

set { reference rks }
set { basis 6-31G* }

molecule MOL {
    1 1
    noreorient
    nocom
    symmetry c1
    C   -0.000000  -0.000000  -0.177864
    C    0.036678   1.219374   0.524165
    C    0.031765   1.213120   1.915444
    C    0.000000   0.000000   2.610107
    C   -0.031765  -1.213120   1.915444
    C   -0.036678  -1.219375   0.524165
    C   -0.000000   0.000000  -1.644734
    H    0.018170   2.164705  -0.010854
    H    0.042402   2.152895   2.457886
    H    0.000000   0.000000   3.695756
    H   -0.042402  -2.152895   2.457886
    H   -0.018170  -2.164705  -0.010853
    N   -0.712590  -0.905950  -2.308461
    N    0.712590   0.905950  -2.308460
    H    0.673432   1.006470  -3.315997
    H    1.377190   1.485970  -1.813316
    H   -1.671993  -0.707050  -2.559991
    H   -0.320118  -1.779032  -2.640817
}

set optking { frozen_dihedral = (" 1 7 13 17 ") }

set optking { dynamic_level = 1 
 geom_maxiter = 250
 print_trajectory_xyz_file = True }

energy, wfn = optimize('B3LYP-D3', return_wfn=True)

import os
os.chdir(os.environ['HTMD_PSI4_WORKDIR'])

oeprop(wfn, 'DIPOLE', 'QUADRUPOLE', 'MULLIKEN_CHARGES')

with open('psi4out.xyz', 'w') as f:
    f.write('18 ' )
    f.write('%.12f\n' % energy)
    f.write(MOL.save_string_xyz())
--------------------------------------------------------------------------
  Threads set to 4 by Python driver.

  Memory set to   2.794 GiB by Python driver.
gradient() will perform analytic gradient computation.

*** tstart() called on oliva.prib.upf.edu
*** at Sat Sep 29 20:33:50 2018

   => Loading Basis Set <=

    Name: 6-31G*
    Role: ORBITAL
    Keyword: BASIS
    atoms 1-7         entry C          line   111 file /shared/joao/test_parameterize/miniconda3/share/psi4/basis/6-31gs.gbs 
    atoms 8-12, 15-18 entry H          line    44 file /shared/joao/test_parameterize/miniconda3/share/psi4/basis/6-31gs.gbs 
    atoms 13-14       entry N          line   128 file /shared/joao/test_parameterize/miniconda3/share/psi4/basis/6-31gs.gbs 


         ---------------------------------------------------------
                                   SCF
            by Justin Turney, Rob Parrish, Andy Simmonett
                             and Daniel Smith
                              RKS Reference
                        4 Threads,   2861 MiB Core
         ---------------------------------------------------------

  ==> Geometry <==

    Molecular point group: c1
    Full point group: C1

    Geometry (in Angstrom), charge = 1, multiplicity = 1:

       Center              X                  Y                   Z               Mass       
    ------------   -----------------  -----------------  -----------------  -----------------
         C            0.000000000000     0.000000000000    -0.177864000000    12.000000000000
         C            0.036678000000     1.219374000000     0.524165000000    12.000000000000
         C            0.031765000000     1.213120000000     1.915444000000    12.000000000000
         C            0.000000000000     0.000000000000     2.610107000000    12.000000000000
         C           -0.031765000000    -1.213120000000     1.915444000000    12.000000000000
         C           -0.036678000000    -1.219375000000     0.524165000000    12.000000000000
         C            0.000000000000     0.000000000000    -1.644734000000    12.000000000000
         H            0.018170000000     2.164705000000    -0.010854000000     1.007825032070
         H            0.042402000000     2.152895000000     2.457886000000     1.007825032070
         H            0.000000000000     0.000000000000     3.695756000000     1.007825032070
         H           -0.042402000000    -2.152895000000     2.457886000000     1.007825032070
         H           -0.018170000000    -2.164705000000    -0.010853000000     1.007825032070
         N           -0.712590000000    -0.905950000000    -2.308461000000    14.003074004780
         N            0.712590000000     0.905950000000    -2.308460000000    14.003074004780
         H            0.673432000000     1.006470000000    -3.315997000000     1.007825032070
         H            1.377190000000     1.485970000000    -1.813316000000     1.007825032070
         H           -1.671993000000    -0.707050000000    -2.559991000000     1.007825032070
         H           -0.320118000000    -1.779032000000    -2.640817000000     1.007825032070

  Running in c1 symmetry.

  Rotational constants: A =      0.12103  B =      0.03955  C =      0.03133 [cm^-1]
  Rotational constants: A =   3628.29902  B =   1185.77402  C =    939.35856 [MHz]
  Nuclear repulsion =  416.563680912944051

  Charge       = 1
  Multiplicity = 1
  Electrons    = 64
  Nalpha       = 32
  Nbeta        = 32

  ==> Algorithm <==

  SCF Algorithm Type is DF.
  DIIS enabled.
  MOM disabled.
  Fractional occupation disabled.
  Guess Type is SAD.
  Energy threshold   = 1.00e-08
  Density threshold  = 1.00e-08
  Integral threshold = 0.00e+00

  ==> Primary Basis <==

  Basis Set: 6-31G*
    Blend: 6-31G*
    Number of shells: 72
    Number of basis function: 153
    Number of Cartesian functions: 153
    Spherical Harmonics?: false
    Max angular momentum: 2

  ==> DFT Potential <==

   => Composite Functional: B3LYP-D3ZERO <= 

    B3LYP-d3zero Hyb-GGA Exchange-Correlation Functional

    P. J. Stephens, F. J. Devlin, C. F. Chabalowski, and M. J. Frisch, J. Phys. Chem. 98, 11623 (1994)

    Deriv               =              1
    GGA                 =           TRUE
    Meta                =          FALSE

    Exchange Hybrid     =           TRUE
    MP2 Hybrid          =          FALSE

   => Exchange Functionals <=

    0.0800   Slater exchange
    0.7200         Becke 88

   => Exact (HF) Exchange <=

    0.2000               HF 

   => Correlation Functionals <=

    0.1900   Vosko, Wilk & Nusair (VWN5_RPA)
    0.8100   Lee, Yang & Parr

   => Molecular Quadrature <=

    Radial Scheme       =       TREUTLER
    Pruning Scheme      =           FLAT
    Nuclear Scheme      =       TREUTLER

    BS radius alpha     =              1
    Pruning alpha       =              1
    Radial Points       =             75
    Spherical Points    =            302
    Total Points        =         397082
    Total Blocks        =           3014
    Max Points          =            256
    Max Functions       =            149

   => -D3ZERO: Empirical Dispersion <=

    Grimme's -D3 (zero-damping) Dispersion Correction
    Grimme S.; Antony J.; Ehrlich S.; Krieg H. (2010), J. Chem. Phys., 132: 154104

        S6 =   1.000000E+00
        S8 =   1.703000E+00
       SR6 =   1.261000E+00
       SR8 =   1.000000E+00
    ALPHA6 =   1.400000E+01

   => Loading Basis Set <=

    Name: (6-31G* AUX)
    Role: JKFIT
    Keyword: DF_BASIS_SCF
    atoms 1-7         entry C          line   121 file /shared/joao/test_parameterize/miniconda3/share/psi4/basis/cc-pvdz-jkfit.gbs 
    atoms 8-12, 15-18 entry H          line    51 file /shared/joao/test_parameterize/miniconda3/share/psi4/basis/cc-pvdz-jkfit.gbs 
    atoms 13-14       entry N          line   171 file /shared/joao/test_parameterize/miniconda3/share/psi4/basis/cc-pvdz-jkfit.gbs 

  ==> Pre-Iterations <==

   -------------------------------------------------------
    Irrep   Nso     Nmo     Nalpha   Nbeta   Ndocc  Nsocc
   -------------------------------------------------------
     A        153     153       0       0       0       0
   -------------------------------------------------------
    Total     153     153      32      32      32       0
   -------------------------------------------------------

  ==> Integral Setup <==

  ==> DiskDFJK: Density-Fitted J/K Matrices <==

    J tasked:                  Yes
    K tasked:                  Yes
    wK tasked:                  No
    OpenMP threads:              4
    Integrals threads:           4
    Memory (MB):              2002
    Algorithm:                Core
    Integral Cache:           NONE
    Schwarz Cutoff:          1E-12
    Fitting Condition:       1E-12

   => Auxiliary Basis Set <=

  Basis Set: (6-31G* AUX)
    Blend: CC-PVDZ-JKFIT
    Number of shells: 297
    Number of basis function: 954
    Number of Cartesian functions: 954
    Spherical Harmonics?: false
    Max angular momentum: 3

  Minimum eigenvalue in the overlap matrix is 4.8663943176E-04.
  Using Symmetric Orthogonalization.

  SCF Guess: Superposition of Atomic Densities via on-the-fly atomic UHF.

  ==> Iterations <==

                           Total Energy        Delta E     RMS |[F,P]|

   @DF-RKS iter   0:  -379.61235881701731   -3.79612e+02   4.82083e-02 
   @DF-RKS iter   1:  -380.96942710120788   -1.35707e+00   1.22014e-02 
   @DF-RKS iter   2:  -380.71737857076727    2.52049e-01   1.50800e-02 DIIS
   @DF-RKS iter   3:  -381.39122358952562   -6.73845e-01   3.35309e-03 DIIS
   @DF-RKS iter   4:  -381.42358826898055   -3.23647e-02   9.61287e-04 DIIS
   @DF-RKS iter   5:  -381.42554125191282   -1.95298e-03   4.55886e-04 DIIS
   @DF-RKS iter   6:  -381.42612675962351   -5.85508e-04   1.27767e-04 DIIS
   @DF-RKS iter   7:  -381.42617219734933   -4.54377e-05   4.18747e-05 DIIS
   @DF-RKS iter   8:  -381.42617718635012   -4.98900e-06   9.59556e-06 DIIS
   @DF-RKS iter   9:  -381.42617740337960   -2.17029e-07   5.79538e-06 DIIS
   @DF-RKS iter  10:  -381.42617750443071   -1.01051e-07   9.33978e-07 DIIS
   @DF-RKS iter  11:  -381.42617750643905   -2.00833e-09   5.75027e-07 DIIS
   @DF-RKS iter  12:  -381.42617750749662   -1.05757e-09   1.11067e-07 DIIS
   @DF-RKS iter  13:  -381.42617750754368   -4.70664e-11   5.62803e-08 DIIS
   @DF-RKS iter  14:  -381.42617750755443   -1.07434e-11   1.46638e-08 DIIS
   @DF-RKS iter  15:  -381.42617750755556   -1.13687e-12   4.54360e-09 DIIS

  ==> Post-Iterations <==

    Orbital Energies [Eh]
    ---------------------

    Doubly Occupied:                                                      

       1A    -14.587069     2A    -14.510693     3A    -10.500501  
       4A    -10.371438     5A    -10.359881     6A    -10.358031  
       7A    -10.349292     8A    -10.343499     9A    -10.342512  
      10A     -1.177678    11A     -1.076941    12A     -1.015824  
      13A     -0.925844    14A     -0.904309    15A     -0.841269  
      16A     -0.776744    17A     -0.768882    18A     -0.741958  
      19A     -0.715293    20A     -0.707392    21A     -0.672082  
      22A     -0.629278    23A     -0.606553    24A     -0.586071  
      25A     -0.578343    26A     -0.554033    27A     -0.518787  
      28A     -0.509486    29A     -0.500084    30A     -0.436082  
      31A     -0.413981    32A     -0.406931  

    Virtual:                                                              

      33A     -0.256227    34A     -0.157193    35A     -0.143404  
      36A     -0.097073    37A     -0.072456    38A     -0.048909  
      39A     -0.036982    40A     -0.006285    41A      0.005152  
      42A      0.012554    43A      0.023755    44A      0.056694  
      45A      0.062207    46A      0.094664    47A      0.131562  
      48A      0.138890    49A      0.155588    50A      0.162114  
      51A      0.209654    52A      0.240920    53A      0.298406  
      54A      0.356332    55A      0.360194    56A      0.380951  
      57A      0.395103    58A      0.403040    59A      0.413661  
      60A      0.423878    61A      0.439251    62A      0.448293  
      63A      0.455740    64A      0.469326    65A      0.470806  
      66A      0.482309    67A      0.489266    68A      0.505657  
      69A      0.530565    70A      0.544266    71A      0.555223  
      72A      0.580020    73A      0.616592    74A      0.631112  
      75A      0.665866    76A      0.683449    77A      0.686501  
      78A      0.701316    79A      0.715402    80A      0.725202  
      81A      0.738651    82A      0.751363    83A      0.768418  
      84A      0.773112    85A      0.807322    86A      0.830251  
      87A      0.847855    88A      0.894509    89A      0.956747  
      90A      0.958711    91A      0.986362    92A      1.017480  
      93A      1.044133    94A      1.089562    95A      1.138669  
      96A      1.153798    97A      1.252533    98A      1.272490  
      99A      1.283795   100A      1.306704   101A      1.323793  
     102A      1.339361   103A      1.359852   104A      1.386837  
     105A      1.430800   106A      1.490831   107A      1.507326  
     108A      1.565598   109A      1.625967   110A      1.668383  
     111A      1.705902   112A      1.726239   113A      1.757513  
     114A      1.772114   115A      1.805279   116A      1.827439  
     117A      1.892498   118A      1.953458   119A      1.962947  
     120A      1.982481   121A      1.995793   122A      2.014220  
     123A      2.020106   124A      2.063071   125A      2.113837  
     126A      2.127514   127A      2.150597   128A      2.193929  
     129A      2.214827   130A      2.325123   131A      2.366676  
     132A      2.427689   133A      2.447176   134A      2.458668  
     135A      2.483989   136A      2.513920   137A      2.560636  
     138A      2.583090   139A      2.597842   140A      2.624612  
     141A      2.731785   142A      2.839236   143A      2.977733  
     144A      3.255718   145A      3.616735   146A      3.708092  
     147A      3.910839   148A      3.943300   149A      3.961665  
     150A      4.040641   151A      4.171170   152A      4.249185  
     153A      4.543584  

    Final Occupation by Irrep:
              A 
    DOCC [    32 ]

  Energy converged.

  @DF-RKS Final Energy:  -381.42617750755556

   => Energetics <=

    Nuclear Repulsion Energy =            416.5636809129440508
    One-Electron Energy =               -1328.4539995372820158
    Two-Electron Energy =                 574.8881479886809984
    DFT Exchange-Correlation Energy =     -44.4121291018985289
    Empirical Dispersion Energy =          -0.0118777700000000
    VV10 Nonlocal Energy =                  0.0000000000000000
    Total Energy =                       -381.4261775075555079



Properties will be evaluated at   0.000000,   0.000000,   0.000000 [a0]

Properties computed using the SCF density matrix

  Nuclear Dipole Moment: [e a0]
     X:     0.1106      Y:     0.0120      Z:    -0.1103

  Electronic Dipole Moment: [e a0]
     X:     0.1701      Y:     0.2535      Z:    -1.8826

  Dipole Moment: [e a0]
     X:     0.2806      Y:     0.2655      Z:    -1.9930     Total:     2.0301

  Dipole Moment: [D]
     X:     0.7133      Y:     0.6748      Z:    -5.0656     Total:     5.1599


*** tstop() called on oliva.prib.upf.edu at Sat Sep 29 20:34:20 2018
Module time:
	user time   =     107.32 seconds =       1.79 minutes
	system time =       0.81 seconds =       0.01 minutes
	total time  =         30 seconds =       0.50 minutes
Total time:
	user time   =     107.32 seconds =       1.79 minutes
	system time =       0.81 seconds =       0.01 minutes
	total time  =         30 seconds =       0.50 minutes

*** tstart() called on oliva.prib.upf.edu
*** at Sat Sep 29 20:34:20 2018


         ------------------------------------------------------------
                                   SCF GRAD                          
                          Rob Parrish, Justin Turney,                
                       Andy Simmonett, and Alex Sokolov              
         ------------------------------------------------------------

  ==> Geometry <==

    Molecular point group: c1
    Full point group: C1

    Geometry (in Angstrom), charge = 1, multiplicity = 1:

       Center              X                  Y                   Z               Mass       
    ------------   -----------------  -----------------  -----------------  -----------------
         C            0.000000000000     0.000000000000    -0.177864000000    12.000000000000
         C            0.036678000000     1.219374000000     0.524165000000    12.000000000000
         C            0.031765000000     1.213120000000     1.915444000000    12.000000000000
         C            0.000000000000     0.000000000000     2.610107000000    12.000000000000
         C           -0.031765000000    -1.213120000000     1.915444000000    12.000000000000
         C           -0.036678000000    -1.219375000000     0.524165000000    12.000000000000
         C            0.000000000000     0.000000000000    -1.644734000000    12.000000000000
         H            0.018170000000     2.164705000000    -0.010854000000     1.007825032070
         H            0.042402000000     2.152895000000     2.457886000000     1.007825032070
         H            0.000000000000     0.000000000000     3.695756000000     1.007825032070
         H           -0.042402000000    -2.152895000000     2.457886000000     1.007825032070
         H           -0.018170000000    -2.164705000000    -0.010853000000     1.007825032070
         N           -0.712590000000    -0.905950000000    -2.308461000000    14.003074004780
         N            0.712590000000     0.905950000000    -2.308460000000    14.003074004780
         H            0.673432000000     1.006470000000    -3.315997000000     1.007825032070
         H            1.377190000000     1.485970000000    -1.813316000000     1.007825032070
         H           -1.671993000000    -0.707050000000    -2.559991000000     1.007825032070
         H           -0.320118000000    -1.779032000000    -2.640817000000     1.007825032070

  Nuclear repulsion =  416.563680912944051

  ==> Basis Set <==

  Basis Set: 6-31G*
    Blend: 6-31G*
    Number of shells: 72
    Number of basis function: 153
    Number of Cartesian functions: 153
    Spherical Harmonics?: false
    Max angular momentum: 2

  ==> DFJKGrad: Density-Fitted SCF Gradients <==

    Gradient:                    1
    J tasked:                  Yes
    K tasked:                  Yes
    wK tasked:                  No
    OpenMP threads:              4
    Integrals threads:           4
    Memory (MB):              2002
    Schwarz Cutoff:          0E+00
    Fitting Condition:       1E-12

   => Auxiliary Basis Set <=

  Basis Set: (6-31G* AUX)
    Blend: CC-PVDZ-JKFIT
    Number of shells: 297
    Number of basis function: 954
    Number of Cartesian functions: 954
    Spherical Harmonics?: false
    Max angular momentum: 3

  ==> DFT Potential <==

   => Composite Functional: B3LYP-D3ZERO <= 

    B3LYP-d3zero Hyb-GGA Exchange-Correlation Functional

    P. J. Stephens, F. J. Devlin, C. F. Chabalowski, and M. J. Frisch, J. Phys. Chem. 98, 11623 (1994)

    Deriv               =              1
    GGA                 =           TRUE
    Meta                =          FALSE

    Exchange Hybrid     =           TRUE
    MP2 Hybrid          =          FALSE

   => Exchange Functionals <=

    0.0800   Slater exchange
    0.7200         Becke 88

   => Exact (HF) Exchange <=

    0.2000               HF 

   => Correlation Functionals <=

    0.1900   Vosko, Wilk & Nusair (VWN5_RPA)
    0.8100   Lee, Yang & Parr

   => Molecular Quadrature <=

    Radial Scheme       =       TREUTLER
    Pruning Scheme      =           FLAT
    Nuclear Scheme      =       TREUTLER

    BS radius alpha     =              1
    Pruning alpha       =              1
    Radial Points       =             75
    Spherical Points    =            302
    Total Points        =         397082
    Total Blocks        =           3014
    Max Points          =            256
    Max Functions       =            149


  -Total Gradient:
     Atom            X                  Y                   Z
    ------   -----------------  -----------------  -----------------
       1       -0.002399142380    -0.008783712254     0.011125586446
       2       -0.003133863848    -0.002531902129    -0.006928242117
       3        0.000261898083    -0.003130711243     0.001927158357
       4       -0.000071079692     0.000002204101    -0.000418014462
       5       -0.001407998768     0.001343601017     0.002728077358
       6        0.002261735335     0.004487428241    -0.002630251032
       7       -0.028369439041    -0.031001710252    -0.030208131670
       8        0.000335368187    -0.000198571458    -0.000027440891
       9        0.000413104512     0.000021165707    -0.000254753853
      10        0.000293730103    -0.000094538865    -0.000096361497
      11       -0.000138331322    -0.000018479424     0.000035023648
      12        0.002673418479    -0.001522910600     0.000584250556
      13        0.024964171940     0.033308353047     0.034106455869
      14        0.002379715532     0.008813888593    -0.010740569902
      15        0.002374624199     0.004274169636     0.002751955009
      16       -0.001511665615    -0.004991304940    -0.001282950734
      17        0.002301480122     0.004700766104    -0.005122503309
      18       -0.001222218749    -0.004672887403     0.004453147606


*** tstop() called on oliva.prib.upf.edu at Sat Sep 29 20:34:28 2018
Module time:
	user time   =      28.79 seconds =       0.48 minutes
	system time =       0.30 seconds =       0.00 minutes
	total time  =          8 seconds =       0.13 minutes
Total time:
	user time   =     136.17 seconds =       2.27 minutes
	system time =       1.12 seconds =       0.02 minutes
	total time  =         38 seconds =       0.63 minutes

			-----------------------------------------
			 OPTKING 2.0: for geometry optimizations 
			  - R.A. King,  Bethel University        
			-----------------------------------------
	At level 1: Red. Int., RFO, no backsteps, dynamic trust

	Internal coordinates to be generated automatically.
	Detected frag 1 with atoms:  1 2 3 4 5 6 7 8 9 10 11 12 13 14 15 16 17 18
	---Fragment 1 Bond Connectivity---
	 1 : 2 6 7
	 2 : 1 3 8
	 3 : 2 4 9
	 4 : 3 5 10
	 5 : 4 6 11
	 6 : 1 5 12
	 7 : 1 13 14
	 8 : 2
	 9 : 3
	 10 : 4
	 11 : 5
	 12 : 6
	 13 : 7 17 18
	 14 : 7 15 16
	 15 : 14
	 16 : 14
	 17 : 13
	 18 : 13

	Assuming in current code that numbering for constraints corresponds to unified fragment.
	Frozen dihedral atom list: 
	     1     7    13    17
	---Fragment 1 Geometry and Gradient---
	 C           0.0000000000        0.0000000000       -0.3361142489
	 C           0.0693113751        2.3042829136        0.9905282984
	 C           0.0600271506        2.2924645663        3.6196645829
	 C           0.0000000000        0.0000000000        4.9323874075
	 C          -0.0600271506       -2.2924645663        3.6196645829
	 C          -0.0693113751       -2.3042848033        0.9905282984
	 C           0.0000000000        0.0000000000       -3.1080968214
	 H           0.0343363238        4.0906996085       -0.0205110874
	 H           0.0801281675        4.0683819429        4.6447314059
	 H           0.0000000000        0.0000000000        6.9839666940
	 H          -0.0801281675       -4.0683819429        4.6447314059
	 H          -0.0343363238       -4.0906996085       -0.0205091977
	 N          -1.3465999450       -1.7119973901       -4.3623590784
	 N           1.3465999450        1.7119973901       -4.3623571887
	 H           1.2726020491        1.9019526610       -6.2663261875
	 H           2.6025119329        2.8080763417       -3.4266706324
	 H          -3.1596088661       -1.3361308623       -4.8376818927
	 H          -0.6049353502       -3.3618832616       -4.9904208971
	            -0.0023991424       -0.0087837123        0.0111255864
	            -0.0031338638       -0.0025319021       -0.0069282421
	             0.0002618981       -0.0031307112        0.0019271584
	            -0.0000710797        0.0000022041       -0.0004180145
	            -0.0014079988        0.0013436010        0.0027280774
	             0.0022617353        0.0044874282       -0.0026302510
	            -0.0283694390       -0.0310017103       -0.0302081317
	             0.0003353682       -0.0001985715       -0.0000274409
	             0.0004131045        0.0000211657       -0.0002547539
	             0.0002937301       -0.0000945389       -0.0000963615
	            -0.0001383313       -0.0000184794        0.0000350236
	             0.0026734185       -0.0015229106        0.0005842506
	             0.0249641719        0.0333083530        0.0341064559
	             0.0023797155        0.0088138886       -0.0107405699
	             0.0023746242        0.0042741696        0.0027519550
	            -0.0015116656       -0.0049913049       -0.0012829507
	             0.0023014801        0.0047007661       -0.0051225033
	            -0.0012222187       -0.0046728874        0.0044531476

	Previous optimization step data not found.  Starting new optimization.

	---Fragment 1 Intrafragment Coordinates---
	 - Coordinate -           - BOHR/RAD -       - ANG/DEG -
	 R(1,2)           =         2.659794	       1.407502
	 R(1,6)           =         2.659796	       1.407503
	 R(1,7)           =         2.771983	       1.466870
	 R(2,3)           =         2.629179	       1.391302
	 R(2,8)           =         2.052976	       1.086388
	 R(3,4)           =         2.642393	       1.398294
	 R(3,9)           =         2.050622	       1.085142
	 R(4,5)           =         2.642393	       1.398294
	 R(4,10)          =         2.051579	       1.085649
	 R(5,6)           =         2.629179	       1.391302
	 R(5,11)          =         2.050622	       1.085142
	 R(6,12)          =         2.052973	       1.086386
	 R(7,13)          =         2.513452	       1.330061
	 R(7,14)          =         2.513451	       1.330061
	 R(13,17)         =         1.911598	       1.011574
	 R(13,18)         =         1.914850	       1.013295
	 R(14,15)         =         1.914852	       1.013296
	 R(14,16)         =         1.911600	       1.011575
	 B(1,2,3)         =         2.088380	     119.655376
	 B(1,2,8)         =         2.103396	     120.515689
	 B(1,6,5)         =         2.088379	     119.655315
	 B(1,6,12)        =         2.103396	     120.515729
	 B(1,7,13)        =         2.093264	     119.935172
	 B(1,7,14)        =         2.093263	     119.935135
	 B(2,1,6)         =         2.097220	     120.161857
	 B(2,1,7)         =         2.092983	     119.919082
	 B(2,3,4)         =         2.095279	     120.050636
	 B(2,3,9)         =         2.089719	     119.732108
	 B(3,2,8)         =         2.090149	     119.756722
	 B(3,4,5)         =         2.101793	     120.423859
	 B(3,4,10)        =         2.090696	     119.788070
	 B(4,3,9)         =         2.098135	     120.214297
	 B(4,5,6)         =         2.095280	     120.050677
	 B(4,5,11)        =         2.098135	     120.214297
	 B(5,4,10)        =         2.090696	     119.788070
	 B(5,6,12)        =         2.090149	     119.756743
	 B(6,1,7)         =         2.092982	     119.919061
	 B(6,5,11)        =         2.089719	     119.732067
	 B(7,13,17)       =         2.092411	     119.886317
	 B(7,13,18)       =         2.144860	     122.891401
	 B(7,14,15)       =         2.144860	     122.891405
	 B(7,14,16)       =         2.092412	     119.886393
	 B(13,7,14)       =         2.096659	     120.129694
	 B(15,14,16)      =         2.043399	     117.078146
	 B(17,13,18)      =         2.043400	     117.078224
	 D(1,2,3,4)       =         0.007799	       0.446825
	 D(1,2,3,9)       =        -3.122896	    -178.928735
	 D(1,6,5,4)       =         0.007799	       0.446822
	 D(1,6,5,11)      =        -3.122896	    -178.928737
	*D(1,7,13,17)     =         1.570796	      90.000006
	 D(1,7,13,18)     =        -1.649213	     -94.492927
	 D(1,7,14,15)     =        -3.032165	    -173.730230
	 D(1,7,14,16)     =         0.187844	      10.762681
	 D(2,1,6,5)       =        -0.003906	      -0.223802
	 D(2,1,6,12)      =        -3.091437	    -177.126283
	 D(2,1,7,13)      =        -2.505167	    -143.535494
	 D(2,1,7,14)      =         0.636426	      36.464506
	 D(2,3,4,5)       =        -0.003942	      -0.225875
	 D(2,3,4,10)      =         3.137650	     179.774125
	 D(3,2,1,6)       =        -0.003906	      -0.223806
	 D(3,2,1,7)       =         3.137687	     179.776196
	 D(3,4,5,6)       =        -0.003942	      -0.225874
	 D(3,4,5,11)      =         3.126699	     179.146646
	 D(4,3,2,8)       =         3.095744	     177.373058
	 D(4,5,6,12)      =         3.095744	     177.373055
	 D(5,4,3,9)       =         3.126699	     179.146646
	 D(5,6,1,7)       =         3.137687	     179.776197
	 D(6,1,2,8)       =        -3.091437	    -177.126287
	 D(6,1,7,13)      =         0.636426	      36.464508
	 D(6,1,7,14)      =        -2.505167	    -143.535492
	 D(6,5,4,10)      =         3.137650	     179.774126
	 D(7,1,2,8)       =         0.050156	       2.873714
	 D(7,1,6,12)      =         0.050156	       2.873716
	 D(8,2,3,9)       =        -0.034950	      -2.002503
	 D(9,3,4,10)      =        -0.014894	      -0.853354
	 D(10,4,5,11)     =        -0.014894	      -0.853354
	 D(11,5,6,12)     =        -0.034950	      -2.002504
	 D(13,7,14,15)    =         0.109428	       6.269770
	 D(13,7,14,16)    =        -2.953748	    -169.237319
	 D(14,7,13,17)    =        -1.570796	     -89.999994
	 D(14,7,13,18)    =         1.492380	      85.507073

	Current energy   :      -381.4261775076

	Generating empirical Hessian (Schlegel '84) for each fragment.
	Taking RFO optimization step.
	Going to follow RFO solution 1.
	Using RFO vector 1.
	Norm of target step-size    0.46818
	Projected energy change by RFO approximation:        -0.0122605374

	Back-transformation to cartesian coordinates...
	Could not converge backtransformation.
	Using first guess instead.

	Back-transformation to cartesian coordinates to adjust frozen coordinates...
	Successfully converged to displaced geometry.

	--- Internal Coordinate Step in ANG or DEG, aJ/ANG or AJ/DEG ---
	 ---------------------------------------------------------------------------
	   Coordinate                Previous        Force       Change         New 
	   ----------                --------       ------       ------       ------
	    1 R(1,2)          =      1.407502     0.048399     0.009815     1.417318
	    2 R(1,6)          =      1.407503     0.016453     0.005219     1.412722
	    3 R(1,7)          =      1.466870    -0.049791    -0.008370     1.458500
	    4 R(2,3)          =      1.391302    -0.015842    -0.001984     1.389317
	    5 R(2,8)          =      1.086388     0.001361     0.001536     1.087924
	    6 R(3,4)          =      1.398294     0.013472     0.003338     1.401632
	    7 R(3,9)          =      1.085142     0.000868     0.001784     1.086926
	    8 R(4,5)          =      1.398294     0.018222     0.005337     1.403631
	    9 R(4,10)         =      1.085649     0.000795     0.000190     1.085839
	   10 R(5,6)          =      1.391302    -0.016433    -0.001852     1.389450
	   11 R(5,11)         =      1.085142    -0.000289     0.001967     1.087109
	   12 R(6,12)         =      1.086386    -0.008926     0.004574     1.090960
	   13 R(7,13)         =      1.330061     0.439487     0.055485     1.385546
	   14 R(7,14)         =      1.330061    -0.097862    -0.007309     1.322752
	   15 R(13,17)        =      1.011574    -0.000131     0.009416     1.020990
	   16 R(13,18)        =      1.013295    -0.017236     0.020994     1.034289
	   17 R(14,15)        =      1.013296     0.019806     0.004894     1.018190
	   18 R(14,16)        =      1.011575     0.036937     0.016111     1.027686
	   19 B(1,2,3)        =    119.655376     0.000038     0.121314   119.776690
	   20 B(1,2,8)        =    120.515689    -0.000011     0.041908   120.557597
	   21 B(1,6,5)        =    119.655315    -0.000020    -0.235585   119.419730
	   22 B(1,6,12)       =    120.515729    -0.000084    -0.165732   120.349998
	   23 B(1,7,13)       =    119.935172     0.000939     2.413956   122.349128
	   24 B(1,7,14)       =    119.935135    -0.000385    -1.179316   118.755819
	   25 B(2,1,6)        =    120.161857    -0.000051     0.020148   120.182005
	   26 B(2,1,7)        =    119.919082     0.000393     1.091612   121.010694
	   27 B(2,3,4)        =    120.050636    -0.000085    -0.333808   119.716828
	   28 B(2,3,9)        =    119.732108     0.000061     0.195752   119.927860
	   29 B(3,2,8)        =    119.756722    -0.000028    -0.189085   119.567637
	   30 B(3,4,5)        =    120.423859     0.000087     0.325692   120.749551
	   31 B(3,4,10)       =    119.788070    -0.000050    -0.203574   119.584496
	   32 B(4,3,9)        =    120.214297     0.000024     0.138437   120.352734
	   33 B(4,5,6)        =    120.050677     0.000030     0.071321   120.121998
	   34 B(4,5,11)       =    120.214297    -0.000013     0.119187   120.333484
	   35 B(5,4,10)       =    119.788070    -0.000036    -0.126707   119.661364
	   36 B(5,6,12)       =    119.756743     0.000106     0.448483   120.205225
	   37 B(6,1,7)        =    119.919061    -0.000343    -1.114751   118.804310
	   38 B(6,5,11)       =    119.732067    -0.000017    -0.190631   119.541435
	   39 B(7,13,17)      =    119.886317     0.000232     0.973103   120.859420
	   40 B(7,13,18)      =    122.891401    -0.000168    -1.354219   121.537182
	   41 B(7,14,15)      =    122.891405    -0.000550    -2.690173   120.201232
	   42 B(7,14,16)      =    119.886393     0.000389     1.917690   121.804083
	   43 B(13,7,14)      =    120.129694    -0.000554    -1.305630   118.824064
	   44 B(15,14,16)     =    117.078146     0.000165     0.863253   117.941398
	   45 B(17,13,18)     =    117.078224    -0.000085    -0.367369   116.710855
	   46 D(1,2,3,4)      =      0.446825     0.000006     0.629326     1.076151
	   47 D(1,2,3,9)      =   -178.928735     0.000006     0.586846  -178.341889
	   48 D(1,6,5,4)      =      0.446822     0.000013     1.420357     1.867179
	   49 D(1,6,5,11)     =   -178.928737     0.000002     0.159406  -178.769331
	   50 *D(1,7,13,17)   =     90.000006    -0.000000     0.000000    90.000006
	   51 D(1,7,13,18)    =    -94.492927    -0.000072    -6.677355  -101.170282
	   52 D(1,7,14,15)    =   -173.730230    -0.000034    -3.282043  -177.012273
	   53 D(1,7,14,16)    =     10.762681    -0.000050    -5.064973     5.697708
	   54 D(2,1,6,5)      =     -0.223802    -0.000014    -1.537860    -1.761662
	   55 D(2,1,6,12)     =   -177.126283    -0.000026    -2.818832  -179.945115
	   56 D(2,1,7,13)     =   -143.535494    -0.000078   -11.357290  -154.892784
	   57 D(2,1,7,14)     =     36.464506    -0.000049    -8.255357    28.209149
	   58 D(2,3,4,5)      =     -0.225875    -0.000007    -0.753356    -0.979232
	   59 D(2,3,4,10)     =    179.774125     0.000000     0.028548   179.802672
	   60 D(3,2,1,6)      =     -0.223806     0.000004     0.508473     0.284667
	   61 D(3,2,1,7)      =    179.776196    -0.000002    -0.128195   179.648000
	   62 D(3,4,5,6)      =     -0.225874    -0.000003    -0.288199    -0.514074
	   63 D(3,4,5,11)     =    179.146646     0.000008     0.980878   180.127524
	   64 D(4,3,2,8)      =    177.373058     0.000001     0.122997   177.496054
	   65 D(4,5,6,12)     =    177.373055     0.000024     2.680255   180.053310
	   66 D(5,4,3,9)      =    179.146646    -0.000006    -0.710349   178.436297
	   67 D(5,6,1,7)      =    179.776197    -0.000008    -0.915143   178.861055
	   68 D(6,1,2,8)      =   -177.126287     0.000009     1.027082  -176.099205
	   69 D(6,1,7,13)     =     36.464508    -0.000084   -11.985357    24.479151
	   70 D(6,1,7,14)     =   -143.535492    -0.000055    -8.883424  -152.418916
	   71 D(6,5,4,10)     =    179.774126    -0.000010    -1.070700   178.703426
	   72 D(7,1,2,8)      =      2.873714     0.000003     0.390414     3.264128
	   73 D(7,1,6,12)     =      2.873716    -0.000020    -2.196114     0.677601
	   74 D(8,2,3,9)      =     -2.002503     0.000001     0.080517    -1.921986
	   75 D(9,3,4,10)     =     -0.853354     0.000000     0.071555    -0.781799
	   76 D(10,4,5,11)    =     -0.853354     0.000001     0.198377    -0.654977
	   77 D(11,5,6,12)    =     -2.002504     0.000013     1.419305    -0.583199
	   78 D(13,7,14,15)   =      6.269770    -0.000005    -0.291036     5.978734
	   79 D(13,7,14,16)   =   -169.237319    -0.000021    -2.073966  -171.311285
	   80 D(14,7,13,17)   =    -89.999994    -0.000029    -3.103966   -93.103961
	   81 D(14,7,13,18)   =     85.507073    -0.000101    -9.781321    75.725752
	 ---------------------------------------------------------------------------
	Successfully symmetrized geometry.

  ==> Convergence Check <==

  Measures of convergence in internal coordinates in au.
  Criteria marked as inactive (o), active & met (*), and active & unmet ( ).
  --------------------------------------------------------------------------------------------- ~
   Step     Total Energy     Delta E     MAX Force     RMS Force      MAX Disp      RMS Disp    ~
  --------------------------------------------------------------------------------------------- ~
    Convergence Criteria    1.00e-06 *    3.00e-04 *             o    1.20e-03 *             o  ~
  --------------------------------------------------------------------------------------------- ~
      1    -381.42617751   -3.81e+02      5.33e-02      6.69e-03 o    2.09e-01      5.20e-02 o  ~
  ---------------------------------------------------------------------------------------------

	Writing optimization data to binary file.
	Structure for next step:
	Cartesian Geometry (in Angstrom)
	    C    -0.0070022213   0.0192206865  -0.1662996086
	    C     0.1191218489   1.2369975286   0.5477742610
	    C     0.1243284931   1.2248533551   1.9370287975
	    C     0.0275081836   0.0055927980   2.6215730234
	    C    -0.0953708543  -1.2037193171   1.9196863530
	    C    -0.1331469927  -1.2030692948   0.5307503012
	    C    -0.0232616866   0.0014752320  -1.6246007362
	    H     0.1531206384   2.1872171175   0.0190922729
	    H     0.1937591561   2.1596545291   2.4872421851
	    H     0.0350232988  -0.0016674337   3.7073622282
	    H    -0.1720626786  -2.1453387082   2.4575322029
	    H    -0.2294965800  -2.1421274004  -0.0161324094
	    N    -0.6287584367  -1.0140535814  -2.3469668144
	    N     0.6144178279   0.9573953478  -2.2797761613
	    H     0.5795631000   0.9923526591  -3.2967683599
	    H     1.1885420523   1.6572874975  -1.7932870464
	    H    -1.6113345656  -0.9506098372  -2.6170415537
	    H    -0.0764395832  -1.7751041784  -2.7776629351
			--------------------------
			 OPTKING Finished Execution 
			--------------------------

    Structure for next step:
    Molecular point group: c1
    Full point group: C1

    Geometry (in Angstrom), charge = 1, multiplicity = 1:

    C           -0.007002221339     0.019220686484    -0.166299608619
    C            0.119121848864     1.236997528570     0.547774260993
    C            0.124328493100     1.224853355124     1.937028797451
    C            0.027508183580     0.005592797987     2.621573023440
    C           -0.095370854322    -1.203719317114     1.919686353044
    C           -0.133146992693    -1.203069294819     0.530750301163
    C           -0.023261686577     0.001475232036    -1.624600736205
    H            0.153120638370     2.187217117468     0.019092272872
    H            0.193759156075     2.159654529100     2.487242185071
    H            0.035023298835    -0.001667433665     3.707362228202
    H           -0.172062678633    -2.145338708217     2.457532202906
    H           -0.229496579982    -2.142127400353    -0.016132409397
    N           -0.628758436729    -1.014053581363    -2.346966814399
    N            0.614417827880     0.957395347760    -2.279776161348
    H            0.579563099968     0.992352659060    -3.296768359949
    H            1.188542052317     1.657287497549    -1.793287046386
    H           -1.611334565559    -0.950609837205    -2.617041553698
    H           -0.076439583155    -1.775104178402    -2.777662935141

gradient() will perform analytic gradient computation.

*** tstart() called on oliva.prib.upf.edu
*** at Sat Sep 29 20:34:28 2018

   => Loading Basis Set <=

    Name: 6-31G*
    Role: ORBITAL
    Keyword: BASIS
    atoms 1-7         entry C          line   111 file /shared/joao/test_parameterize/miniconda3/share/psi4/basis/6-31gs.gbs 
    atoms 8-12, 15-18 entry H          line    44 file /shared/joao/test_parameterize/miniconda3/share/psi4/basis/6-31gs.gbs 
    atoms 13-14       entry N          line   128 file /shared/joao/test_parameterize/miniconda3/share/psi4/basis/6-31gs.gbs 


         ---------------------------------------------------------
                                   SCF
            by Justin Turney, Rob Parrish, Andy Simmonett
                             and Daniel Smith
                              RKS Reference
                        4 Threads,   2861 MiB Core
         ---------------------------------------------------------

  ==> Geometry <==

    Molecular point group: c1
    Full point group: C1

    Geometry (in Angstrom), charge = 1, multiplicity = 1:

       Center              X                  Y                   Z               Mass       
    ------------   -----------------  -----------------  -----------------  -----------------
         C           -0.007002221339     0.019220686484    -0.166299608619    12.000000000000
         C            0.119121848864     1.236997528570     0.547774260993    12.000000000000
         C            0.124328493100     1.224853355124     1.937028797451    12.000000000000
         C            0.027508183580     0.005592797987     2.621573023440    12.000000000000
         C           -0.095370854322    -1.203719317114     1.919686353044    12.000000000000
         C           -0.133146992693    -1.203069294819     0.530750301163    12.000000000000
         C           -0.023261686577     0.001475232036    -1.624600736205    12.000000000000
         H            0.153120638370     2.187217117468     0.019092272872     1.007825032070
         H            0.193759156075     2.159654529100     2.487242185071     1.007825032070
         H            0.035023298835    -0.001667433665     3.707362228202     1.007825032070
         H           -0.172062678633    -2.145338708217     2.457532202906     1.007825032070
         H           -0.229496579982    -2.142127400353    -0.016132409397     1.007825032070
         N           -0.628758436729    -1.014053581363    -2.346966814399    14.003074004780
         N            0.614417827880     0.957395347760    -2.279776161348    14.003074004780
         H            0.579563099968     0.992352659060    -3.296768359949     1.007825032070
         H            1.188542052317     1.657287497549    -1.793287046386     1.007825032070
         H           -1.611334565559    -0.950609837205    -2.617041553698     1.007825032070
         H           -0.076439583155    -1.775104178402    -2.777662935141     1.007825032070

  Running in c1 symmetry.

  Rotational constants: A =      0.11965  B =      0.03974  C =      0.03074 [cm^-1]
  Rotational constants: A =   3586.95070  B =   1191.47865  C =    921.63773 [MHz]
  Nuclear repulsion =  414.777935893041047

  Charge       = 1
  Multiplicity = 1
  Electrons    = 64
  Nalpha       = 32
  Nbeta        = 32

  ==> Algorithm <==

  SCF Algorithm Type is DF.
  DIIS enabled.
  MOM disabled.
  Fractional occupation disabled.
  Guess Type is READ.
  Energy threshold   = 1.00e-08
  Density threshold  = 1.00e-08
  Integral threshold = 0.00e+00

  ==> Primary Basis <==

  Basis Set: 6-31G*
    Blend: 6-31G*
    Number of shells: 72
    Number of basis function: 153
    Number of Cartesian functions: 153
    Spherical Harmonics?: false
    Max angular momentum: 2

  ==> DFT Potential <==

   => Composite Functional: B3LYP-D3ZERO <= 

    B3LYP-d3zero Hyb-GGA Exchange-Correlation Functional

    P. J. Stephens, F. J. Devlin, C. F. Chabalowski, and M. J. Frisch, J. Phys. Chem. 98, 11623 (1994)

    Deriv               =              1
    GGA                 =           TRUE
    Meta                =          FALSE

    Exchange Hybrid     =           TRUE
    MP2 Hybrid          =          FALSE

   => Exchange Functionals <=

    0.0800   Slater exchange
    0.7200         Becke 88

   => Exact (HF) Exchange <=

    0.2000               HF 

   => Correlation Functionals <=

    0.1900   Vosko, Wilk & Nusair (VWN5_RPA)
    0.8100   Lee, Yang & Parr

   => Molecular Quadrature <=

    Radial Scheme       =       TREUTLER
    Pruning Scheme      =           FLAT
    Nuclear Scheme      =       TREUTLER

    BS radius alpha     =              1
    Pruning alpha       =              1
    Radial Points       =             75
    Spherical Points    =            302
    Total Points        =         397000
    Total Blocks        =           3005
    Max Points          =            256
    Max Functions       =            149

   => -D3ZERO: Empirical Dispersion <=

    Grimme's -D3 (zero-damping) Dispersion Correction
    Grimme S.; Antony J.; Ehrlich S.; Krieg H. (2010), J. Chem. Phys., 132: 154104

        S6 =   1.000000E+00
        S8 =   1.703000E+00
       SR6 =   1.261000E+00
       SR8 =   1.000000E+00
    ALPHA6 =   1.400000E+01

   => Loading Basis Set <=

    Name: (6-31G* AUX)
    Role: JKFIT
    Keyword: DF_BASIS_SCF
    atoms 1-7         entry C          line   121 file /shared/joao/test_parameterize/miniconda3/share/psi4/basis/cc-pvdz-jkfit.gbs 
    atoms 8-12, 15-18 entry H          line    51 file /shared/joao/test_parameterize/miniconda3/share/psi4/basis/cc-pvdz-jkfit.gbs 
    atoms 13-14       entry N          line   171 file /shared/joao/test_parameterize/miniconda3/share/psi4/basis/cc-pvdz-jkfit.gbs 

  Reading orbitals from file 180, no projection.

  ==> Pre-Iterations <==

   -------------------------------------------------------
    Irrep   Nso     Nmo     Nalpha   Nbeta   Ndocc  Nsocc
   -------------------------------------------------------
     A        153     153       0       0       0       0
   -------------------------------------------------------
    Total     153     153      32      32      32       0
   -------------------------------------------------------

  ==> Integral Setup <==

  ==> DiskDFJK: Density-Fitted J/K Matrices <==

    J tasked:                  Yes
    K tasked:                  Yes
    wK tasked:                  No
    OpenMP threads:              4
    Integrals threads:           4
    Memory (MB):              2002
    Algorithm:                Core
    Integral Cache:           NONE
    Schwarz Cutoff:          1E-12
    Fitting Condition:       1E-12

   => Auxiliary Basis Set <=

  Basis Set: (6-31G* AUX)
    Blend: CC-PVDZ-JKFIT
    Number of shells: 297
    Number of basis function: 954
    Number of Cartesian functions: 954
    Spherical Harmonics?: false
    Max angular momentum: 3

  Minimum eigenvalue in the overlap matrix is 4.9821834920E-04.
  Using Symmetric Orthogonalization.

  SCF Guess: Orbitals guess was supplied from a previous computation.

  ==> Iterations <==

                           Total Energy        Delta E     RMS |[F,P]|

   @DF-RKS iter   0:  -381.34039518653123   -3.81340e+02   3.78915e-03 
   @DF-RKS iter   1:  -381.43178643235927   -9.13912e-02   6.18575e-04 
   @DF-RKS iter   2:  -381.43071973693361    1.06670e-03   8.88765e-04 DIIS
   @DF-RKS iter   3:  -381.43321019780018   -2.49046e-03   1.49223e-04 DIIS
   @DF-RKS iter   4:  -381.43325814602753   -4.79482e-05   8.24934e-05 DIIS
   @DF-RKS iter   5:  -381.43328006151569   -2.19155e-05   2.39050e-05 DIIS
   @DF-RKS iter   6:  -381.43328190889889   -1.84738e-06   6.20294e-06 DIIS
   @DF-RKS iter   7:  -381.43328203388120   -1.24982e-07   2.01979e-06 DIIS
   @DF-RKS iter   8:  -381.43328204637857   -1.24974e-08   8.19074e-07 DIIS
   @DF-RKS iter   9:  -381.43328204872830   -2.34974e-09   2.72991e-07 DIIS
   @DF-RKS iter  10:  -381.43328204898341   -2.55113e-10   1.07808e-07 DIIS
   @DF-RKS iter  11:  -381.43328204903213   -4.87148e-11   2.55470e-08 DIIS
   @DF-RKS iter  12:  -381.43328204903395   -1.81899e-12   2.06458e-08 DIIS
   @DF-RKS iter  13:  -381.43328204903452   -5.68434e-13   2.60056e-09 DIIS

  ==> Post-Iterations <==

    Orbital Energies [Eh]
    ---------------------

    Doubly Occupied:                                                      

       1A    -14.585720     2A    -14.515681     3A    -10.499892  
       4A    -10.374098     5A    -10.364219     6A    -10.359436  
       7A    -10.353361     8A    -10.346982     9A    -10.344041  
      10A     -1.170813    11A     -1.060498    12A     -1.015919  
      13A     -0.926554    14A     -0.906289    15A     -0.839023  
      16A     -0.775667    17A     -0.768532    18A     -0.735672  
      19A     -0.709584    20A     -0.694477    21A     -0.666906  
      22A     -0.629953    23A     -0.605642    24A     -0.584570  
      25A     -0.580405    26A     -0.559611    27A     -0.517316  
      28A     -0.510723    29A     -0.501420    30A     -0.433266  
      31A     -0.416840    32A     -0.409916  

    Virtual:                                                              

      33A     -0.254899    34A     -0.158253    35A     -0.139224  
      36A     -0.101484    37A     -0.076417    38A     -0.055469  
      39A     -0.036545    40A     -0.004413    41A      0.007074  
      42A      0.009700    43A      0.021907    44A      0.055074  
      45A      0.058586    46A      0.088325    47A      0.122353  
      48A      0.127088    49A      0.153227    50A      0.166830  
      51A      0.209182    52A      0.234058    53A      0.298181  
      54A      0.350039    55A      0.365929    56A      0.377636  
      57A      0.392620    58A      0.401476    59A      0.413424  
      60A      0.420224    61A      0.435480    62A      0.445610  
      63A      0.454335    64A      0.467604    65A      0.469771  
      66A      0.481560    67A      0.486840    68A      0.503533  
      69A      0.532475    70A      0.546277    71A      0.555848  
      72A      0.583613    73A      0.614398    74A      0.643960  
      75A      0.675961    76A      0.690820    77A      0.691828  
      78A      0.699813    79A      0.718049    80A      0.726857  
      81A      0.737034    82A      0.738990    83A      0.770841  
      84A      0.786956    85A      0.814284    86A      0.833063  
      87A      0.849909    88A      0.878621    89A      0.945222  
      90A      0.970587    91A      0.994520    92A      1.021717  
      93A      1.076007    94A      1.090612    95A      1.129737  
      96A      1.147150    97A      1.244946    98A      1.269758  
      99A      1.278796   100A      1.295280   101A      1.328162  
     102A      1.336204   103A      1.353826   104A      1.387383  
     105A      1.411752   106A      1.471906   107A      1.522759  
     108A      1.554909   109A      1.616273   110A      1.643791  
     111A      1.701765   112A      1.728002   113A      1.752399  
     114A      1.770490   115A      1.790864   116A      1.810813  
     117A      1.889249   118A      1.940393   119A      1.961128  
     120A      1.970133   121A      1.994466   122A      2.006429  
     123A      2.023651   124A      2.052785   125A      2.101271  
     126A      2.129060   127A      2.149356   128A      2.178270  
     129A      2.209677   130A      2.300119   131A      2.356984  
     132A      2.398220   133A      2.440823   134A      2.457070  
     135A      2.471299   136A      2.495853   137A      2.536766  
     138A      2.580446   139A      2.589838   140A      2.623322  
     141A      2.730374   142A      2.808178   143A      2.986052  
     144A      3.243528   145A      3.613772   146A      3.695767  
     147A      3.902514   148A      3.937965   149A      3.959602  
     150A      4.035496   151A      4.165541   152A      4.249099  
     153A      4.540041  

    Final Occupation by Irrep:
              A 
    DOCC [    32 ]

  Energy converged.

  @DF-RKS Final Energy:  -381.43328204903452

   => Energetics <=

    Nuclear Repulsion Energy =            414.7779358930410467
    One-Electron Energy =               -1324.9763799215365907
    Two-Electron Energy =                 573.1425486761910406
    DFT Exchange-Correlation Energy =     -44.3657058267299718
    Empirical Dispersion Energy =          -0.0116808700000000
    VV10 Nonlocal Energy =                  0.0000000000000000
    Total Energy =                       -381.4332820490344602



Properties will be evaluated at   0.000000,   0.000000,   0.000000 [a0]

Properties computed using the SCF density matrix

  Nuclear Dipole Moment: [e a0]
     X:     0.0630      Y:     0.1383      Z:     0.7155

  Electronic Dipole Moment: [e a0]
     X:     0.1918      Y:     0.1729      Z:    -2.6368

  Dipole Moment: [e a0]
     X:     0.2548      Y:     0.3111      Z:    -1.9213     Total:     1.9629

  Dipole Moment: [D]
     X:     0.6477      Y:     0.7908      Z:    -4.8835     Total:     4.9893


*** tstop() called on oliva.prib.upf.edu at Sat Sep 29 20:34:53 2018
Module time:
	user time   =      91.05 seconds =       1.52 minutes
	system time =       0.66 seconds =       0.01 minutes
	total time  =         25 seconds =       0.42 minutes
Total time:
	user time   =     228.01 seconds =       3.80 minutes
	system time =       1.84 seconds =       0.03 minutes
	total time  =         63 seconds =       1.05 minutes

*** tstart() called on oliva.prib.upf.edu
*** at Sat Sep 29 20:34:53 2018


         ------------------------------------------------------------
                                   SCF GRAD                          
                          Rob Parrish, Justin Turney,                
                       Andy Simmonett, and Alex Sokolov              
         ------------------------------------------------------------

  ==> Geometry <==

    Molecular point group: c1
    Full point group: C1

    Geometry (in Angstrom), charge = 1, multiplicity = 1:

       Center              X                  Y                   Z               Mass       
    ------------   -----------------  -----------------  -----------------  -----------------
         C           -0.007002221339     0.019220686484    -0.166299608619    12.000000000000
         C            0.119121848864     1.236997528570     0.547774260993    12.000000000000
         C            0.124328493100     1.224853355124     1.937028797451    12.000000000000
         C            0.027508183580     0.005592797987     2.621573023440    12.000000000000
         C           -0.095370854322    -1.203719317114     1.919686353044    12.000000000000
         C           -0.133146992693    -1.203069294819     0.530750301163    12.000000000000
         C           -0.023261686577     0.001475232036    -1.624600736205    12.000000000000
         H            0.153120638370     2.187217117468     0.019092272872     1.007825032070
         H            0.193759156075     2.159654529100     2.487242185071     1.007825032070
         H            0.035023298835    -0.001667433665     3.707362228202     1.007825032070
         H           -0.172062678633    -2.145338708217     2.457532202906     1.007825032070
         H           -0.229496579982    -2.142127400353    -0.016132409397     1.007825032070
         N           -0.628758436729    -1.014053581363    -2.346966814399    14.003074004780
         N            0.614417827880     0.957395347760    -2.279776161348    14.003074004780
         H            0.579563099968     0.992352659060    -3.296768359949     1.007825032070
         H            1.188542052317     1.657287497549    -1.793287046386     1.007825032070
         H           -1.611334565559    -0.950609837205    -2.617041553698     1.007825032070
         H           -0.076439583155    -1.775104178402    -2.777662935141     1.007825032070

  Nuclear repulsion =  414.777935893041047

  ==> Basis Set <==

  Basis Set: 6-31G*
    Blend: 6-31G*
    Number of shells: 72
    Number of basis function: 153
    Number of Cartesian functions: 153
    Spherical Harmonics?: false
    Max angular momentum: 2

  ==> DFJKGrad: Density-Fitted SCF Gradients <==

    Gradient:                    1
    J tasked:                  Yes
    K tasked:                  Yes
    wK tasked:                  No
    OpenMP threads:              4
    Integrals threads:           4
    Memory (MB):              2002
    Schwarz Cutoff:          0E+00
    Fitting Condition:       1E-12

   => Auxiliary Basis Set <=

  Basis Set: (6-31G* AUX)
    Blend: CC-PVDZ-JKFIT
    Number of shells: 297
    Number of basis function: 954
    Number of Cartesian functions: 954
    Spherical Harmonics?: false
    Max angular momentum: 3

  ==> DFT Potential <==

   => Composite Functional: B3LYP-D3ZERO <= 

    B3LYP-d3zero Hyb-GGA Exchange-Correlation Functional

    P. J. Stephens, F. J. Devlin, C. F. Chabalowski, and M. J. Frisch, J. Phys. Chem. 98, 11623 (1994)

    Deriv               =              1
    GGA                 =           TRUE
    Meta                =          FALSE

    Exchange Hybrid     =           TRUE
    MP2 Hybrid          =          FALSE

   => Exchange Functionals <=

    0.0800   Slater exchange
    0.7200         Becke 88

   => Exact (HF) Exchange <=

    0.2000               HF 

   => Correlation Functionals <=

    0.1900   Vosko, Wilk & Nusair (VWN5_RPA)
    0.8100   Lee, Yang & Parr

   => Molecular Quadrature <=

    Radial Scheme       =       TREUTLER
    Pruning Scheme      =           FLAT
    Nuclear Scheme      =       TREUTLER

    BS radius alpha     =              1
    Pruning alpha       =              1
    Radial Points       =             75
    Spherical Points    =            302
    Total Points        =         397000
    Total Blocks        =           3005
    Max Points          =            256
    Max Functions       =            149


  -Total Gradient:
     Atom            X                  Y                   Z
    ------   -----------------  -----------------  -----------------
       1        0.007963209580    -0.001359147756     0.006986087415
       2       -0.000512549287     0.001917620433    -0.002309101303
       3       -0.001131898923    -0.001010819589     0.002435132026
       4        0.000547422452     0.003259018241     0.001310740126
       5       -0.000163251397    -0.001108150648    -0.001916168499
       6        0.001280083379     0.002200735779     0.000042590697
       7       -0.007487746566    -0.002400902870    -0.008194434556
       8        0.000857441654     0.000425858891    -0.001186615944
       9        0.000115156837     0.001271003030     0.000418797522
      10       -0.000000487358     0.000096795848    -0.000015051870
      11       -0.000308433012    -0.001601215226     0.000020264840
      12        0.000547080172    -0.004984971133    -0.001013669500
      13       -0.003208603591     0.013204404086     0.010028091580
      14       -0.004648284362    -0.000715533976     0.001079505991
      15        0.000189806617     0.000136856879    -0.002159178121
      16        0.005003766769     0.007063033264     0.005730198316
      17       -0.006874342019     0.002914804371    -0.008623141774
      18        0.007826952567    -0.019320456703    -0.002637980327


*** tstop() called on oliva.prib.upf.edu at Sat Sep 29 20:35:01 2018
Module time:
	user time   =      27.98 seconds =       0.47 minutes
	system time =       0.31 seconds =       0.01 minutes
	total time  =          8 seconds =       0.13 minutes
Total time:
	user time   =     256.10 seconds =       4.27 minutes
	system time =       2.17 seconds =       0.04 minutes
	total time  =         71 seconds =       1.18 minutes

			-----------------------------------------
			 OPTKING 2.0: for geometry optimizations 
			  - R.A. King,  Bethel University        
			-----------------------------------------
	At level 1: Red. Int., RFO, no backsteps, dynamic trust

	Previous internal coordinate definitions found.
	---Fragment 1 Geometry and Gradient---
	 C          -0.0132322807        0.0363218335       -0.3142607163
	 C           0.2251076708        2.3375865561        1.0351433359
	 C           0.2349468025        2.3146373941        3.6604539387
	 C           0.0519829334        0.0105688565        4.9540550517
	 C          -0.1802247957       -2.2746998502        3.6276814683
	 C          -0.2516113516       -2.2734714861        1.0029727141
	 C          -0.0439582170        0.0027877845       -3.0700504667
	 H           0.2893560718        4.1332413452        0.0360791670
	 H           0.3661517407        4.0811556016        4.7002065559
	 H           0.0661844431       -0.0031509930        7.0058992867
	 H          -0.3251513403       -4.0541026208        4.6440628262
	 H          -0.4336856846       -4.0480341284       -0.0304858356
	 N          -1.1881812492       -1.9162835528       -4.4351245222
	 N           1.1610814259        1.8092150082       -4.3081525892
	 H           1.0952155357        1.8752747529       -6.2299893239
	 H           2.2460189763        3.1318194938       -3.3888213953
	 H          -3.0449810374       -1.7963922515       -4.9454918149
	 H          -0.1444498779       -3.3544607545       -5.2490222369
	             0.0079632096       -0.0013591478        0.0069860874
	            -0.0005125493        0.0019176204       -0.0023091013
	            -0.0011318989       -0.0010108196        0.0024351320
	             0.0005474225        0.0032590182        0.0013107401
	            -0.0001632514       -0.0011081506       -0.0019161685
	             0.0012800834        0.0022007358        0.0000425907
	            -0.0074877466       -0.0024009029       -0.0081944346
	             0.0008574417        0.0004258589       -0.0011866159
	             0.0001151568        0.0012710030        0.0004187975
	            -0.0000004874        0.0000967958       -0.0000150519
	            -0.0003084330       -0.0016012152        0.0000202648
	             0.0005470802       -0.0049849711       -0.0010136695
	            -0.0032086036        0.0132044041        0.0100280916
	            -0.0046482844       -0.0007155340        0.0010795060
	             0.0001898066        0.0001368569       -0.0021591781
	             0.0050037668        0.0070630333        0.0057301983
	            -0.0068743420        0.0029148044       -0.0086231418
	             0.0078269526       -0.0193204567       -0.0026379803

	---Fragment 1 Intrafragment Coordinates---
	 - Coordinate -           - BOHR/RAD -       - ANG/DEG -
	 R(1,2)           =         2.678342	       1.417318
	 R(1,6)           =         2.669658	       1.412722
	 R(1,7)           =         2.756165	       1.458500
	 R(2,3)           =         2.625429	       1.389317
	 R(2,8)           =         2.055878	       1.087924
	 R(3,4)           =         2.648700	       1.401632
	 R(3,9)           =         2.053993	       1.086926
	 R(4,5)           =         2.652478	       1.403631
	 R(4,10)          =         2.051939	       1.085839
	 R(5,6)           =         2.625680	       1.389450
	 R(5,11)          =         2.054339	       1.087109
	 R(6,12)          =         2.061616	       1.090960
	 R(7,13)          =         2.618303	       1.385546
	 R(7,14)          =         2.499639	       1.322752
	 R(13,17)         =         1.929392	       1.020990
	 R(13,18)         =         1.954523	       1.034289
	 R(14,15)         =         1.924099	       1.018190
	 R(14,16)         =         1.942046	       1.027686
	 B(1,2,3)         =         2.090498	     119.776690
	 B(1,2,8)         =         2.104127	     120.557597
	 B(1,6,5)         =         2.084267	     119.419730
	 B(1,6,12)        =         2.100504	     120.349998
	 B(1,7,13)        =         2.135395	     122.349128
	 B(1,7,14)        =         2.072680	     118.755819
	 B(2,1,6)         =         2.097572	     120.182005
	 B(2,1,7)         =         2.112035	     121.010694
	 B(2,3,4)         =         2.089453	     119.716828
	 B(2,3,9)         =         2.093136	     119.927860
	 B(3,2,8)         =         2.086849	     119.567637
	 B(3,4,5)         =         2.107477	     120.749551
	 B(3,4,10)        =         2.087143	     119.584496
	 B(4,3,9)         =         2.100551	     120.352734
	 B(4,5,6)         =         2.096524	     120.121998
	 B(4,5,11)        =         2.100215	     120.333484
	 B(5,4,10)        =         2.088485	     119.661364
	 B(5,6,12)        =         2.097977	     120.205225
	 B(6,1,7)         =         2.073526	     118.804310
	 B(6,5,11)        =         2.086392	     119.541435
	 B(7,13,17)       =         2.109395	     120.859420
	 B(7,13,18)       =         2.121224	     121.537182
	 B(7,14,15)       =         2.097907	     120.201232
	 B(7,14,16)       =         2.125882	     121.804083
	 B(13,7,14)       =         2.073871	     118.824064
	 B(15,14,16)      =         2.058466	     117.941398
	 B(17,13,18)      =         2.036989	     116.710855
	 D(1,2,3,4)       =         0.018782	       1.076151
	 D(1,2,3,9)       =        -3.112653	    -178.341889
	 D(1,6,5,4)       =         0.032588	       1.867179
	 D(1,6,5,11)      =        -3.120113	    -178.769331
	*D(1,7,13,17)     =         1.570796	      90.000006
	 D(1,7,13,18)     =        -1.765755	    -101.170282
	 D(1,7,14,15)     =        -3.089447	    -177.012273
	 D(1,7,14,16)     =         0.099444	       5.697708
	 D(2,1,6,5)       =        -0.030747	      -1.761662
	 D(2,1,6,12)      =        -3.140635	    -179.945115
	 D(2,1,7,13)      =        -2.703389	    -154.892784
	 D(2,1,7,14)      =         0.492343	      28.209149
	 D(2,3,4,5)       =        -0.017091	      -0.979232
	 D(2,3,4,10)      =         3.138149	     179.802672
	 D(3,2,1,6)       =         0.004968	       0.284667
	 D(3,2,1,7)       =         3.135449	     179.648000
	 D(3,4,5,6)       =        -0.008972	      -0.514074
	 D(3,4,5,11)      =        -3.139367	    -179.872476
	 D(4,3,2,8)       =         3.097891	     177.496054
	 D(4,5,6,12)      =        -3.140662	    -179.946690
	 D(5,4,3,9)       =         3.114301	     178.436297
	 D(5,6,1,7)       =         3.121714	     178.861055
	 D(6,1,2,8)       =        -3.073511	    -176.099205
	 D(6,1,7,13)      =         0.427242	      24.479151
	 D(6,1,7,14)      =        -2.660212	    -152.418916
	 D(6,5,4,10)      =         3.118963	     178.703426
	 D(7,1,2,8)       =         0.056970	       3.264128
	 D(7,1,6,12)      =         0.011826	       0.677601
	 D(8,2,3,9)       =        -0.033545	      -1.921986
	 D(9,3,4,10)      =        -0.013645	      -0.781799
	 D(10,4,5,11)     =        -0.011432	      -0.654977
	 D(11,5,6,12)     =        -0.010179	      -0.583199
	 D(13,7,14,15)    =         0.104349	       5.978734
	 D(13,7,14,16)    =        -2.989946	    -171.311285
	 D(14,7,13,17)    =        -1.624971	     -93.103961
	 D(14,7,13,18)    =         1.321664	      75.725752

	Current energy   :      -381.4332820490

	Energy change for the previous step:
		Projected    :        -0.0122605374
		Actual       :        -0.0071045415

	Performing BFGS update.
	Previous computed or guess Hessian on step 1.
	Steps to be used in Hessian update: 1
	Taking RFO optimization step.
	Going to follow RFO solution 1.
	Using RFO vector 1.
	Norm of target step-size    0.48745
	Projected energy change by RFO approximation:        -0.0066967357

	Back-transformation to cartesian coordinates...
	Could not converge backtransformation.
	Using first guess instead.

	Back-transformation to cartesian coordinates to adjust frozen coordinates...
	Successfully converged to displaced geometry.

	--- Internal Coordinate Step in ANG or DEG, aJ/ANG or AJ/DEG ---
	 ---------------------------------------------------------------------------
	   Coordinate                Previous        Force       Change         New 
	   ----------                --------       ------       ------       ------
	    1 R(1,2)          =      1.417318    -0.009764     0.002750     1.420068
	    2 R(1,6)          =      1.412722    -0.007686     0.001955     1.414677
	    3 R(1,7)          =      1.458500    -0.040095    -0.009445     1.449054
	    4 R(2,3)          =      1.389317    -0.017668    -0.002625     1.386692
	    5 R(2,8)          =      1.087924    -0.008040    -0.000502     1.087422
	    6 R(3,4)          =      1.401632     0.000183     0.001903     1.403534
	    7 R(3,9)          =      1.086926    -0.010819    -0.000178     1.086748
	    8 R(4,5)          =      1.403631    -0.035089    -0.001077     1.402554
	    9 R(4,10)         =      1.085839     0.000128     0.000261     1.086101
	   10 R(5,6)          =      1.389450    -0.000861    -0.000300     1.389149
	   11 R(5,11)         =      1.087109    -0.011684    -0.000562     1.086547
	   12 R(6,12)         =      1.090960    -0.039133    -0.002614     1.088346
	   13 R(7,13)         =      1.385546    -0.032743     0.018648     1.404194
	   14 R(7,14)         =      1.322752    -0.021796    -0.001887     1.320865
	   15 R(13,17)        =      1.020990    -0.074795    -0.002228     1.018762
	   16 R(13,18)        =      1.034289    -0.160602     0.019402     1.053691
	   17 R(14,15)        =      1.018190    -0.017755     0.001698     1.019887
	   18 R(14,16)        =      1.027686    -0.085007    -0.003001     1.024685
	   19 B(1,2,3)        =    119.776690     0.000031     0.152308   119.928998
	   20 B(1,2,8)        =    120.557597     0.000045     0.278344   120.835942
	   21 B(1,6,5)        =    119.419730     0.000133     0.280485   119.700214
	   22 B(1,6,12)       =    120.349998    -0.000191    -0.742217   119.607781
	   23 B(1,7,13)       =    122.349128    -0.000274    -0.307055   122.042073
	   24 B(1,7,14)       =    118.755819     0.000889     2.265497   121.021316
	   25 B(2,1,6)        =    120.182005    -0.000154    -0.393938   119.788066
	   26 B(2,1,7)        =    121.010694     0.000326     1.246539   122.257233
	   27 B(2,3,4)        =    119.716828     0.000060     0.025654   119.742482
	   28 B(2,3,9)        =    119.927860    -0.000008     0.078562   120.006423
	   29 B(3,2,8)        =    119.567637    -0.000076    -0.422048   119.145589
	   30 B(3,4,5)        =    120.749551    -0.000027     0.033524   120.783075
	   31 B(3,4,10)       =    119.584496     0.000021    -0.026437   119.558059
	   32 B(4,3,9)        =    120.352734    -0.000053    -0.111085   120.241649
	   33 B(4,5,6)        =    120.121998    -0.000044    -0.135825   119.986174
	   34 B(4,5,11)       =    120.333484    -0.000040    -0.095190   120.238294
	   35 B(5,4,10)       =    119.661364     0.000006    -0.014061   119.647303
	   36 B(5,6,12)       =    120.205225     0.000058     0.476212   120.681437
	   37 B(6,1,7)        =    118.804310    -0.000173    -0.851700   117.952610
	   38 B(6,5,11)       =    119.541435     0.000084     0.229370   119.770805
	   39 B(7,13,17)      =    120.859420     0.000005    -0.179625   120.679795
	   40 B(7,13,18)      =    121.537182    -0.000209    -3.313747   118.223434
	   41 B(7,14,15)      =    120.201232    -0.000064    -1.161921   119.039311
	   42 B(7,14,16)      =    121.804083     0.000098     1.035536   122.839619
	   43 B(13,7,14)      =    118.824064    -0.000619    -2.165297   116.658767
	   44 B(15,14,16)     =    117.941398    -0.000035     0.108517   118.049915
	   45 B(17,13,18)     =    116.710855     0.000128     0.068199   116.779054
	   46 D(1,2,3,4)      =      1.076151    -0.000008    -0.885581     0.190570
	   47 D(1,2,3,9)      =   -178.341889    -0.000003    -0.352313  -178.694202
	   48 D(1,6,5,4)      =      1.867179     0.000001     0.457766     2.324944
	   49 D(1,6,5,11)     =   -178.769331     0.000002     0.305293  -178.464038
	   50 *D(1,7,13,17)   =     90.000006    -0.000000    -0.000000    90.000006
	   51 D(1,7,13,18)    =   -101.170282    -0.000105   -12.907683  -114.077964
	   52 D(1,7,14,15)    =   -177.012273    -0.000008    -1.385473  -178.397745
	   53 D(1,7,14,16)    =      5.697708    -0.000001    -0.965684     4.732024
	   54 D(2,1,6,5)      =     -1.761662    -0.000008    -1.464246    -3.225908
	   55 D(2,1,6,12)     =   -179.945115    -0.000011    -2.106492  -182.051607
	   56 D(2,1,7,13)     =   -154.892784    -0.000041    -9.068983  -163.961767
	   57 D(2,1,7,14)     =     28.209149    -0.000017    -5.913032    22.296117
	   58 D(2,3,4,5)      =     -0.979232     0.000000    -0.131747    -1.110979
	   59 D(2,3,4,10)     =    179.802672     0.000003     0.327682   180.130354
	   60 D(3,2,1,6)      =      0.284667     0.000011     1.680528     1.965195
	   61 D(3,2,1,7)      =    179.648000     0.000012     1.780150   181.428150
	   62 D(3,4,5,6)      =     -0.514074     0.000003     0.352585    -0.161488
	   63 D(3,4,5,11)     =   -179.872476     0.000002     0.503696  -179.368780
	   64 D(4,3,2,8)      =    177.496054    -0.000005    -0.715546   176.780509
	   65 D(4,5,6,12)     =   -179.946690     0.000004     1.084483  -178.862207
	   66 D(5,4,3,9)      =    178.436297    -0.000004    -0.665164   177.771133
	   67 D(5,6,1,7)      =    178.861055    -0.000009    -1.572824   177.288231
	   68 D(6,1,2,8)      =   -176.099205     0.000010     1.533097  -174.566108
	   69 D(6,1,7,13)     =     24.479151    -0.000040    -8.968558    15.510592
	   70 D(6,1,7,14)     =   -152.418916    -0.000016    -5.812608  -158.231524
	   71 D(6,5,4,10)     =    178.703426     0.000001    -0.107347   178.596079
	   72 D(7,1,2,8)      =      3.264128     0.000010     1.632719     4.896847
	   73 D(7,1,6,12)     =      0.677601    -0.000013    -2.215070    -1.537469
	   74 D(8,2,3,9)      =     -1.921986    -0.000001    -0.182277    -2.104263
	   75 D(9,3,4,10)     =     -0.781799    -0.000002    -0.205735    -0.987534
	   76 D(10,4,5,11)    =     -0.654977    -0.000000     0.043764    -0.611212
	   77 D(11,5,6,12)    =     -0.583199     0.000005     0.932010     0.348811
	   78 D(13,7,14,15)   =      5.978734     0.000013     1.557860     7.536594
	   79 D(13,7,14,16)   =   -171.311285     0.000021     1.977649  -169.333636
	   80 D(14,7,13,17)   =    -93.103961    -0.000014    -2.895838   -95.999798
	   81 D(14,7,13,18)   =     75.725752    -0.000118   -15.803520    59.922231
	 ---------------------------------------------------------------------------
	Successfully symmetrized geometry.

  ==> Convergence Check <==

  Measures of convergence in internal coordinates in au.
  Criteria marked as inactive (o), active & met (*), and active & unmet ( ).
  ---------------------------------------------------------------------------------------------
   Step     Total Energy     Delta E     MAX Force     RMS Force      MAX Disp      RMS Disp   
  ---------------------------------------------------------------------------------------------
    Convergence Criteria    1.00e-06 *    3.00e-04 *             o    1.20e-03 *             o
  ---------------------------------------------------------------------------------------------
      2    -381.43328205   -7.10e-03      1.95e-02      3.59e-03 o    2.76e-01      5.25e-02 o  ~
  ---------------------------------------------------------------------------------------------

	Writing optimization data to binary file.
	Structure for next step:
	Cartesian Geometry (in Angstrom)
	    C    -0.0259549653   0.0440573512  -0.1535098037
	    C     0.1578620789   1.2479266630   0.5769025582
	    C     0.1897287126   1.2182466336   1.9629107427
	    C     0.0438510474  -0.0042924057   2.6367258498
	    C    -0.1573342798  -1.1963274275   1.9255752386
	    C    -0.2175286884  -1.1751947359   0.5378915853
	    C    -0.0370102371   0.0123995720  -1.6021761710
	    H     0.2188001179   2.2059993297   0.0661488227
	    H     0.3090555261   2.1414561825   2.5236847973
	    H     0.0671442425  -0.0237909305   3.7224015890
	    H    -0.2794011222  -2.1363626191   2.4566297577
	    H    -0.3915572892  -2.0906208374  -0.0244311171
	    N    -0.5374910597  -1.0860889242  -2.3195348915
	    N     0.5377592242   0.9692758818  -2.3083726186
	    H     0.4905944452   0.9296620398  -3.3263984658
	    H     1.0727110408   1.7310923201  -1.8800711240
	    H    -1.5196112589  -1.1284550671  -2.5869706589
	    H     0.1368934651  -1.6526260264  -2.8979000907
			--------------------------
			 OPTKING Finished Execution 
			--------------------------

    Structure for next step:
    Molecular point group: c1
    Full point group: C1

    Geometry (in Angstrom), charge = 1, multiplicity = 1:

    C           -0.025954965295     0.044057351227    -0.153509803669
    C            0.157862078910     1.247926663003     0.576902558182
    C            0.189728712615     1.218246633600     1.962910742743
    C            0.043851047380    -0.004292405715     2.636725849828
    C           -0.157334279847    -1.196327427512     1.925575238600
    C           -0.217528688369    -1.175194735908     0.537891585291
    C           -0.037010237116     0.012399572049    -1.602176171003
    H            0.218800117870     2.205999329718     0.066148822662
    H            0.309055526060     2.141456182519     2.523684797264
    H            0.067144242546    -0.023790930509     3.722401589007
    H           -0.279401122187    -2.136362619058     2.456629757705
    H           -0.391557289197    -2.090620837424    -0.024431117093
    N           -0.537491059716    -1.086088924163    -2.319534891534
    N            0.537759224166     0.969275881779    -2.308372618599
    H            0.490594445164     0.929662039768    -3.326398465789
    H            1.072711040791     1.731092320101    -1.880071124025
    H           -1.519611258876    -1.128455067060    -2.586970658870
    H            0.136893465102    -1.652626026415    -2.897900090700

gradient() will perform analytic gradient computation.

*** tstart() called on oliva.prib.upf.edu
*** at Sat Sep 29 20:35:01 2018

   => Loading Basis Set <=

    Name: 6-31G*
    Role: ORBITAL
    Keyword: BASIS
    atoms 1-7         entry C          line   111 file /shared/joao/test_parameterize/miniconda3/share/psi4/basis/6-31gs.gbs 
    atoms 8-12, 15-18 entry H          line    44 file /shared/joao/test_parameterize/miniconda3/share/psi4/basis/6-31gs.gbs 
    atoms 13-14       entry N          line   128 file /shared/joao/test_parameterize/miniconda3/share/psi4/basis/6-31gs.gbs 


         ---------------------------------------------------------
                                   SCF
            by Justin Turney, Rob Parrish, Andy Simmonett
                             and Daniel Smith
                              RKS Reference
                        4 Threads,   2861 MiB Core
         ---------------------------------------------------------

[...]
	            -0.0000094654       -0.0000165905       -0.0000097213
	             0.0012977067       -0.0115509797        0.0185884880
	            -0.0001028970        0.0000326173       -0.0000049131
	             0.0000023649        0.0000066914       -0.0000193047
	             0.0000195323        0.0000116386        0.0000029307
	             0.0031446573        0.0069340659       -0.0141674301
	             0.0000039593        0.0000081037        0.0000295722

	---Fragment 1 Intrafragment Coordinates---
	 - Coordinate -           - BOHR/RAD -       - ANG/DEG -
	 R(1,2)           =         2.674718	       1.415400
	 R(1,6)           =         2.670011	       1.412909
	 R(1,7)           =         2.735590	       1.447612
	 R(2,3)           =         2.619890	       1.386386
	 R(2,8)           =         2.053990	       1.086925
	 R(3,4)           =         2.649833	       1.402231
	 R(3,9)           =         2.050424	       1.085038
	 R(4,5)           =         2.642870	       1.398547
	 R(4,10)          =         2.052031	       1.085888
	 R(5,6)           =         2.626038	       1.389639
	 R(5,11)          =         2.050485	       1.085070
	 R(6,12)          =         2.048267	       1.083896
	 R(7,13)          =         2.617255	       1.384992
	 R(7,14)          =         2.505951	       1.326092
	 R(13,17)         =         1.928168	       1.020343
	 R(13,18)         =         1.929109	       1.020841
	 R(14,15)         =         1.916709	       1.014279
	 R(14,16)         =         1.917061	       1.014465
	 B(1,2,3)         =         2.092514	     119.892216
	 B(1,2,8)         =         2.106016	     120.665837
	 B(1,6,5)         =         2.088702	     119.673798
	 B(1,6,12)        =         2.085694	     119.501473
	 B(1,7,13)        =         2.083910	     119.399232
	 B(1,7,14)        =         2.102703	     120.475988
	 B(2,1,6)         =         2.091569	     119.838059
	 B(2,1,7)         =         2.113565	     121.098382
	 B(2,3,4)         =         2.091890	     119.856442
	 B(2,3,9)         =         2.094228	     119.990434
	 B(3,2,8)         =         2.083371	     119.368353
	 B(3,4,5)         =         2.105744	     120.650223
	 B(3,4,10)        =         2.087267	     119.591568
	 B(4,3,9)         =         2.096909	     120.144008
	 B(4,5,6)         =         2.095564	     120.066957
	 B(4,5,11)        =         2.097246	     120.163322
	 B(5,4,10)        =         2.090151	     119.756833
	 B(5,6,12)        =         2.108018	     120.780553
	 B(6,1,7)         =         2.078049	     119.063416
	 B(6,5,11)        =         2.090346	     119.768024
	 B(7,13,17)       =         2.011214	     115.234053
	 B(7,13,18)       =         1.951347	     111.803922
	 B(7,14,15)       =         2.128189	     121.936231
	 B(7,14,16)       =         2.116380	     121.259663
	 B(13,7,14)       =         2.076560	     118.978130
	 B(15,14,16)      =         2.038390	     116.791150
	 B(17,13,18)      =         1.854495	     106.254755
	 D(1,2,3,4)       =        -0.009738	      -0.557938
	 D(1,2,3,9)       =        -3.132190	    -179.461292
	 D(1,6,5,4)       =         0.012099	       0.693239
	 D(1,6,5,11)      =        -3.121238	    -178.833781
	*D(1,7,13,17)     =         1.570796	      90.000006
	 D(1,7,13,18)     =        -2.592610	    -148.545587
	 D(1,7,14,15)     =        -3.063842	    -175.545191
	 D(1,7,14,16)     =         0.101341	       5.806420
	 D(2,1,6,5)       =        -0.029557	      -1.693486
	 D(2,1,6,12)      =        -3.129295	    -179.295406
	 D(2,1,7,13)      =        -2.842390	    -162.856972
	 D(2,1,7,14)      =         0.514961	      29.505088
	 D(2,3,4,5)       =        -0.007888	      -0.451977
	 D(2,3,4,10)      =         3.141170	     179.975796
	 D(3,2,1,6)       =         0.028422	       1.628485
	 D(3,2,1,7)       =        -3.110747	    -178.232675
	 D(3,4,5,6)       =         0.006697	       0.383682
	 D(3,4,5,11)      =         3.140001	     179.908817
	 D(4,3,2,8)       =         3.077779	     176.343752
	 D(4,5,6,12)      =         3.111291	     178.263852
	 D(5,4,3,9)       =         3.114534	     178.449674
	 D(5,6,1,7)       =         3.109662	     178.170501
	 D(6,1,2,8)       =        -3.058382	    -175.232360
	 D(6,1,7,13)      =         0.301607	      17.280812
	 D(6,1,7,14)      =        -2.624227	    -150.357127
	 D(6,5,4,10)      =         3.140811	     179.955205
	 D(7,1,2,8)       =         0.085634	       4.906481
	 D(7,1,6,12)      =         0.009924	       0.568581
	 D(8,2,3,9)       =        -0.044673	      -2.559602
	 D(9,3,4,10)      =        -0.019592	      -1.122553
	 D(10,4,5,11)     =        -0.009070	      -0.519660
	 D(11,5,6,12)     =        -0.022046	      -1.263168
	 D(13,7,14,15)    =         0.292612	      16.765424
	 D(13,7,14,16)    =        -2.825391	    -161.882966
	 D(14,7,13,17)    =        -1.783308	    -102.176043
	 D(14,7,13,18)    =         0.336471	      19.278364

	Current energy   :      -381.4481455709

	Energy change for the previous step:
		Projected    :        -0.0000022357
		Actual       :        -0.0000007384

	Performing BFGS update.
	Previous computed or guess Hessian on step 1.
	Steps to be used in Hessian update: 9 8
	Taking RFO optimization step.
	Going to follow RFO solution 1.
	Rejecting RFO root 1 because normalization gives large value.
	Using RFO vector 2.
	Norm of target step-size    0.00828
	Projected energy change by RFO approximation:         0.0000005860

	Back-transformation to cartesian coordinates...
	Could not converge backtransformation.
	Using first guess instead.

	Back-transformation to cartesian coordinates to adjust frozen coordinates...
	Successfully converged to displaced geometry.

	--- Internal Coordinate Step in ANG or DEG, aJ/ANG or AJ/DEG ---
	 ---------------------------------------------------------------------------
	   Coordinate                Previous        Force       Change         New 
	   ----------                --------       ------       ------       ------
	    1 R(1,2)          =      1.415400    -0.000295    -0.000249     1.415151
	    2 R(1,6)          =      1.412909    -0.000057    -0.000003     1.412906
	    3 R(1,7)          =      1.447612     0.000210    -0.000500     1.447111
	    4 R(2,3)          =      1.386386     0.000011    -0.000077     1.386309
	    5 R(2,8)          =      1.086925     0.000033     0.000028     1.086953
	    6 R(3,4)          =      1.402231    -0.000068     0.000033     1.402265
	    7 R(3,9)          =      1.085038    -0.000005    -0.000055     1.084983
	    8 R(4,5)          =      1.398547    -0.000100    -0.000166     1.398380
	    9 R(4,10)         =      1.085888     0.000029     0.000002     1.085890
	   10 R(5,6)          =      1.389639     0.000144    -0.000018     1.389621
	   11 R(5,11)         =      1.085070    -0.000031    -0.000063     1.085007
	   12 R(6,12)         =      1.083896    -0.000158    -0.000229     1.083668
	   13 R(7,13)         =      1.384992    -0.000247    -0.000451     1.384541
	   14 R(7,14)         =      1.326092    -0.000002     0.000020     1.326112
	   15 R(13,17)        =      1.020343     0.000014    -0.000110     1.020233
	   16 R(13,18)        =      1.020841     0.000229     0.000517     1.021358
	   17 R(14,15)        =      1.014279    -0.000156    -0.000239     1.014040
	   18 R(14,16)        =      1.014465    -0.000160    -0.000291     1.014174
	   19 B(1,2,3)        =    119.892216    -0.000001    -0.003255   119.888961
	   20 B(1,2,8)        =    120.665837    -0.000000     0.022201   120.688038
	   21 B(1,6,5)        =    119.673798    -0.000001     0.016285   119.690083
	   22 B(1,6,12)       =    119.501473     0.000000    -0.004885   119.496588
	   23 B(1,7,13)       =    119.399232     0.000000    -0.062577   119.336656
	   24 B(1,7,14)       =    120.475988    -0.000001     0.015298   120.491286
	   25 B(2,1,6)        =    119.838059     0.000002    -0.007176   119.830883
	   26 B(2,1,7)        =    121.098382    -0.000000    -0.020878   121.077505
	   27 B(2,3,4)        =    119.856442     0.000000     0.013445   119.869887
	   28 B(2,3,9)        =    119.990434     0.000000    -0.008132   119.982301
	   29 B(3,2,8)        =    119.368353     0.000001    -0.019175   119.349179
	   30 B(3,4,5)        =    120.650223     0.000001    -0.007463   120.642759
	   31 B(3,4,10)       =    119.591568     0.000000     0.002004   119.593572
	   32 B(4,3,9)        =    120.144008    -0.000000    -0.004631   120.139378
	   33 B(4,5,6)        =    120.066957    -0.000001    -0.010068   120.056889
	   34 B(4,5,11)       =    120.163322    -0.000001    -0.001515   120.161808
	   35 B(5,4,10)       =    119.756833    -0.000001     0.005656   119.762489
	   36 B(5,6,12)       =    120.780553     0.000000    -0.013835   120.766717
	   37 B(6,1,7)        =    119.063416    -0.000002     0.028075   119.091492
	   38 B(6,5,11)       =    119.768024     0.000001     0.011620   119.779644
	   39 B(7,13,17)      =    115.234053     0.000001     0.098411   115.332464
	   40 B(7,13,18)      =    111.803922     0.000002     0.047162   111.851084
	   41 B(7,14,15)      =    121.936231    -0.000000     0.030277   121.966508
	   42 B(7,14,16)      =    121.259663    -0.000000     0.007385   121.267048
	   43 B(13,7,14)      =    118.978130     0.000001     0.022697   119.000827
	   44 B(15,14,16)     =    116.791150     0.000001    -0.040346   116.750803
	   45 B(17,13,18)     =    106.254755    -0.000000    -0.052857   106.201898
	   46 D(1,2,3,4)      =     -0.557938     0.000000     0.030172    -0.527766
	   47 D(1,2,3,9)      =   -179.461292    -0.000000    -0.011604  -179.472897
	   48 D(1,6,5,4)      =      0.693239     0.000000    -0.034982     0.658257
	   49 D(1,6,5,11)     =   -178.833781     0.000000    -0.040112  -178.873893
	   50 *D(1,7,13,17)   =     90.000006    -0.000000    -0.000000    90.000006
	   51 D(1,7,13,18)    =   -148.545587     0.000000     0.041465  -148.504122
	   52 D(1,7,14,15)    =   -175.545191    -0.000001    -0.100209  -175.645400
	   53 D(1,7,14,16)    =      5.806420    -0.000001     0.033773     5.840193
	   54 D(2,1,6,5)      =     -1.693486    -0.000000     0.071218    -1.622268
	   55 D(2,1,6,12)     =   -179.295406     0.000000     0.136737  -179.158669
	   56 D(2,1,7,13)     =   -162.856972    -0.000001    -0.068420  -162.925393
	   57 D(2,1,7,14)     =     29.505088     0.000001     0.058860    29.563949
	   58 D(2,3,4,5)      =     -0.451977    -0.000000     0.006336    -0.445641
	   59 D(2,3,4,10)     =    179.975796    -0.000000    -0.025353   179.950443
	   60 D(3,2,1,6)      =      1.628485     0.000000    -0.069235     1.559250
	   61 D(3,2,1,7)      =   -178.232675     0.000000    -0.080340  -178.313015
	   62 D(3,4,5,6)      =      0.383682    -0.000000    -0.003968     0.379714
	   63 D(3,4,5,11)     =    179.908817     0.000000     0.001244   179.910060
	   64 D(4,3,2,8)      =    176.343752     0.000000     0.026080   176.369832
	   65 D(4,5,6,12)     =    178.263852    -0.000000    -0.101119   178.162733
	   66 D(5,4,3,9)      =    178.449674     0.000000     0.048140   178.497814
	   67 D(5,6,1,7)      =    178.170501    -0.000000     0.082035   178.252536
	   68 D(6,1,2,8)      =   -175.232360     0.000000    -0.063773  -175.296133
	   69 D(6,1,7,13)     =     17.280812    -0.000001    -0.079397    17.201415
	   70 D(6,1,7,14)     =   -150.357127     0.000001     0.047884  -150.309243
	   71 D(6,5,4,10)     =    179.955205    -0.000000     0.027758   179.982963
	   72 D(7,1,2,8)      =      4.906481     0.000000    -0.074878     4.831602
	   73 D(7,1,6,12)     =      0.568581     0.000000     0.147554     0.716135
	   74 D(8,2,3,9)      =     -2.559602    -0.000000    -0.015696    -2.575298
	   75 D(9,3,4,10)     =     -1.122553     0.000000     0.016451    -1.106101
	   76 D(10,4,5,11)    =     -0.519660     0.000000     0.032970    -0.486690
	   77 D(11,5,6,12)    =     -1.263168    -0.000000    -0.106249    -1.369417
	   78 D(13,7,14,15)   =     16.765424     0.000000     0.037069    16.802493
	   79 D(13,7,14,16)   =   -161.882966     0.000000     0.171052  -161.711914
	   80 D(14,7,13,17)   =   -102.176043    -0.000001    -0.126084  -102.302126
	   81 D(14,7,13,18)   =     19.278364    -0.000001    -0.084619    19.193746
	 ---------------------------------------------------------------------------
	Successfully symmetrized geometry.

  ==> Convergence Check <==

  Measures of convergence in internal coordinates in au.
  Criteria marked as inactive (o), active & met (*), and active & unmet ( ).
  ---------------------------------------------------------------------------------------------
   Step     Total Energy     Delta E     MAX Force     RMS Force      MAX Disp      RMS Disp   
  ---------------------------------------------------------------------------------------------
    Convergence Criteria    1.00e-06 *    3.00e-04 *             o    1.20e-03 *             o
  ---------------------------------------------------------------------------------------------
     10    -381.44814557   -7.38e-07 *    6.49e-05 *    1.70e-05 o    2.99e-03      9.20e-04 o  ~
  ---------------------------------------------------------------------------------------------


  **** Optimization is complete! (in 10 steps) ****

  ==> Optimization Summary <==

  Measures of convergence in internal coordinates in au.
  --------------------------------------------------------------------------------------------------------------- ~
   Step         Total Energy             Delta E       MAX Force       RMS Force        MAX Disp        RMS Disp  ~
  --------------------------------------------------------------------------------------------------------------- ~
      1    -381.426177507556   -381.426177507556      0.05334407      0.00669340      0.20918394      0.05200880  ~
      2    -381.433282049035     -0.007104541479      0.01949356      0.00359051      0.27582346      0.05247872  ~
      3    -381.437323806449     -0.004041757415      0.03219796      0.00457346      0.32258122      0.05310278  ~
      4    -381.440803828686     -0.003480022237      0.04503521      0.00563723      0.30337545      0.04938226  ~
      5    -381.443261714100     -0.002457885413      0.04458525      0.00561187      0.09277853      0.01837269  ~
      6    -381.447280581946     -0.004018867846      0.01277746      0.00178572      0.13422648      0.02956670  ~
      7    -381.447957221844     -0.000676639898      0.00599465      0.00112251      0.03465396      0.00912021  ~
      8    -381.448124621613     -0.000167399769      0.00157026      0.00035731      0.00936256      0.00325533  ~
      9    -381.448144832498     -0.000020210885      0.00024563      0.00005861      0.00239599      0.00074161  ~
     10    -381.448145570895     -0.000000738396      0.00006487      0.00001700      0.00298542      0.00092046  ~
  --------------------------------------------------------------------------------------------------------------- ~

	Writing optimization data to binary file.
	Final energy is   -381.4481455708946
	Final (previous) structure:
	Cartesian Geometry (in Angstrom)
	    C    -0.0433782954   0.0112782437  -0.1531765383
	    C     0.1028741645   1.2293998993   0.5526187475
	    C     0.1422579003   1.2245424141   1.9384366778
	    C     0.0252350615   0.0137006143   2.6358750796
	    C    -0.1407358469  -1.1923818028   1.9475788451
	    C    -0.1832762346  -1.2011934027   0.5586188346
	    C    -0.0496313236  -0.0181854509  -1.6004748482
	    H     0.1341123529   2.1773677619   0.0217828859
	    H     0.2455349879   2.1582856251   2.4813588349
	    H     0.0570431662   0.0148391772   3.7212963900
	    H    -0.2289888765  -2.1249658133   2.4951875600
	    H    -0.2833977882  -2.1321650402   0.0126348840
	    N    -0.5418757445  -1.1347192572  -2.2556468121
	    N     0.6238279978   0.8891247670  -2.2945645252
	    H     0.5816434012   0.9299885345  -3.3071414510
	    H     1.2240551210   1.5651331058  -1.8342611433
	    H    -1.5401484825  -1.1111127280  -2.4653935676
	    H    -0.0666405611  -1.2925796478  -3.1452238538
	Saving final (previous) structure.
	Removing binary optimization data file.
			--------------------------
			 OPTKING Finished Execution 
			--------------------------

    Final optimized geometry and variables:
    Molecular point group: c1
    Full point group: C1

    Geometry (in Angstrom), charge = 1, multiplicity = 1:

    C           -0.043378295428     0.011278243716    -0.153176538269
    C            0.102874164521     1.229399899308     0.552618747514
    C            0.142257900345     1.224542414065     1.938436677810
    C            0.025235061476     0.013700614274     2.635875079590
    C           -0.140735846886    -1.192381802774     1.947578845140
    C           -0.183276234606    -1.201193402660     0.558618834625
    C           -0.049631323592    -0.018185450854    -1.600474848190
    H            0.134112352854     2.177367761933     0.021782885948
    H            0.245534987926     2.158285625074     2.481358834887
    H            0.057043166175     0.014839177207     3.721296389981
    H           -0.228988876526    -2.124965813281     2.495187559966
    H           -0.283397788187    -2.132165040222     0.012634884021
    N           -0.541875744478    -1.134719257248    -2.255646812112
    N            0.623827997827     0.889124767016    -2.294564525173
    H            0.581643401178     0.929988534481    -3.307141450985
    H            1.224055120978     1.565133105776    -1.834261143346
    H           -1.540148482519    -1.111112728025    -2.465393567611
    H           -0.066640561058    -1.292579647787    -3.145223853795

	Removing binary optimization data file.
	Cleaning optimization helper files.


Properties will be evaluated at   0.000000,   0.000000,   0.000000 [a0]
OEProp: No title given, name of density matrix used for the following properties is 'SCF density'
  Nuclear Dipole Moment: [e a0]
     X:    -0.3459      Y:    -2.1381      Z:     2.6562

  Electronic Dipole Moment: [e a0]
     X:     0.4371      Y:     2.5960      Z:    -4.8097

  Dipole Moment: [e a0]
     X:     0.0912      Y:     0.4580      Z:    -2.1534     Total:     2.2035

  Dipole Moment: [D]
     X:     0.2317      Y:     1.1640      Z:    -5.4734     Total:     5.6007

  Quadrupole Moment: [D A]
    XX:   -48.8867     YY:   -40.0412     ZZ:   -11.6195
    XY:     5.2408     XZ:    -0.0378     YZ:    -1.3321

  Traceless Quadrupole Moment: [D A]
    XX:   -15.3709     YY:    -6.5254     ZZ:    21.8963
    XY:     5.2408     XZ:    -0.0378     YZ:    -1.3321

  Mulliken Charges: (a.u.)
   Center  Symbol    Alpha    Beta     Spin     Total
       1     C     2.94533  2.94533  0.00000  0.10934
       2     C     3.08445  3.08445  0.00000 -0.16891
       3     C     3.06261  3.06261  0.00000 -0.12521
       4     C     3.04872  3.04872  0.00000 -0.09744
       5     C     3.06246  3.06246  0.00000 -0.12492
       6     C     3.06839  3.06839  0.00000 -0.13678
       7     C     2.77126  2.77126  0.00000  0.45749
       8     H     0.41607  0.41607  0.00000  0.16786
       9     H     0.40434  0.40434  0.00000  0.19132
      10     H     0.40162  0.40162  0.00000  0.19676
      11     H     0.40365  0.40365  0.00000  0.19270
      12     H     0.39982  0.39982  0.00000  0.20036
      13     N     3.86070  3.86070  0.00000 -0.72140
      14     N     3.84275  3.84275  0.00000 -0.68550
      15     H     0.30413  0.30413  0.00000  0.39174
      16     H     0.29957  0.29957  0.00000  0.40085
      17     H     0.30469  0.30469  0.00000  0.39061
      18     H     0.31944  0.31944  0.00000  0.36112

   Total alpha = 32.00000, Total beta = 32.00000, Total charge =  1.00000


    Psi4 stopped on: Saturday, 29 September 2018 08:39PM
    Psi4 wall time for execution: 0:05:14.56

*** Psi4 exiting successfully. Buy a developer a beer!
