
    -----------------------------------------------------------------------
          Psi4: An Open-Source Ab Initio Electronic Structure Package
                               Psi4 1.2.1 release

                         Git: Rev {HEAD} 406f4de 


    R. M. Parrish, L. A. Burns, D. G. A. Smith, A. C. Simmonett,
    A. E. DePrince III, E. G. Hohenstein, U. Bozkaya, A. Yu. Sokolov,
    R. Di Remigio, R. M. Richard, J. F. Gonthier, A. M. James,
    H. R. McAlexander, A. Kumar, M. Saitow, X. Wang, B. P. Pritchard,
    P. Verma, H. F. Schaefer III, K. Patkowski, R. A. King, E. F. Valeev,
    F. A. Evangelista, J. M. Turney, T. D. Crawford, and C. D. Sherrill,
    J. Chem. Theory Comput. 13(7) pp 3185--3197 (2017).
    (doi: 10.1021/acs.jctc.7b00174)


                         Additional Contributions by
    P. Kraus, H. Kruse, M. H. Lechner, M. C. Schieber, and R. A. Shaw

    -----------------------------------------------------------------------


    Psi4 started on: Saturday, 29 September 2018 04:50PM

    Process ID: 5738
    Host:       loro.prib.upf.edu
    PSIDATADIR: /shared/joao/test_parameterize/miniconda3/share/psi4
    Memory:     500.0 MiB
    Threads:    1
    
  ==> Input File <==

--------------------------------------------------------------------------
set_num_threads(1)
set_memory('5348 MB')

set { scf_mem_safety_factor 0.7 }

set { reference rks }
set { basis cc-pVDZ }

molecule MOL {
    0 1
    noreorient
    nocom
    symmetry c1
    O    1.141000   0.017000   0.083000
    C    2.558000   0.086000  -0.005000
    C    3.192000  -0.789000   1.067000
    O    4.610000  -0.719000   0.979000
    H    0.789000   0.590000  -0.620000
    H    2.874000   1.128000   0.115000
    H    2.871000  -0.243000  -1.001000
    H    2.876000  -1.830000   0.947000
    H    2.879000  -0.459000   2.064000
    H    4.888192   0.017335   1.551107
}

set optking { frozen_dihedral = (" 2 3 4 10 ") }

energy, wfn = energy('B3LYP-D3', return_wfn=True)

import os
os.chdir(os.environ['HTMD_PSI4_WORKDIR'])

oeprop(wfn, 'DIPOLE', 'QUADRUPOLE', 'MULLIKEN_CHARGES')

with open('psi4out.xyz', 'w') as f:
    f.write('10 ' )
    f.write('%.12f\n' % energy)
    f.write(MOL.save_string_xyz())
--------------------------------------------------------------------------
  Threads set to 1 by Python driver.

  Memory set to   4.981 GiB by Python driver.

*** tstart() called on loro.prib.upf.edu
*** at Sat Sep 29 16:50:40 2018

   => Loading Basis Set <=

    Name: CC-PVDZ
    Role: ORBITAL
    Keyword: BASIS
    atoms 1, 4 entry O          line   198 file /shared/joao/test_parameterize/miniconda3/share/psi4/basis/cc-pvdz.gbs 
    atoms 2-3  entry C          line   138 file /shared/joao/test_parameterize/miniconda3/share/psi4/basis/cc-pvdz.gbs 
    atoms 5-10 entry H          line    22 file /shared/joao/test_parameterize/miniconda3/share/psi4/basis/cc-pvdz.gbs 


         ---------------------------------------------------------
                                   SCF
            by Justin Turney, Rob Parrish, Andy Simmonett
                             and Daniel Smith
                              RKS Reference
                        1 Threads,   5100 MiB Core
         ---------------------------------------------------------

  ==> Geometry <==

    Molecular point group: c1
    Full point group: C1

    Geometry (in Angstrom), charge = 0, multiplicity = 1:

       Center              X                  Y                   Z               Mass       
    ------------   -----------------  -----------------  -----------------  -----------------
         O            1.141000000000     0.017000000000     0.083000000000    15.994914619560
         C            2.558000000000     0.086000000000    -0.005000000000    12.000000000000
         C            3.192000000000    -0.789000000000     1.067000000000    12.000000000000
         O            4.610000000000    -0.719000000000     0.979000000000    15.994914619560
         H            0.789000000000     0.590000000000    -0.620000000000     1.007825032070
         H            2.874000000000     1.128000000000     0.115000000000     1.007825032070
         H            2.871000000000    -0.243000000000    -1.001000000000     1.007825032070
         H            2.876000000000    -1.830000000000     0.947000000000     1.007825032070
         H            2.879000000000    -0.459000000000     2.064000000000     1.007825032070
         H            4.888192000000     0.017335000000     1.551107000000     1.007825032070

  Running in c1 symmetry.

  Rotational constants: A =      0.82015  B =      0.02546  C =      0.02498 [cm^-1]
  Rotational constants: A =  24587.33301  B =    763.14137  C =    748.88955 [MHz]
  Nuclear repulsion =  129.714868046156226

  Charge       = 0
  Multiplicity = 1
  Electrons    = 34
  Nalpha       = 17
  Nbeta        = 17

  ==> Algorithm <==

  SCF Algorithm Type is DF.
  DIIS enabled.
  MOM disabled.
  Fractional occupation disabled.
  Guess Type is SAD.
  Energy threshold   = 1.00e-06
  Density threshold  = 1.00e-06
  Integral threshold = 0.00e+00

  ==> Primary Basis <==

  Basis Set: CC-PVDZ
    Blend: CC-PVDZ
    Number of shells: 42
    Number of basis function: 86
    Number of Cartesian functions: 90
    Spherical Harmonics?: true
    Max angular momentum: 2

  ==> DFT Potential <==

   => Composite Functional: B3LYP-D3ZERO <= 

    B3LYP-d3zero Hyb-GGA Exchange-Correlation Functional

    P. J. Stephens, F. J. Devlin, C. F. Chabalowski, and M. J. Frisch, J. Phys. Chem. 98, 11623 (1994)

    Deriv               =              1
    GGA                 =           TRUE
    Meta                =          FALSE

    Exchange Hybrid     =           TRUE
    MP2 Hybrid          =          FALSE

   => Exchange Functionals <=

    0.0800   Slater exchange
    0.7200         Becke 88

   => Exact (HF) Exchange <=

    0.2000               HF 

   => Correlation Functionals <=

    0.1900   Vosko, Wilk & Nusair (VWN5_RPA)
    0.8100   Lee, Yang & Parr

   => Molecular Quadrature <=

    Radial Scheme       =       TREUTLER
    Pruning Scheme      =           FLAT
    Nuclear Scheme      =       TREUTLER

    BS radius alpha     =              1
    Pruning alpha       =              1
    Radial Points       =             75
    Spherical Points    =            302
    Total Points        =         222546
    Total Blocks        =           1751
    Max Points          =            256
    Max Functions       =             86

   => -D3ZERO: Empirical Dispersion <=

    Grimme's -D3 (zero-damping) Dispersion Correction
    Grimme S.; Antony J.; Ehrlich S.; Krieg H. (2010), J. Chem. Phys., 132: 154104

        S6 =   1.000000E+00
        S8 =   1.703000E+00
       SR6 =   1.261000E+00
       SR8 =   1.000000E+00
    ALPHA6 =   1.400000E+01

   => Loading Basis Set <=

    Name: (CC-PVDZ AUX)
    Role: JKFIT
    Keyword: DF_BASIS_SCF
    atoms 1, 4 entry O          line   221 file /shared/joao/test_parameterize/miniconda3/share/psi4/basis/cc-pvdz-jkfit.gbs 
    atoms 2-3  entry C          line   121 file /shared/joao/test_parameterize/miniconda3/share/psi4/basis/cc-pvdz-jkfit.gbs 
    atoms 5-10 entry H          line    51 file /shared/joao/test_parameterize/miniconda3/share/psi4/basis/cc-pvdz-jkfit.gbs 

  ==> Pre-Iterations <==

   -------------------------------------------------------
    Irrep   Nso     Nmo     Nalpha   Nbeta   Ndocc  Nsocc
   -------------------------------------------------------
     A         86      86       0       0       0       0
   -------------------------------------------------------
    Total      86      86      17      17      17       0
   -------------------------------------------------------

  ==> Integral Setup <==

  DFHelper Memory: AOs need 0.030 [GiB]; user supplied 3.486 [GiB]. Using in-core AOs.

  ==> MemDFJK: Density-Fitted J/K Matrices <==

    J tasked:                   Yes
    K tasked:                   Yes
    wK tasked:                   No
    OpenMP threads:               1
    Memory (MB):               3570
    Algorithm:                 Core
    Schwarz Cutoff:           1E-12
    Mask sparsity (%):       0.3245
    Fitting Condition:        1E-12

   => Auxiliary Basis Set <=

  Basis Set: (CC-PVDZ AUX)
    Blend: CC-PVDZ-JKFIT
    Number of shells: 150
    Number of basis function: 418
    Number of Cartesian functions: 474
    Spherical Harmonics?: true
    Max angular momentum: 3

  Minimum eigenvalue in the overlap matrix is 5.0785282907E-03.
  Using Symmetric Orthogonalization.

  SCF Guess: Superposition of Atomic Densities via on-the-fly atomic UHF.

  ==> Iterations <==

                           Total Energy        Delta E     RMS |[F,P]|

   @DF-RKS iter   0:  -231.04798470144891   -2.31048e+02   4.13896e-02 
   @DF-RKS iter   1:  -230.19211367652153    8.55871e-01   4.68138e-03 
   @DF-RKS iter   2:  -230.16384633167965    2.82673e-02   5.92452e-03 DIIS
   @DF-RKS iter   3:  -230.25668769740378   -9.28414e-02   7.03955e-04 DIIS
   @DF-RKS iter   4:  -230.25801142198617   -1.32372e-03   2.15783e-04 DIIS
   @DF-RKS iter   5:  -230.25817345041779   -1.62028e-04   4.95554e-05 DIIS
   @DF-RKS iter   6:  -230.25818192615378   -8.47574e-06   7.71324e-06 DIIS
   @DF-RKS iter   7:  -230.25818203977192   -1.13618e-07   4.54243e-06 DIIS
   @DF-RKS iter   8:  -230.25818209489350   -5.51216e-08   4.31258e-07 DIIS

  ==> Post-Iterations <==

    Orbital Energies [Eh]
    ---------------------

    Doubly Occupied:                                                      

       1A    -19.134966     2A    -19.131392     3A    -10.227222  
       4A    -10.224691     5A     -1.020756     6A     -1.009600  
       7A     -0.730868     8A     -0.611410     9A     -0.522768  
      10A     -0.494465    11A     -0.451745    12A     -0.428070  
      13A     -0.397208    14A     -0.338349    15A     -0.326003  
      16A     -0.270042    17A     -0.264637  

    Virtual:                                                              

      18A      0.043686    19A      0.050936    20A      0.106092  
      21A      0.118364    22A      0.126763    23A      0.163747  
      24A      0.186475    25A      0.244751    26A      0.251795  
      27A      0.435418    28A      0.441576    29A      0.503219  
      30A      0.518681    31A      0.552757    32A      0.585626  
      33A      0.604065    34A      0.623282    35A      0.637462  
      36A      0.648479    37A      0.664774    38A      0.682809  
      39A      0.882455    40A      0.904606    41A      0.909787  
      42A      0.971937    43A      1.014992    44A      1.058350  
      45A      1.064371    46A      1.082038    47A      1.202054  
      48A      1.217888    49A      1.303006    50A      1.332541  
      51A      1.344931    52A      1.396201    53A      1.443675  
      54A      1.516103    55A      1.599326    56A      1.600712  
      57A      1.644647    58A      1.651023    59A      1.665266  
      60A      1.706644    61A      1.726931    62A      1.766752  
      63A      1.834200    64A      1.853760    65A      1.916770  
      66A      1.978728    67A      2.034279    68A      2.076362  
      69A      2.098049    70A      2.166512    71A      2.244766  
      72A      2.289838    73A      2.404579    74A      2.424895  
      75A      2.471822    76A      2.519365    77A      2.910814  
      78A      2.944581    79A      2.969346    80A      3.029479  
      81A      3.065829    82A      3.140647    83A      3.191128  
      84A      3.235638    85A      3.666725    86A      3.689112  

    Final Occupation by Irrep:
              A 
    DOCC [    17 ]

  Energy converged.

  @DF-RKS Final Energy:  -230.25818209489350

   => Energetics <=

    Nuclear Repulsion Energy =            129.7148680461562265
    One-Electron Energy =                -571.1448498756418530
    Two-Electron Energy =                 235.7149549550557595
    DFT Exchange-Correlation Energy =     -24.5385850004635877
    Empirical Dispersion Energy =          -0.0045702200000000
    VV10 Nonlocal Energy =                  0.0000000000000000
    Total Energy =                       -230.2581820948934990



Properties will be evaluated at   0.000000,   0.000000,   0.000000 [a0]

Properties computed using the SCF density matrix

  Nuclear Dipole Moment: [e a0]
     X:   184.5983      Y:   -20.0890      Z:    33.8717

  Electronic Dipole Moment: [e a0]
     X:  -184.6395      Y:    20.8134      Z:   -33.9235

  Dipole Moment: [e a0]
     X:    -0.0413      Y:     0.7243      Z:    -0.0518     Total:     0.7274

  Dipole Moment: [D]
     X:    -0.1049      Y:     1.8411      Z:    -0.1318     Total:     1.8488


*** tstop() called on loro.prib.upf.edu at Sat Sep 29 16:50:56 2018
Module time:
	user time   =      12.74 seconds =       0.21 minutes
	system time =       0.19 seconds =       0.00 minutes
	total time  =         16 seconds =       0.27 minutes
Total time:
	user time   =      12.74 seconds =       0.21 minutes
	system time =       0.19 seconds =       0.00 minutes
	total time  =         16 seconds =       0.27 minutes


Properties will be evaluated at   0.000000,   0.000000,   0.000000 [a0]
OEProp: No title given, name of density matrix used for the following properties is 'SCF density'
  Nuclear Dipole Moment: [e a0]
     X:   184.5983      Y:   -20.0890      Z:    33.8717

  Electronic Dipole Moment: [e a0]
     X:  -184.6395      Y:    20.8134      Z:   -33.9235

  Dipole Moment: [e a0]
     X:    -0.0413      Y:     0.7243      Z:    -0.0518     Total:     0.7274

  Dipole Moment: [D]
     X:    -0.1049      Y:     1.8411      Z:    -0.1318     Total:     1.8488

  Quadrupole Moment: [D A]
    XX:   -27.6821     YY:   -24.6038     ZZ:   -21.5915
    XY:     6.3010     XZ:     3.5934     YZ:     0.4780

  Traceless Quadrupole Moment: [D A]
    XX:    -3.0563     YY:     0.0220     ZZ:     3.0343
    XY:     6.3010     XZ:     3.5934     YZ:     0.4780

  Mulliken Charges: (a.u.)
   Center  Symbol    Alpha    Beta     Spin     Total
       1     O     4.14073  4.14073  0.00000 -0.28147
       2     C     2.93832  2.93832  0.00000  0.12335
       3     C     2.93398  2.93398  0.00000  0.13203
       4     O     4.13960  4.13960  0.00000 -0.27921
       5     H     0.42819  0.42819  0.00000  0.14362
       6     H     0.50747  0.50747  0.00000 -0.01494
       7     H     0.49809  0.49809  0.00000  0.00382
       8     H     0.48734  0.48734  0.00000  0.02531
       9     H     0.49704  0.49704  0.00000  0.00592
      10     H     0.42922  0.42922  0.00000  0.14157

   Total alpha = 17.00000, Total beta = 17.00000, Total charge = -0.00000


    Psi4 stopped on: Saturday, 29 September 2018 04:50PM
    Psi4 wall time for execution: 0:00:15.99

*** Psi4 exiting successfully. Buy a developer a beer!
