
    -----------------------------------------------------------------------
          Psi4: An Open-Source Ab Initio Electronic Structure Package
                               Psi4 1.2.1 release

                         Git: Rev {HEAD} 406f4de 


    R. M. Parrish, L. A. Burns, D. G. A. Smith, A. C. Simmonett,
    A. E. DePrince III, E. G. Hohenstein, U. Bozkaya, A. Yu. Sokolov,
    R. Di Remigio, R. M. Richard, J. F. Gonthier, A. M. James,
    H. R. McAlexander, A. Kumar, M. Saitow, X. Wang, B. P. Pritchard,
    P. Verma, H. F. Schaefer III, K. Patkowski, R. A. King, E. F. Valeev,
    F. A. Evangelista, J. M. Turney, T. D. Crawford, and C. D. Sherrill,
    J. Chem. Theory Comput. 13(7) pp 3185--3197 (2017).
    (doi: 10.1021/acs.jctc.7b00174)


                         Additional Contributions by
    P. Kraus, H. Kruse, M. H. Lechner, M. C. Schieber, and R. A. Shaw

    -----------------------------------------------------------------------


    Psi4 started on: Saturday, 29 September 2018 04:37PM

    Process ID: 30373
    Host:       loro.prib.upf.edu
    PSIDATADIR: /shared/joao/test_parameterize/miniconda3/share/psi4
    Memory:     500.0 MiB
    Threads:    1
    
  ==> Input File <==

--------------------------------------------------------------------------
set_num_threads(1)
set_memory('5348 MB')

set { scf_mem_safety_factor 0.7 }

set { reference rks }
set { basis cc-pVDZ }

molecule MOL {
    0 1
    noreorient
    nocom
    symmetry c1
    O    1.014300  -0.002300   0.060500
    O    2.462400  -0.107500  -0.002400
    H    0.821200  -0.823600  -0.430600
    H    2.493169  -1.018719  -0.351069
}

set optking { frozen_dihedral = (" 3 1 2 4 ") }

set optking { dynamic_level = 1 
 geom_maxiter = 250
 print_trajectory_xyz_file = True }

energy, wfn = optimize('B3LYP-D3', return_wfn=True)

import os
os.chdir(os.environ['HTMD_PSI4_WORKDIR'])

oeprop(wfn, 'DIPOLE', 'QUADRUPOLE', 'MULLIKEN_CHARGES')

with open('psi4out.xyz', 'w') as f:
    f.write('4 ' )
    f.write('%.12f\n' % energy)
    f.write(MOL.save_string_xyz())
--------------------------------------------------------------------------
  Threads set to 1 by Python driver.

  Memory set to   4.981 GiB by Python driver.
gradient() will perform analytic gradient computation.

*** tstart() called on loro.prib.upf.edu
*** at Sat Sep 29 16:37:41 2018

   => Loading Basis Set <=

    Name: CC-PVDZ
    Role: ORBITAL
    Keyword: BASIS
    atoms 1-2 entry O          line   198 file /shared/joao/test_parameterize/miniconda3/share/psi4/basis/cc-pvdz.gbs 
    atoms 3-4 entry H          line    22 file /shared/joao/test_parameterize/miniconda3/share/psi4/basis/cc-pvdz.gbs 


         ---------------------------------------------------------
                                   SCF
            by Justin Turney, Rob Parrish, Andy Simmonett
                             and Daniel Smith
                              RKS Reference
                        1 Threads,   5100 MiB Core
         ---------------------------------------------------------

  ==> Geometry <==

    Molecular point group: c1
    Full point group: C1

    Geometry (in Angstrom), charge = 0, multiplicity = 1:

       Center              X                  Y                   Z               Mass       
    ------------   -----------------  -----------------  -----------------  -----------------
         O            1.014300000000    -0.002300000000     0.060500000000    15.994914619560
         O            2.462400000000    -0.107500000000    -0.002400000000    15.994914619560
         H            0.821200000000    -0.823600000000    -0.430600000000     1.007825032070
         H            2.493169000000    -1.018719000000    -0.351069000000     1.007825032070

  Running in c1 symmetry.

  Rotational constants: A =      9.32202  B =      0.13945  C =      0.13745 [cm^-1]
  Rotational constants: A = 279467.03028  B =   4180.65461  C =   4120.76420 [MHz]
  Nuclear repulsion =   36.890405884769606

  Charge       = 0
  Multiplicity = 1
  Electrons    = 18
  Nalpha       = 9
  Nbeta        = 9

  ==> Algorithm <==

  SCF Algorithm Type is DF.
  DIIS enabled.
  MOM disabled.
  Fractional occupation disabled.
  Guess Type is SAD.
  Energy threshold   = 1.00e-08
  Density threshold  = 1.00e-08
  Integral threshold = 0.00e+00

  ==> Primary Basis <==

  Basis Set: CC-PVDZ
    Blend: CC-PVDZ
    Number of shells: 18
    Number of basis function: 38
    Number of Cartesian functions: 40
    Spherical Harmonics?: true
    Max angular momentum: 2

  ==> DFT Potential <==

   => Composite Functional: B3LYP-D3ZERO <= 

    B3LYP-d3zero Hyb-GGA Exchange-Correlation Functional

    P. J. Stephens, F. J. Devlin, C. F. Chabalowski, and M. J. Frisch, J. Phys. Chem. 98, 11623 (1994)

    Deriv               =              1
    GGA                 =           TRUE
    Meta                =          FALSE

    Exchange Hybrid     =           TRUE
    MP2 Hybrid          =          FALSE

   => Exchange Functionals <=

    0.0800   Slater exchange
    0.7200         Becke 88

   => Exact (HF) Exchange <=

    0.2000               HF 

   => Correlation Functionals <=

    0.1900   Vosko, Wilk & Nusair (VWN5_RPA)
    0.8100   Lee, Yang & Parr

   => Molecular Quadrature <=

    Radial Scheme       =       TREUTLER
    Pruning Scheme      =           FLAT
    Nuclear Scheme      =       TREUTLER

    BS radius alpha     =              1
    Pruning alpha       =              1
    Radial Points       =             75
    Spherical Points    =            302
    Total Points        =          88274
    Total Blocks        =            720
    Max Points          =            256
    Max Functions       =             38

   => -D3ZERO: Empirical Dispersion <=

    Grimme's -D3 (zero-damping) Dispersion Correction
    Grimme S.; Antony J.; Ehrlich S.; Krieg H. (2010), J. Chem. Phys., 132: 154104

        S6 =   1.000000E+00
        S8 =   1.703000E+00
       SR6 =   1.261000E+00
       SR8 =   1.000000E+00
    ALPHA6 =   1.400000E+01

   => Loading Basis Set <=

    Name: (CC-PVDZ AUX)
    Role: JKFIT
    Keyword: DF_BASIS_SCF
    atoms 1-2 entry O          line   221 file /shared/joao/test_parameterize/miniconda3/share/psi4/basis/cc-pvdz-jkfit.gbs 
    atoms 3-4 entry H          line    51 file /shared/joao/test_parameterize/miniconda3/share/psi4/basis/cc-pvdz-jkfit.gbs 

  ==> Pre-Iterations <==

   -------------------------------------------------------
    Irrep   Nso     Nmo     Nalpha   Nbeta   Ndocc  Nsocc
   -------------------------------------------------------
     A         38      38       0       0       0       0
   -------------------------------------------------------
    Total      38      38       9       9       9       0
   -------------------------------------------------------

  ==> Integral Setup <==

  DFHelper Memory: AOs need 0.003 [GiB]; user supplied 3.486 [GiB]. Using in-core AOs.

  ==> MemDFJK: Density-Fitted J/K Matrices <==

    J tasked:                   Yes
    K tasked:                   Yes
    wK tasked:                   No
    OpenMP threads:               1
    Memory (MB):               3570
    Algorithm:                 Core
    Schwarz Cutoff:           1E-12
    Mask sparsity (%):       0.0000
    Fitting Condition:        1E-12

   => Auxiliary Basis Set <=

  Basis Set: (CC-PVDZ AUX)
    Blend: CC-PVDZ-JKFIT
    Number of shells: 66
    Number of basis function: 186
    Number of Cartesian functions: 212
    Spherical Harmonics?: true
    Max angular momentum: 3

  Minimum eigenvalue in the overlap matrix is 2.3595259291E-02.
  Using Symmetric Orthogonalization.

  SCF Guess: Superposition of Atomic Densities via on-the-fly atomic UHF.

  ==> Iterations <==

                           Total Energy        Delta E     RMS |[F,P]|

   @DF-RKS iter   0:  -151.58382979427236   -1.51584e+02   4.92730e-02 
   @DF-RKS iter   1:  -151.49973826204828    8.40915e-02   7.67385e-03 
   @DF-RKS iter   2:  -151.49771297171202    2.02529e-03   8.14515e-03 DIIS
   @DF-RKS iter   3:  -151.53346846476126   -3.57555e-02   8.94269e-04 DIIS
   @DF-RKS iter   4:  -151.53386698406692   -3.98519e-04   7.78620e-05 DIIS
   @DF-RKS iter   5:  -151.53387102345195   -4.03939e-06   2.43688e-05 DIIS
   @DF-RKS iter   6:  -151.53387110855601   -8.51041e-08   2.22031e-05 DIIS
   @DF-RKS iter   7:  -151.53387137325817   -2.64702e-07   1.51431e-06 DIIS
   @DF-RKS iter   8:  -151.53387137490955   -1.65139e-09   1.76327e-07 DIIS
   @DF-RKS iter   9:  -151.53387137494434   -3.47882e-11   3.63860e-08 DIIS
   @DF-RKS iter  10:  -151.53387137494573   -1.39266e-12   4.59473e-09 DIIS

  ==> Post-Iterations <==

    Orbital Energies [Eh]
    ---------------------

    Doubly Occupied:                                                      

       1A    -19.192009     2A    -19.191980     3A     -1.122235  
       4A     -0.887505     5A     -0.562247     6A     -0.428491  
       7A     -0.400978     8A     -0.375732     9A     -0.247383  

    Virtual:                                                              

      10A      0.008001    11A      0.020353    12A      0.135265  
      13A      0.542709    14A      0.573590    15A      0.860949  
      16A      0.864797    17A      0.922471    18A      0.934422  
      19A      0.985721    20A      1.068035    21A      1.147532  
      22A      1.228969    23A      1.341898    24A      1.519269  
      25A      1.658270    26A      1.808623    27A      2.007250  
      28A      2.111389    29A      2.296126    30A      2.372707  
      31A      2.626571    32A      2.849380    33A      2.925911  
      34A      2.992700    35A      3.200867    36A      3.490449  
      37A      3.544959    38A      3.824530  

    Final Occupation by Irrep:
              A 
    DOCC [     9 ]

  Energy converged.

  @DF-RKS Final Energy:  -151.53387137494573

   => Energetics <=

    Nuclear Repulsion Energy =             36.8904058847696064
    One-Electron Energy =                -281.6465800901987677
    Two-Electron Energy =                 107.6857525401518103
    DFT Exchange-Correlation Energy =     -14.4632723596683945
    Empirical Dispersion Energy =          -0.0001773500000000
    VV10 Nonlocal Energy =                  0.0000000000000000
    Total Energy =                       -151.5338713749457327



Properties will be evaluated at   0.000000,   0.000000,   0.000000 [a0]

Properties computed using the SCF density matrix

  Nuclear Dipole Moment: [e a0]
     X:    58.8233      Y:    -5.1414      Z:    -0.5988

  Electronic Dipole Moment: [e a0]
     X:   -58.9266      Y:     4.0393      Z:     0.0646

  Dipole Moment: [e a0]
     X:    -0.1033      Y:    -1.1021      Z:    -0.5342     Total:     1.2291

  Dipole Moment: [D]
     X:    -0.2625      Y:    -2.8012      Z:    -1.3578     Total:     3.1240


*** tstop() called on loro.prib.upf.edu at Sat Sep 29 16:37:45 2018
Module time:
	user time   =       2.91 seconds =       0.05 minutes
	system time =       0.08 seconds =       0.00 minutes
	total time  =          4 seconds =       0.07 minutes
Total time:
	user time   =       2.91 seconds =       0.05 minutes
	system time =       0.08 seconds =       0.00 minutes
	total time  =          4 seconds =       0.07 minutes

*** tstart() called on loro.prib.upf.edu
*** at Sat Sep 29 16:37:45 2018


         ------------------------------------------------------------
                                   SCF GRAD                          
                          Rob Parrish, Justin Turney,                
                       Andy Simmonett, and Alex Sokolov              
         ------------------------------------------------------------

  ==> Geometry <==

    Molecular point group: c1
    Full point group: C1

    Geometry (in Angstrom), charge = 0, multiplicity = 1:

       Center              X                  Y                   Z               Mass       
    ------------   -----------------  -----------------  -----------------  -----------------
         O            1.014300000000    -0.002300000000     0.060500000000    15.994914619560
         O            2.462400000000    -0.107500000000    -0.002400000000    15.994914619560
         H            0.821200000000    -0.823600000000    -0.430600000000     1.007825032070
         H            2.493169000000    -1.018719000000    -0.351069000000     1.007825032070

  Nuclear repulsion =   36.890405884769606

  ==> Basis Set <==

  Basis Set: CC-PVDZ
    Blend: CC-PVDZ
    Number of shells: 18
    Number of basis function: 38
    Number of Cartesian functions: 40
    Spherical Harmonics?: true
    Max angular momentum: 2

  ==> DFJKGrad: Density-Fitted SCF Gradients <==

    Gradient:                    1
    J tasked:                  Yes
    K tasked:                  Yes
    wK tasked:                  No
    OpenMP threads:              1
    Integrals threads:           1
    Memory (MB):              3570
    Schwarz Cutoff:          0E+00
    Fitting Condition:       1E-12

   => Auxiliary Basis Set <=

  Basis Set: (CC-PVDZ AUX)
    Blend: CC-PVDZ-JKFIT
    Number of shells: 66
    Number of basis function: 186
    Number of Cartesian functions: 212
    Spherical Harmonics?: true
    Max angular momentum: 3

  ==> DFT Potential <==

   => Composite Functional: B3LYP-D3ZERO <= 

    B3LYP-d3zero Hyb-GGA Exchange-Correlation Functional

    P. J. Stephens, F. J. Devlin, C. F. Chabalowski, and M. J. Frisch, J. Phys. Chem. 98, 11623 (1994)

    Deriv               =              1
    GGA                 =           TRUE
    Meta                =          FALSE

    Exchange Hybrid     =           TRUE
    MP2 Hybrid          =          FALSE

   => Exchange Functionals <=

    0.0800   Slater exchange
    0.7200         Becke 88

   => Exact (HF) Exchange <=

    0.2000               HF 

   => Correlation Functionals <=

    0.1900   Vosko, Wilk & Nusair (VWN5_RPA)
    0.8100   Lee, Yang & Parr

   => Molecular Quadrature <=

    Radial Scheme       =       TREUTLER
    Pruning Scheme      =           FLAT
    Nuclear Scheme      =       TREUTLER

    BS radius alpha     =              1
    Pruning alpha       =              1
    Radial Points       =             75
    Spherical Points    =            302
    Total Points        =          88274
    Total Blocks        =            720
    Max Points          =            256
    Max Functions       =             38


  -Total Gradient:
     Atom            X                  Y                   Z
    ------   -----------------  -----------------  -----------------
       1        0.007986860528     0.006904533405     0.003172767981
       2       -0.006601716288     0.007801621238     0.003962743842
       3        0.018208318028    -0.009631388883    -0.002600380286
       4       -0.019593063385    -0.005070504552    -0.004533066237


*** tstop() called on loro.prib.upf.edu at Sat Sep 29 16:37:46 2018
Module time:
	user time   =       0.67 seconds =       0.01 minutes
	system time =       0.02 seconds =       0.00 minutes
	total time  =          1 seconds =       0.02 minutes
Total time:
	user time   =       3.58 seconds =       0.06 minutes
	system time =       0.10 seconds =       0.00 minutes
	total time  =          5 seconds =       0.08 minutes

			-----------------------------------------
			 OPTKING 2.0: for geometry optimizations 
			  - R.A. King,  Bethel University        
			-----------------------------------------
	At level 1: Red. Int., RFO, no backsteps, dynamic trust

	Internal coordinates to be generated automatically.
	Detected frag 1 with atoms:  1 2 3 4
	---Fragment 1 Bond Connectivity---
	 1 : 2 3
	 2 : 1 4
	 3 : 1
	 4 : 2

	Assuming in current code that numbering for constraints corresponds to unified fragment.
	Frozen dihedral atom list: 
	     3     1     2     4
	---Fragment 1 Geometry and Gradient---
	 O           1.9167492166       -0.0043463701        0.1143284310
	 O           4.6532616296       -0.2031455593       -0.0045353427
	 H           1.5518431003       -1.5563784430       -0.8137160728
	 H           4.7114066130       -1.9250999164       -0.6634242637
	             0.0079868605        0.0069045334        0.0031727680
	            -0.0066017163        0.0078016212        0.0039627438
	             0.0182083180       -0.0096313889       -0.0026003803
	            -0.0195930634       -0.0050705046       -0.0045330662

	Previous optimization step data not found.  Starting new optimization.

	---Fragment 1 Intrafragment Coordinates---
	 - Coordinate -           - BOHR/RAD -       - ANG/DEG -
	 R(1,2)           =         2.746297	       1.453278
	 R(1,3)           =         1.844784	       0.976217
	 R(2,4)           =         1.844625	       0.976134
	 B(1,2,4)         =         1.685491	      96.571499
	 B(2,1,3)         =         1.685473	      96.570488
	*D(3,1,2,4)       =        -0.174533	      -9.999987

	Current energy   :      -151.5338713749

	Generating empirical Hessian (Schlegel '84) for each fragment.
	Taking RFO optimization step.
	Going to follow RFO solution 1.
	Using RFO vector 1.
	Norm of target step-size    0.29914
	Projected energy change by RFO approximation:        -0.0242121130

	Back-transformation to cartesian coordinates...
	Successfully converged to displaced geometry.

	Back-transformation to cartesian coordinates to adjust frozen coordinates...
	Successfully converged to displaced geometry.

	--- Internal Coordinate Step in ANG or DEG, aJ/ANG or AJ/DEG ---
	 ---------------------------------------------------------------------------
	   Coordinate                Previous        Force       Change         New 
	   ----------                --------       ------       ------       ------
	    1 R(1,2)          =      1.453278     0.216469     0.035194     1.488472
	    2 R(1,3)          =      0.976217    -0.047872    -0.005714     0.970504
	    3 R(2,4)          =      0.976134    -0.047258    -0.005639     0.970495
	    4 B(1,2,4)        =     96.571499     0.002772    11.794932   108.366431
	    5 B(2,1,3)        =     96.570488     0.002772    11.796891   108.367379
	    6 *D(3,1,2,4)     =     -9.999987     0.000000    -0.000000    -9.999987
	 ---------------------------------------------------------------------------
	Successfully symmetrized geometry.

  ==> Convergence Check <==

  Measures of convergence in internal coordinates in au.
  Criteria marked as inactive (o), active & met (*), and active & unmet ( ).
  --------------------------------------------------------------------------------------------- ~
   Step     Total Energy     Delta E     MAX Force     RMS Force      MAX Disp      RMS Disp    ~
  --------------------------------------------------------------------------------------------- ~
    Convergence Criteria    1.00e-06 *    3.00e-04 *             o    1.20e-03 *             o  ~
  --------------------------------------------------------------------------------------------- ~
      1    -151.53387137   -1.52e+02      3.64e-02      2.38e-02 o    2.06e-01      1.22e-01 o  ~
  ---------------------------------------------------------------------------------------------

	Writing optimization data to binary file.
	Structure for next step:
	Cartesian Geometry (in Angstrom)
	    O     0.9947212726  -0.0179348981   0.0406810643
	    O     2.4778907853  -0.1353674804  -0.0036705506
	    H     0.6135356443  -0.7816004439  -0.4212600799
	    H     2.7049212978  -1.0172161776  -0.3393194338
			--------------------------
			 OPTKING Finished Execution 
			--------------------------

    Structure for next step:
    Molecular point group: c1
    Full point group: C1

    Geometry (in Angstrom), charge = 0, multiplicity = 1:

    O            0.994721272617    -0.017934898065     0.040681064296
    O            2.477890785272    -0.135367480427    -0.003670550593
    H            0.613535644308    -0.781600443869    -0.421260079919
    H            2.704921297803    -1.017216177639    -0.339319433784

gradient() will perform analytic gradient computation.

*** tstart() called on loro.prib.upf.edu
*** at Sat Sep 29 16:37:46 2018

   => Loading Basis Set <=

    Name: CC-PVDZ
    Role: ORBITAL
    Keyword: BASIS
    atoms 1-2 entry O          line   198 file /shared/joao/test_parameterize/miniconda3/share/psi4/basis/cc-pvdz.gbs 
    atoms 3-4 entry H          line    22 file /shared/joao/test_parameterize/miniconda3/share/psi4/basis/cc-pvdz.gbs 


         ---------------------------------------------------------
                                   SCF
            by Justin Turney, Rob Parrish, Andy Simmonett
                             and Daniel Smith
                              RKS Reference
                        1 Threads,   5100 MiB Core
         ---------------------------------------------------------

  ==> Geometry <==

    Molecular point group: c1
    Full point group: C1

    Geometry (in Angstrom), charge = 0, multiplicity = 1:

       Center              X                  Y                   Z               Mass       
    ------------   -----------------  -----------------  -----------------  -----------------
         O            0.994721272617    -0.017934898065     0.040681064296    15.994914619560
         O            2.477890785272    -0.135367480427    -0.003670550593    15.994914619560
         H            0.613535644308    -0.781600443869    -0.421260079919     1.007825032070
         H            2.704921297803    -1.017216177639    -0.339319433784     1.007825032070

  Running in c1 symmetry.

  Rotational constants: A =     10.43472  B =      0.13765  C =      0.13589 [cm^-1]
  Rotational constants: A = 312825.07201  B =   4126.73537  C =   4073.93982 [MHz]
  Nuclear repulsion =   35.926541420491354

  Charge       = 0
  Multiplicity = 1
  Electrons    = 18
  Nalpha       = 9
  Nbeta        = 9

  ==> Algorithm <==

  SCF Algorithm Type is DF.
  DIIS enabled.
  MOM disabled.
  Fractional occupation disabled.
  Guess Type is READ.
  Energy threshold   = 1.00e-08
  Density threshold  = 1.00e-08
  Integral threshold = 0.00e+00

  ==> Primary Basis <==

  Basis Set: CC-PVDZ
    Blend: CC-PVDZ
    Number of shells: 18
    Number of basis function: 38
    Number of Cartesian functions: 40
    Spherical Harmonics?: true
    Max angular momentum: 2

  ==> DFT Potential <==

   => Composite Functional: B3LYP-D3ZERO <= 

    B3LYP-d3zero Hyb-GGA Exchange-Correlation Functional

    P. J. Stephens, F. J. Devlin, C. F. Chabalowski, and M. J. Frisch, J. Phys. Chem. 98, 11623 (1994)

    Deriv               =              1
    GGA                 =           TRUE
    Meta                =          FALSE

    Exchange Hybrid     =           TRUE
    MP2 Hybrid          =          FALSE

   => Exchange Functionals <=

    0.0800   Slater exchange
    0.7200         Becke 88

   => Exact (HF) Exchange <=

    0.2000               HF 

   => Correlation Functionals <=

    0.1900   Vosko, Wilk & Nusair (VWN5_RPA)
    0.8100   Lee, Yang & Parr

   => Molecular Quadrature <=

    Radial Scheme       =       TREUTLER
    Pruning Scheme      =           FLAT
    Nuclear Scheme      =       TREUTLER

    BS radius alpha     =              1
    Pruning alpha       =              1
    Radial Points       =             75
    Spherical Points    =            302
    Total Points        =          88310
    Total Blocks        =            720
    Max Points          =            255
    Max Functions       =             38

   => -D3ZERO: Empirical Dispersion <=

    Grimme's -D3 (zero-damping) Dispersion Correction
    Grimme S.; Antony J.; Ehrlich S.; Krieg H. (2010), J. Chem. Phys., 132: 154104

        S6 =   1.000000E+00
        S8 =   1.703000E+00
       SR6 =   1.261000E+00
       SR8 =   1.000000E+00
    ALPHA6 =   1.400000E+01

   => Loading Basis Set <=

    Name: (CC-PVDZ AUX)
    Role: JKFIT
    Keyword: DF_BASIS_SCF
    atoms 1-2 entry O          line   221 file /shared/joao/test_parameterize/miniconda3/share/psi4/basis/cc-pvdz-jkfit.gbs 
    atoms 3-4 entry H          line    51 file /shared/joao/test_parameterize/miniconda3/share/psi4/basis/cc-pvdz-jkfit.gbs 

  Reading orbitals from file 180, no projection.

  ==> Pre-Iterations <==

   -------------------------------------------------------
    Irrep   Nso     Nmo     Nalpha   Nbeta   Ndocc  Nsocc
   -------------------------------------------------------
     A         38      38       0       0       0       0
   -------------------------------------------------------
    Total      38      38       9       9       9       0
   -------------------------------------------------------

  ==> Integral Setup <==

  DFHelper Memory: AOs need 0.003 [GiB]; user supplied 3.486 [GiB]. Using in-core AOs.

  ==> MemDFJK: Density-Fitted J/K Matrices <==

    J tasked:                   Yes
    K tasked:                   Yes
    wK tasked:                   No
    OpenMP threads:               1
    Memory (MB):               3570
    Algorithm:                 Core
    Schwarz Cutoff:           1E-12
    Mask sparsity (%):       0.0000
    Fitting Condition:        1E-12

   => Auxiliary Basis Set <=

  Basis Set: (CC-PVDZ AUX)
    Blend: CC-PVDZ-JKFIT
    Number of shells: 66
    Number of basis function: 186
    Number of Cartesian functions: 212
    Spherical Harmonics?: true
    Max angular momentum: 3

  Minimum eigenvalue in the overlap matrix is 2.6833710131E-02.
  Using Symmetric Orthogonalization.

  SCF Guess: Orbitals guess was supplied from a previous computation.

  ==> Iterations <==

                           Total Energy        Delta E     RMS |[F,P]|

   @DF-RKS iter   0:  -151.52613359665551   -1.51526e+02   3.62684e-03 
   @DF-RKS iter   1:  -151.53635920122687   -1.02256e-02   1.25974e-03 
   @DF-RKS iter   2:  -151.53681521726705   -4.56016e-04   7.99319e-04 DIIS
   @DF-RKS iter   3:  -151.53712960111002   -3.14384e-04   2.26682e-04 DIIS
   @DF-RKS iter   4:  -151.53715718000439   -2.75789e-05   2.28495e-05 DIIS
   @DF-RKS iter   5:  -151.53715750942683   -3.29422e-07   2.49009e-06 DIIS
   @DF-RKS iter   6:  -151.53715750817415    1.25269e-09   3.39126e-06 DIIS
   @DF-RKS iter   7:  -151.53715751432907   -6.15492e-09   8.70630e-08 DIIS
   @DF-RKS iter   8:  -151.53715751433751   -8.44125e-12   1.03743e-08 DIIS
   @DF-RKS iter   9:  -151.53715751433757   -5.68434e-14   1.14227e-09 DIIS

  ==> Post-Iterations <==

    Orbital Energies [Eh]
    ---------------------

    Doubly Occupied:                                                      

       1A    -19.190684     2A    -19.190657     3A     -1.092994  
       4A     -0.902124     5A     -0.560421     6A     -0.410393  
       7A     -0.389915     8A     -0.370365     9A     -0.250661  

    Virtual:                                                              

      10A     -0.008365    11A      0.027498    12A      0.123482  
      13A      0.546924    14A      0.582909    15A      0.854800  
      16A      0.869962    17A      0.953891    18A      0.959639  
      19A      0.978328    20A      1.076639    21A      1.259491  
      22A      1.287819    23A      1.350069    24A      1.458494  
      25A      1.531006    26A      1.824188    27A      2.032538  
      28A      2.101878    29A      2.341993    30A      2.363973  
      31A      2.652157    32A      2.858013    33A      2.907694  
      34A      2.961101    35A      3.143185    36A      3.544186  
      37A      3.554049    38A      3.746088  

    Final Occupation by Irrep:
              A 
    DOCC [     9 ]

  Energy converged.

  @DF-RKS Final Energy:  -151.53715751433757

   => Energetics <=

    Nuclear Repulsion Energy =             35.9265414204913540
    One-Electron Energy =                -279.8360378976526590
    Two-Electron Energy =                 106.8199799947232407
    DFT Exchange-Correlation Energy =     -14.4472321918995004
    Empirical Dispersion Energy =          -0.0004088400000000
    VV10 Nonlocal Energy =                  0.0000000000000000
    Total Energy =                       -151.5371575143375651



Properties will be evaluated at   0.000000,   0.000000,   0.000000 [a0]

Properties computed using the SCF density matrix

  Nuclear Dipole Moment: [e a0]
     X:    58.7693      Y:    -5.7169      Z:    -0.8778

  Electronic Dipole Moment: [e a0]
     X:   -58.8730      Y:     4.6095      Z:     0.3410

  Dipole Moment: [e a0]
     X:    -0.1037      Y:    -1.1073      Z:    -0.5367     Total:     1.2349

  Dipole Moment: [D]
     X:    -0.2637      Y:    -2.8146      Z:    -1.3642     Total:     3.1389


*** tstop() called on loro.prib.upf.edu at Sat Sep 29 16:37:50 2018
Module time:
	user time   =       2.53 seconds =       0.04 minutes
	system time =       0.07 seconds =       0.00 minutes
	total time  =          4 seconds =       0.07 minutes
Total time:
	user time   =       6.12 seconds =       0.10 minutes
	system time =       0.18 seconds =       0.00 minutes
	total time  =          9 seconds =       0.15 minutes

*** tstart() called on loro.prib.upf.edu
*** at Sat Sep 29 16:37:50 2018


         ------------------------------------------------------------
                                   SCF GRAD                          
                          Rob Parrish, Justin Turney,                
                       Andy Simmonett, and Alex Sokolov              
         ------------------------------------------------------------

  ==> Geometry <==

    Molecular point group: c1
    Full point group: C1

    Geometry (in Angstrom), charge = 0, multiplicity = 1:

       Center              X                  Y                   Z               Mass       
    ------------   -----------------  -----------------  -----------------  -----------------
         O            0.994721272617    -0.017934898065     0.040681064296    15.994914619560
         O            2.477890785272    -0.135367480427    -0.003670550593    15.994914619560
         H            0.613535644308    -0.781600443869    -0.421260079919     1.007825032070
         H            2.704921297803    -1.017216177639    -0.339319433784     1.007825032070

  Nuclear repulsion =   35.926541420491354

  ==> Basis Set <==

  Basis Set: CC-PVDZ
    Blend: CC-PVDZ
    Number of shells: 18
    Number of basis function: 38
    Number of Cartesian functions: 40
    Spherical Harmonics?: true
    Max angular momentum: 2

  ==> DFJKGrad: Density-Fitted SCF Gradients <==

    Gradient:                    1
    J tasked:                  Yes
    K tasked:                  Yes
    wK tasked:                  No
    OpenMP threads:              1
    Integrals threads:           1
    Memory (MB):              3570
    Schwarz Cutoff:          0E+00
    Fitting Condition:       1E-12

   => Auxiliary Basis Set <=

  Basis Set: (CC-PVDZ AUX)
    Blend: CC-PVDZ-JKFIT
    Number of shells: 66
    Number of basis function: 186
    Number of Cartesian functions: 212
    Spherical Harmonics?: true
    Max angular momentum: 3

  ==> DFT Potential <==

   => Composite Functional: B3LYP-D3ZERO <= 

    B3LYP-d3zero Hyb-GGA Exchange-Correlation Functional

    P. J. Stephens, F. J. Devlin, C. F. Chabalowski, and M. J. Frisch, J. Phys. Chem. 98, 11623 (1994)

    Deriv               =              1
    GGA                 =           TRUE
    Meta                =          FALSE

    Exchange Hybrid     =           TRUE
    MP2 Hybrid          =          FALSE

   => Exchange Functionals <=

    0.0800   Slater exchange
    0.7200         Becke 88

   => Exact (HF) Exchange <=

    0.2000               HF 

   => Correlation Functionals <=

    0.1900   Vosko, Wilk & Nusair (VWN5_RPA)
    0.8100   Lee, Yang & Parr

   => Molecular Quadrature <=

    Radial Scheme       =       TREUTLER
    Pruning Scheme      =           FLAT
    Nuclear Scheme      =       TREUTLER

    BS radius alpha     =              1
    Pruning alpha       =              1
    Radial Points       =             75
    Spherical Points    =            302
    Total Points        =          88310
    Total Blocks        =            720
    Max Points          =            255
    Max Functions       =             38


  -Total Gradient:
     Atom            X                  Y                   Z
    ------   -----------------  -----------------  -----------------
       1       -0.014645491257    -0.003774299982    -0.006095836919
       2        0.013428977664    -0.009257360318    -0.000219952387
       3       -0.006143929867     0.006115344212     0.005274155788
       4        0.007359951318     0.006911077092     0.001039091199


*** tstop() called on loro.prib.upf.edu at Sat Sep 29 16:37:50 2018
Module time:
	user time   =       0.64 seconds =       0.01 minutes
	system time =       0.02 seconds =       0.00 minutes
	total time  =          0 seconds =       0.00 minutes
Total time:
	user time   =       6.76 seconds =       0.11 minutes
	system time =       0.20 seconds =       0.00 minutes
	total time  =          9 seconds =       0.15 minutes

			-----------------------------------------
			 OPTKING 2.0: for geometry optimizations 
			  - R.A. King,  Bethel University        
			-----------------------------------------
	At level 1: Red. Int., RFO, no backsteps, dynamic trust

	Previous internal coordinate definitions found.
	---Fragment 1 Geometry and Gradient---
	 O           1.8797507838       -0.0338920456        0.0768760703
	 O           4.6825349714       -0.2558074653       -0.0069363354
	 H           1.1594143405       -1.4770107843       -0.7960661818
	 H           5.1115604639       -1.9222599937       -0.6412208014
	            -0.0146454913       -0.0037743000       -0.0060958369
	             0.0134289777       -0.0092573603       -0.0002199524
	            -0.0061439299        0.0061153442        0.0052741558
	             0.0073599513        0.0069110771        0.0010390912

	---Fragment 1 Intrafragment Coordinates---
	 - Coordinate -           - BOHR/RAD -       - ANG/DEG -
	 R(1,2)           =         2.812805	       1.488472
	 R(1,3)           =         1.833986	       0.970504
	 R(2,4)           =         1.833969	       0.970495
	 B(1,2,4)         =         1.891351	     108.366431
	 B(2,1,3)         =         1.891368	     108.367379
	*D(3,1,2,4)       =        -0.174533	      -9.999987

	Current energy   :      -151.5371575143

	Energy change for the previous step:
		Projected    :        -0.0242121130
		Actual       :        -0.0032861394
	Energy ratio indicates iffy step: Trust radius decreased to 1.250e-01.


	Performing BFGS update.
	Previous computed or guess Hessian on step 1.
	Steps to be used in Hessian update: 1
	Taking RFO optimization step.
	Going to follow RFO solution 1.
	Using RFO vector 1.
	Norm of target step-size    0.09142
	Projected energy change by RFO approximation:        -0.0013177924

	Back-transformation to cartesian coordinates...
	Successfully converged to displaced geometry.

	Back-transformation to cartesian coordinates to adjust frozen coordinates...
	Successfully converged to displaced geometry.

	--- Internal Coordinate Step in ANG or DEG, aJ/ANG or AJ/DEG ---
	 ---------------------------------------------------------------------------
	   Coordinate                Previous        Force       Change         New 
	   ----------                --------       ------       ------       ------
	    1 R(1,2)          =      1.488472    -0.171987    -0.019013     1.469459
	    2 R(1,3)          =      0.970504     0.040457     0.003279     0.973783
	    3 R(2,4)          =      0.970495     0.040524     0.003285     0.973780
	    4 B(1,2,4)        =    108.366431    -0.001222    -3.386971   104.979460
	    5 B(2,1,3)        =    108.367379    -0.001222    -3.387708   104.979670
	    6 *D(3,1,2,4)     =     -9.999987     0.000000     0.000000    -9.999987
	 ---------------------------------------------------------------------------
	Successfully symmetrized geometry.

  ==> Convergence Check <==

  Measures of convergence in internal coordinates in au.
  Criteria marked as inactive (o), active & met (*), and active & unmet ( ).
  ---------------------------------------------------------------------------------------------
   Step     Total Energy     Delta E     MAX Force     RMS Force      MAX Disp      RMS Disp   
  ---------------------------------------------------------------------------------------------
    Convergence Criteria    1.00e-06 *    3.00e-04 *             o    1.20e-03 *             o
  ---------------------------------------------------------------------------------------------
      2    -151.53715751   -3.29e-03      2.09e-02      1.29e-02 o    5.91e-02      3.73e-02 o  ~
  ---------------------------------------------------------------------------------------------

	Writing optimization data to binary file.
	Structure for next step:
	Cartesian Geometry (in Angstrom)
	    O     1.0049952145  -0.0113069408   0.0475202762
	    O     2.4692537876  -0.1244599266  -0.0020106139
	    H     0.6757396909  -0.7964793943  -0.4250764871
	    H     2.6410803070  -1.0198727383  -0.3440021752
			--------------------------
			 OPTKING Finished Execution 
			--------------------------

    Structure for next step:
    Molecular point group: c1
    Full point group: C1

    Geometry (in Angstrom), charge = 0, multiplicity = 1:

    O            1.004995214472    -0.011306940777     0.047520276250
    O            2.469253787588    -0.124459926606    -0.002010613886
    H            0.675739690926    -0.796479394333    -0.425076487144
    H            2.641080307015    -1.019872738284    -0.344002175221

gradient() will perform analytic gradient computation.

*** tstart() called on loro.prib.upf.edu
*** at Sat Sep 29 16:37:50 2018

   => Loading Basis Set <=

    Name: CC-PVDZ
    Role: ORBITAL
    Keyword: BASIS
    atoms 1-2 entry O          line   198 file /shared/joao/test_parameterize/miniconda3/share/psi4/basis/cc-pvdz.gbs 
    atoms 3-4 entry H          line    22 file /shared/joao/test_parameterize/miniconda3/share/psi4/basis/cc-pvdz.gbs 


         ---------------------------------------------------------
                                   SCF
            by Justin Turney, Rob Parrish, Andy Simmonett
                             and Daniel Smith
                              RKS Reference
                        1 Threads,   5100 MiB Core
         ---------------------------------------------------------

  ==> Geometry <==

    Molecular point group: c1
    Full point group: C1

    Geometry (in Angstrom), charge = 0, multiplicity = 1:

       Center              X                  Y                   Z               Mass       
    ------------   -----------------  -----------------  -----------------  -----------------
         O            1.004995214472    -0.011306940777     0.047520276250    15.994914619560
         O            2.469253787588    -0.124459926606    -0.002010613886    15.994914619560
         H            0.675739690926    -0.796479394333    -0.425076487144     1.007825032070
         H            2.641080307015    -1.019872738284    -0.344002175221     1.007825032070

  Running in c1 symmetry.

  Rotational constants: A =      9.97613  B =      0.13844  C =      0.13658 [cm^-1]
  Rotational constants: A = 299076.93762  B =   4150.21758  C =   4094.53419 [MHz]
  Nuclear repulsion =   36.326223728095918

  Charge       = 0
  Multiplicity = 1
  Electrons    = 18
  Nalpha       = 9
  Nbeta        = 9

  ==> Algorithm <==

  SCF Algorithm Type is DF.
  DIIS enabled.
  MOM disabled.
  Fractional occupation disabled.
  Guess Type is READ.
  Energy threshold   = 1.00e-08
  Density threshold  = 1.00e-08
  Integral threshold = 0.00e+00

  ==> Primary Basis <==

  Basis Set: CC-PVDZ
    Blend: CC-PVDZ
    Number of shells: 18
    Number of basis function: 38
    Number of Cartesian functions: 40
    Spherical Harmonics?: true
    Max angular momentum: 2

  ==> DFT Potential <==

   => Composite Functional: B3LYP-D3ZERO <= 

    B3LYP-d3zero Hyb-GGA Exchange-Correlation Functional

    P. J. Stephens, F. J. Devlin, C. F. Chabalowski, and M. J. Frisch, J. Phys. Chem. 98, 11623 (1994)

    Deriv               =              1
    GGA                 =           TRUE
    Meta                =          FALSE

    Exchange Hybrid     =           TRUE
    MP2 Hybrid          =          FALSE

   => Exchange Functionals <=

    0.0800   Slater exchange
    0.7200         Becke 88

   => Exact (HF) Exchange <=

    0.2000               HF 

   => Correlation Functionals <=

    0.1900   Vosko, Wilk & Nusair (VWN5_RPA)
    0.8100   Lee, Yang & Parr

   => Molecular Quadrature <=

    Radial Scheme       =       TREUTLER
    Pruning Scheme      =           FLAT
    Nuclear Scheme      =       TREUTLER

    BS radius alpha     =              1
    Pruning alpha       =              1
    Radial Points       =             75
    Spherical Points    =            302
    Total Points        =          88300
    Total Blocks        =            722
    Max Points          =            256
    Max Functions       =             38

   => -D3ZERO: Empirical Dispersion <=

    Grimme's -D3 (zero-damping) Dispersion Correction
    Grimme S.; Antony J.; Ehrlich S.; Krieg H. (2010), J. Chem. Phys., 132: 154104

        S6 =   1.000000E+00
        S8 =   1.703000E+00
       SR6 =   1.261000E+00
       SR8 =   1.000000E+00
    ALPHA6 =   1.400000E+01

   => Loading Basis Set <=

    Name: (CC-PVDZ AUX)
    Role: JKFIT
    Keyword: DF_BASIS_SCF
    atoms 1-2 entry O          line   221 file /shared/joao/test_parameterize/miniconda3/share/psi4/basis/cc-pvdz-jkfit.gbs 
    atoms 3-4 entry H          line    51 file /shared/joao/test_parameterize/miniconda3/share/psi4/basis/cc-pvdz-jkfit.gbs 

  Reading orbitals from file 180, no projection.

  ==> Pre-Iterations <==

   -------------------------------------------------------
    Irrep   Nso     Nmo     Nalpha   Nbeta   Ndocc  Nsocc
   -------------------------------------------------------
     A         38      38       0       0       0       0
   -------------------------------------------------------
    Total      38      38       9       9       9       0
   -------------------------------------------------------

  ==> Integral Setup <==

  DFHelper Memory: AOs need 0.003 [GiB]; user supplied 3.486 [GiB]. Using in-core AOs.

  ==> MemDFJK: Density-Fitted J/K Matrices <==

    J tasked:                   Yes
    K tasked:                   Yes
    wK tasked:                   No
    OpenMP threads:               1
    Memory (MB):               3570
    Algorithm:                 Core
    Schwarz Cutoff:           1E-12
    Mask sparsity (%):       0.0000
    Fitting Condition:        1E-12

   => Auxiliary Basis Set <=

  Basis Set: (CC-PVDZ AUX)
    Blend: CC-PVDZ-JKFIT
    Number of shells: 66
    Number of basis function: 186
    Number of Cartesian functions: 212
    Spherical Harmonics?: true
    Max angular momentum: 3

  Minimum eigenvalue in the overlap matrix is 2.5336678168E-02.
  Using Symmetric Orthogonalization.

  SCF Guess: Orbitals guess was supplied from a previous computation.

  ==> Iterations <==

                           Total Energy        Delta E     RMS |[F,P]|

   @DF-RKS iter   0:  -151.54088414317457   -1.51541e+02   1.32838e-03 
   @DF-RKS iter   1:  -151.53869624040260    2.18790e-03   4.65082e-04 
   @DF-RKS iter   2:  -151.53877275401803   -7.65136e-05   2.23077e-04 DIIS
   @DF-RKS iter   3:  -151.53879742095475   -2.46669e-05   3.69623e-05 DIIS
   @DF-RKS iter   4:  -151.53879812425268   -7.03298e-07   8.02102e-06 DIIS
   @DF-RKS iter   5:  -151.53879816417384   -3.99212e-08   5.21846e-07 DIIS
   @DF-RKS iter   6:  -151.53879816430523   -1.31394e-10   4.41564e-07 DIIS
   @DF-RKS iter   7:  -151.53879816440789   -1.02659e-10   4.28958e-08 DIIS
   @DF-RKS iter   8:  -151.53879816440923   -1.33582e-12   6.29200e-09 DIIS

  ==> Post-Iterations <==

    Orbital Energies [Eh]
    ---------------------

    Doubly Occupied:                                                      

       1A    -19.190525     2A    -19.190497     3A     -1.103557  
       4A     -0.896098     5A     -0.561708     6A     -0.416617  
       7A     -0.393685     8A     -0.371845     9A     -0.248187  

    Virtual:                                                              

      10A      0.005194    11A      0.021493    12A      0.127487  
      13A      0.551217    14A      0.577081    15A      0.856931  
      16A      0.869708    17A      0.945016    18A      0.947470  
      19A      0.979883    20A      1.071288    21A      1.253994  
      22A      1.255971    23A      1.342527    24A      1.500865  
      25A      1.534104    26A      1.818926    27A      2.026101  
      28A      2.098583    29A      2.320960    30A      2.368667  
      31A      2.638712    32A      2.853599    33A      2.931058  
      34A      2.963255    35A      3.174836    36A      3.532780  
      37A      3.540000    38A      3.780429  

    Final Occupation by Irrep:
              A 
    DOCC [     9 ]

  Energy converged.

  @DF-RKS Final Energy:  -151.53879816440923

   => Energetics <=

    Nuclear Repulsion Energy =             36.3262237280959184
    One-Electron Energy =                -280.6058586183349917
    Two-Electron Energy =                 107.1945895997409366
    DFT Exchange-Correlation Energy =     -14.4534353039111192
    Empirical Dispersion Energy =          -0.0003175700000000
    VV10 Nonlocal Energy =                  0.0000000000000000
    Total Energy =                       -151.5387981644092292



Properties will be evaluated at   0.000000,   0.000000,   0.000000 [a0]

Properties computed using the SCF density matrix

  Nuclear Dipole Moment: [e a0]
     X:    58.7909      Y:    -5.4849      Z:    -0.7653

  Electronic Dipole Moment: [e a0]
     X:   -58.8952      Y:     4.3721      Z:     0.2259

  Dipole Moment: [e a0]
     X:    -0.1042      Y:    -1.1128      Z:    -0.5394     Total:     1.2410

  Dipole Moment: [D]
     X:    -0.2650      Y:    -2.8285      Z:    -1.3710     Total:     3.1544


*** tstop() called on loro.prib.upf.edu at Sat Sep 29 16:37:54 2018
Module time:
	user time   =       2.29 seconds =       0.04 minutes
	system time =       0.05 seconds =       0.00 minutes
	total time  =          4 seconds =       0.07 minutes
Total time:
	user time   =       9.06 seconds =       0.15 minutes
	system time =       0.25 seconds =       0.00 minutes
	total time  =         13 seconds =       0.22 minutes

*** tstart() called on loro.prib.upf.edu
*** at Sat Sep 29 16:37:54 2018


         ------------------------------------------------------------
                                   SCF GRAD                          
                          Rob Parrish, Justin Turney,                
                       Andy Simmonett, and Alex Sokolov              
         ------------------------------------------------------------

  ==> Geometry <==

    Molecular point group: c1
    Full point group: C1

    Geometry (in Angstrom), charge = 0, multiplicity = 1:

       Center              X                  Y                   Z               Mass       
    ------------   -----------------  -----------------  -----------------  -----------------
         O            1.004995214472    -0.011306940777     0.047520276250    15.994914619560
         O            2.469253787588    -0.124459926606    -0.002010613886    15.994914619560
         H            0.675739690926    -0.796479394333    -0.425076487144     1.007825032070
         H            2.641080307015    -1.019872738284    -0.344002175221     1.007825032070

  Nuclear repulsion =   36.326223728095918

  ==> Basis Set <==

  Basis Set: CC-PVDZ
    Blend: CC-PVDZ
    Number of shells: 18
    Number of basis function: 38
    Number of Cartesian functions: 40
    Spherical Harmonics?: true
    Max angular momentum: 2

  ==> DFJKGrad: Density-Fitted SCF Gradients <==

    Gradient:                    1
    J tasked:                  Yes
    K tasked:                  Yes
    wK tasked:                  No
    OpenMP threads:              1
    Integrals threads:           1
    Memory (MB):              3570
    Schwarz Cutoff:          0E+00
    Fitting Condition:       1E-12

   => Auxiliary Basis Set <=

  Basis Set: (CC-PVDZ AUX)
    Blend: CC-PVDZ-JKFIT
    Number of shells: 66
    Number of basis function: 186
    Number of Cartesian functions: 212
    Spherical Harmonics?: true
    Max angular momentum: 3

  ==> DFT Potential <==

   => Composite Functional: B3LYP-D3ZERO <= 

    B3LYP-d3zero Hyb-GGA Exchange-Correlation Functional

    P. J. Stephens, F. J. Devlin, C. F. Chabalowski, and M. J. Frisch, J. Phys. Chem. 98, 11623 (1994)

    Deriv               =              1
    GGA                 =           TRUE
    Meta                =          FALSE

    Exchange Hybrid     =           TRUE
    MP2 Hybrid          =          FALSE

   => Exchange Functionals <=

    0.0800   Slater exchange
    0.7200         Becke 88

   => Exact (HF) Exchange <=

    0.2000               HF 

   => Correlation Functionals <=

    0.1900   Vosko, Wilk & Nusair (VWN5_RPA)
    0.8100   Lee, Yang & Parr

   => Molecular Quadrature <=

    Radial Scheme       =       TREUTLER
    Pruning Scheme      =           FLAT
    Nuclear Scheme      =       TREUTLER

    BS radius alpha     =              1
    Pruning alpha       =              1
    Radial Points       =             75
    Spherical Points    =            302
    Total Points        =          88300
    Total Blocks        =            722
    Max Points          =            256
    Max Functions       =             38


  -Total Gradient:
     Atom            X                  Y                   Z
    ------   -----------------  -----------------  -----------------
       1       -0.004692042683     0.001112280012    -0.002362234581
       2        0.004621859727    -0.001873663281     0.001993448211
       3       -0.001224103517    -0.000326256569     0.001874119193
       4        0.001293617751     0.001080500273    -0.001508793308


*** tstop() called on loro.prib.upf.edu at Sat Sep 29 16:37:55 2018
Module time:
	user time   =       0.68 seconds =       0.01 minutes
	system time =       0.01 seconds =       0.00 minutes
	total time  =          1 seconds =       0.02 minutes
Total time:
	user time   =       9.75 seconds =       0.16 minutes
	system time =       0.27 seconds =       0.00 minutes
	total time  =         14 seconds =       0.23 minutes

			-----------------------------------------
			 OPTKING 2.0: for geometry optimizations 
			  - R.A. King,  Bethel University        
			-----------------------------------------
	At level 1: Red. Int., RFO, no backsteps, dynamic trust

	Previous internal coordinate definitions found.
	---Fragment 1 Geometry and Gradient---
	 O           1.8991657202       -0.0213670215        0.0898003079
	 O           4.6662134111       -0.2351951758       -0.0037995096
	 H           1.2769629530       -1.5051279258       -0.8032781462
	 H           4.9909184752       -1.9272801658       -0.6500699003
	            -0.0046920427        0.0011122800       -0.0023622346
	             0.0046218597       -0.0018736633        0.0019934482
	            -0.0012241035       -0.0003262566        0.0018741192
	             0.0012936178        0.0010805003       -0.0015087933

	---Fragment 1 Intrafragment Coordinates---
	 - Coordinate -           - BOHR/RAD -       - ANG/DEG -
	 R(1,2)           =         2.776875	       1.469459
	 R(1,3)           =         1.840183	       0.973783
	 R(2,4)           =         1.840177	       0.973780
	 B(1,2,4)         =         1.832237	     104.979460
	 B(2,1,3)         =         1.832241	     104.979670
	*D(3,1,2,4)       =        -0.174533	      -9.999987

	Current energy   :      -151.5387981644

	Energy change for the previous step:
		Projected    :        -0.0013177924
		Actual       :        -0.0016406501
	Energy ratio indicates good step: Trust radius increased to 3.750e-01.


	Performing BFGS update.
	Previous computed or guess Hessian on step 1.
	Steps to be used in Hessian update: 2 1
	Taking RFO optimization step.
	Going to follow RFO solution 1.
	Using RFO vector 1.
	Norm of target step-size    0.01537
	Projected energy change by RFO approximation:        -0.0000570046

	Back-transformation to cartesian coordinates...
	Successfully converged to displaced geometry.

	Back-transformation to cartesian coordinates to adjust frozen coordinates...
	Successfully converged to displaced geometry.

	--- Internal Coordinate Step in ANG or DEG, aJ/ANG or AJ/DEG ---
	 ---------------------------------------------------------------------------
	   Coordinate                Previous        Force       Change         New 
	   ----------                --------       ------       ------       ------
	    1 R(1,2)          =      1.469459    -0.048930    -0.006252     1.463207
	    2 R(1,3)          =      0.973783     0.001931    -0.000061     0.973721
	    3 R(2,4)          =      0.973780     0.001954    -0.000058     0.973722
	    4 B(1,2,4)        =    104.979460    -0.000191    -0.398058   104.581402
	    5 B(2,1,3)        =    104.979670    -0.000191    -0.398237   104.581434
	    6 *D(3,1,2,4)     =     -9.999987     0.000000    -0.000000    -9.999987
	 ---------------------------------------------------------------------------
	Successfully symmetrized geometry.

  ==> Convergence Check <==

  Measures of convergence in internal coordinates in au.
  Criteria marked as inactive (o), active & met (*), and active & unmet ( ).
  ---------------------------------------------------------------------------------------------
   Step     Total Energy     Delta E     MAX Force     RMS Force      MAX Disp      RMS Disp   
  ---------------------------------------------------------------------------------------------
    Convergence Criteria    1.00e-06 *    3.00e-04 *             o    1.20e-03 *             o
  ---------------------------------------------------------------------------------------------
      3    -151.53879816   -1.64e-03      5.94e-03      2.83e-03 o    1.18e-02      6.27e-03 o  ~
  ---------------------------------------------------------------------------------------------

	Writing optimization data to binary file.
	Structure for next step:
	Cartesian Geometry (in Angstrom)
	    O     1.0081775508  -0.0110005857   0.0481854354
	    O     2.4662089921  -0.1232753131  -0.0019533166
	    H     0.6852683408  -0.7981669661  -0.4253462814
	    H     2.6314141163  -1.0196761351  -0.3444548373
			--------------------------
			 OPTKING Finished Execution 
			--------------------------

    Structure for next step:
    Molecular point group: c1
    Full point group: C1

    Geometry (in Angstrom), charge = 0, multiplicity = 1:

    O            1.008177550830    -0.011000585690     0.048185435355
    O            2.466208992090    -0.123275313122    -0.001953316607
    H            0.685268340812    -0.798166966092    -0.425346281441
    H            2.631414116267    -1.019676135096    -0.344454837307

gradient() will perform analytic gradient computation.

*** tstart() called on loro.prib.upf.edu
*** at Sat Sep 29 16:37:55 2018

   => Loading Basis Set <=

    Name: CC-PVDZ
    Role: ORBITAL
    Keyword: BASIS
    atoms 1-2 entry O          line   198 file /shared/joao/test_parameterize/miniconda3/share/psi4/basis/cc-pvdz.gbs 
    atoms 3-4 entry H          line    22 file /shared/joao/test_parameterize/miniconda3/share/psi4/basis/cc-pvdz.gbs 


         ---------------------------------------------------------
                                   SCF
            by Justin Turney, Rob Parrish, Andy Simmonett
                             and Daniel Smith
                              RKS Reference
                        1 Threads,   5100 MiB Core
         ---------------------------------------------------------

  ==> Geometry <==

    Molecular point group: c1
    Full point group: C1

    Geometry (in Angstrom), charge = 0, multiplicity = 1:

       Center              X                  Y                   Z               Mass       
    ------------   -----------------  -----------------  -----------------  -----------------
         O            1.008177550830    -0.011000585690     0.048185435355    15.994914619560
         O            2.466208992090    -0.123275313122    -0.001953316607    15.994914619560
         H            0.685268340812    -0.798166966092    -0.425346281441     1.007825032070
         H            2.631414116267    -1.019676135096    -0.344454837307     1.007825032070

  Running in c1 symmetry.

  Rotational constants: A =      9.93798  B =      0.13864  C =      0.13678 [cm^-1]
  Rotational constants: A = 297933.11939  B =   4156.47252  C =   4100.43017 [MHz]
  Nuclear repulsion =   36.450925037973114

  Charge       = 0
  Multiplicity = 1
  Electrons    = 18
  Nalpha       = 9
  Nbeta        = 9

  ==> Algorithm <==

  SCF Algorithm Type is DF.
  DIIS enabled.
  MOM disabled.
  Fractional occupation disabled.
  Guess Type is READ.
  Energy threshold   = 1.00e-08
  Density threshold  = 1.00e-08
  Integral threshold = 0.00e+00

  ==> Primary Basis <==

  Basis Set: CC-PVDZ
    Blend: CC-PVDZ
    Number of shells: 18
    Number of basis function: 38
    Number of Cartesian functions: 40
    Spherical Harmonics?: true
    Max angular momentum: 2

  ==> DFT Potential <==

   => Composite Functional: B3LYP-D3ZERO <= 

    B3LYP-d3zero Hyb-GGA Exchange-Correlation Functional

    P. J. Stephens, F. J. Devlin, C. F. Chabalowski, and M. J. Frisch, J. Phys. Chem. 98, 11623 (1994)

    Deriv               =              1
    GGA                 =           TRUE
    Meta                =          FALSE

    Exchange Hybrid     =           TRUE
    MP2 Hybrid          =          FALSE

   => Exchange Functionals <=

    0.0800   Slater exchange
    0.7200         Becke 88

   => Exact (HF) Exchange <=

    0.2000               HF 

   => Correlation Functionals <=

    0.1900   Vosko, Wilk & Nusair (VWN5_RPA)
    0.8100   Lee, Yang & Parr

   => Molecular Quadrature <=

    Radial Scheme       =       TREUTLER
    Pruning Scheme      =           FLAT
    Nuclear Scheme      =       TREUTLER

    BS radius alpha     =              1
    Pruning alpha       =              1
    Radial Points       =             75
    Spherical Points    =            302
    Total Points        =          88298
    Total Blocks        =            722
    Max Points          =            254
    Max Functions       =             38

   => -D3ZERO: Empirical Dispersion <=

    Grimme's -D3 (zero-damping) Dispersion Correction
    Grimme S.; Antony J.; Ehrlich S.; Krieg H. (2010), J. Chem. Phys., 132: 154104

        S6 =   1.000000E+00
        S8 =   1.703000E+00
       SR6 =   1.261000E+00
       SR8 =   1.000000E+00
    ALPHA6 =   1.400000E+01

   => Loading Basis Set <=

    Name: (CC-PVDZ AUX)
    Role: JKFIT
    Keyword: DF_BASIS_SCF
    atoms 1-2 entry O          line   221 file /shared/joao/test_parameterize/miniconda3/share/psi4/basis/cc-pvdz-jkfit.gbs 
    atoms 3-4 entry H          line    51 file /shared/joao/test_parameterize/miniconda3/share/psi4/basis/cc-pvdz-jkfit.gbs 

  Reading orbitals from file 180, no projection.

  ==> Pre-Iterations <==

   -------------------------------------------------------
    Irrep   Nso     Nmo     Nalpha   Nbeta   Ndocc  Nsocc
   -------------------------------------------------------
     A         38      38       0       0       0       0
   -------------------------------------------------------
    Total      38      38       9       9       9       0
   -------------------------------------------------------

  ==> Integral Setup <==

  DFHelper Memory: AOs need 0.003 [GiB]; user supplied 3.486 [GiB]. Using in-core AOs.

  ==> MemDFJK: Density-Fitted J/K Matrices <==

    J tasked:                   Yes
    K tasked:                   Yes
    wK tasked:                   No
    OpenMP threads:               1
    Memory (MB):               3570
    Algorithm:                 Core
    Schwarz Cutoff:           1E-12
    Mask sparsity (%):       0.0000
    Fitting Condition:        1E-12

   => Auxiliary Basis Set <=

  Basis Set: (CC-PVDZ AUX)
    Blend: CC-PVDZ-JKFIT
    Number of shells: 66
    Number of basis function: 186
    Number of Cartesian functions: 212
    Spherical Harmonics?: true
    Max angular momentum: 3

  Minimum eigenvalue in the overlap matrix is 2.4973945538E-02.
  Using Symmetric Orthogonalization.

  SCF Guess: Orbitals guess was supplied from a previous computation.

  ==> Iterations <==

                           Total Energy        Delta E     RMS |[F,P]|

   @DF-RKS iter   0:  -151.54148038142540   -1.51541e+02   3.22517e-04 
   @DF-RKS iter   1:  -151.53885889710517    2.62148e-03   1.05418e-04 
   @DF-RKS iter   2:  -151.53886260112739   -3.70402e-06   5.39022e-05 DIIS
   @DF-RKS iter   3:  -151.53886398861667   -1.38749e-06   1.05530e-05 DIIS
   @DF-RKS iter   4:  -151.53886404792081   -5.93041e-08   9.78975e-07 DIIS
   @DF-RKS iter   5:  -151.53886404860026   -6.79449e-10   1.36335e-07 DIIS
   @DF-RKS iter   6:  -151.53886404860188   -1.62004e-12   1.40665e-07 DIIS
   @DF-RKS iter   7:  -151.53886404861183   -9.94760e-12   3.17548e-08 DIIS
   @DF-RKS iter   8:  -151.53886404861231   -4.83169e-13   9.79967e-10 DIIS

  ==> Post-Iterations <==

    Orbital Energies [Eh]
    ---------------------

    Doubly Occupied:                                                      

       1A    -19.190205     2A    -19.190177     3A     -1.106512  
       4A     -0.894768     5A     -0.562961     6A     -0.417862  
       7A     -0.394567     8A     -0.371734     9A     -0.247271  

    Virtual:                                                              

      10A      0.008931    11A      0.020704    12A      0.128921  
      13A      0.551711    14A      0.576951    15A      0.857779  
      16A      0.869998    17A      0.943178    18A      0.944887  
      19A      0.980094    20A      1.071189    21A      1.248052  
      22A      1.255099    23A      1.342116    24A      1.509310  
      25A      1.534911    26A      1.819188    27A      2.026188  
      28A      2.099823    29A      2.315519    30A      2.372291  
      31A      2.634744    32A      2.852378    33A      2.934081  
      34A      2.969378    35A      3.182659    36A      3.532533  
      37A      3.538801    38A      3.788613  

    Final Occupation by Irrep:
              A 
    DOCC [     9 ]

  Energy converged.

  @DF-RKS Final Energy:  -151.53886404861231

   => Energetics <=

    Nuclear Repulsion Energy =             36.4509250379731142
    One-Electron Energy =                -280.8470570776743216
    Two-Electron Energy =                 107.3135787849241183
    DFT Exchange-Correlation Energy =     -14.4560075638352288
    Empirical Dispersion Energy =          -0.0003032300000000
    VV10 Nonlocal Energy =                  0.0000000000000000
    Total Energy =                       -151.5388640486123109



Properties will be evaluated at   0.000000,   0.000000,   0.000000 [a0]

Properties computed using the SCF density matrix

  Nuclear Dipole Moment: [e a0]
     X:    58.7927      Y:    -5.4652      Z:    -0.7558

  Electronic Dipole Moment: [e a0]
     X:   -58.8970      Y:     4.3522      Z:     0.2163

  Dipole Moment: [e a0]
     X:    -0.1043      Y:    -1.1130      Z:    -0.5395     Total:     1.2412

  Dipole Moment: [D]
     X:    -0.2650      Y:    -2.8288      Z:    -1.3712     Total:     3.1548


*** tstop() called on loro.prib.upf.edu at Sat Sep 29 16:37:58 2018
Module time:
	user time   =       2.33 seconds =       0.04 minutes
	system time =       0.05 seconds =       0.00 minutes
	total time  =          3 seconds =       0.05 minutes
Total time:
	user time   =      12.09 seconds =       0.20 minutes
	system time =       0.32 seconds =       0.01 minutes
	total time  =         17 seconds =       0.28 minutes

*** tstart() called on loro.prib.upf.edu
*** at Sat Sep 29 16:37:58 2018


         ------------------------------------------------------------
                                   SCF GRAD                          
                          Rob Parrish, Justin Turney,                
                       Andy Simmonett, and Alex Sokolov              
         ------------------------------------------------------------

  ==> Geometry <==

    Molecular point group: c1
    Full point group: C1

    Geometry (in Angstrom), charge = 0, multiplicity = 1:

       Center              X                  Y                   Z               Mass       
    ------------   -----------------  -----------------  -----------------  -----------------
         O            1.008177550830    -0.011000585690     0.048185435355    15.994914619560
         O            2.466208992090    -0.123275313122    -0.001953316607    15.994914619560
         H            0.685268340812    -0.798166966092    -0.425346281441     1.007825032070
         H            2.631414116267    -1.019676135096    -0.344454837307     1.007825032070

  Nuclear repulsion =   36.450925037973114

  ==> Basis Set <==

  Basis Set: CC-PVDZ
    Blend: CC-PVDZ
    Number of shells: 18
    Number of basis function: 38
    Number of Cartesian functions: 40
    Spherical Harmonics?: true
    Max angular momentum: 2

  ==> DFJKGrad: Density-Fitted SCF Gradients <==

    Gradient:                    1
    J tasked:                  Yes
    K tasked:                  Yes
    wK tasked:                  No
    OpenMP threads:              1
    Integrals threads:           1
    Memory (MB):              3570
    Schwarz Cutoff:          0E+00
    Fitting Condition:       1E-12

   => Auxiliary Basis Set <=

  Basis Set: (CC-PVDZ AUX)
    Blend: CC-PVDZ-JKFIT
    Number of shells: 66
    Number of basis function: 186
    Number of Cartesian functions: 212
    Spherical Harmonics?: true
    Max angular momentum: 3

  ==> DFT Potential <==

   => Composite Functional: B3LYP-D3ZERO <= 

    B3LYP-d3zero Hyb-GGA Exchange-Correlation Functional

    P. J. Stephens, F. J. Devlin, C. F. Chabalowski, and M. J. Frisch, J. Phys. Chem. 98, 11623 (1994)

    Deriv               =              1
    GGA                 =           TRUE
    Meta                =          FALSE

    Exchange Hybrid     =           TRUE
    MP2 Hybrid          =          FALSE

   => Exchange Functionals <=

    0.0800   Slater exchange
    0.7200         Becke 88

   => Exact (HF) Exchange <=

    0.2000               HF 

   => Correlation Functionals <=

    0.1900   Vosko, Wilk & Nusair (VWN5_RPA)
    0.8100   Lee, Yang & Parr

   => Molecular Quadrature <=

    Radial Scheme       =       TREUTLER
    Pruning Scheme      =           FLAT
    Nuclear Scheme      =       TREUTLER

    BS radius alpha     =              1
    Pruning alpha       =              1
    Radial Points       =             75
    Spherical Points    =            302
    Total Points        =          88298
    Total Blocks        =            722
    Max Points          =            254
    Max Functions       =             38


  -Total Gradient:
     Atom            X                  Y                   Z
    ------   -----------------  -----------------  -----------------
       1       -0.001563565732     0.001305599682    -0.002128802959
       2        0.001582743754    -0.001100409094     0.002228216594
       3       -0.000207738312    -0.000895800244     0.001616586497
       4        0.000187905695     0.000683621501    -0.001719387313


*** tstop() called on loro.prib.upf.edu at Sat Sep 29 16:37:59 2018
Module time:
	user time   =       0.60 seconds =       0.01 minutes
	system time =       0.02 seconds =       0.00 minutes
	total time  =          1 seconds =       0.02 minutes
Total time:
	user time   =      12.69 seconds =       0.21 minutes
	system time =       0.34 seconds =       0.01 minutes
	total time  =         18 seconds =       0.30 minutes

			-----------------------------------------
			 OPTKING 2.0: for geometry optimizations 
			  - R.A. King,  Bethel University        
			-----------------------------------------
	At level 1: Red. Int., RFO, no backsteps, dynamic trust

	Previous internal coordinate definitions found.
	---Fragment 1 Geometry and Gradient---
	 O           1.9051794644       -0.0207880943        0.0910572764
	 O           4.6604595815       -0.2329565807       -0.0036912334
	 H           1.2949694917       -1.5083169742       -0.8037879836
	 H           4.9726520220       -1.9269086396       -0.6509253077
	            -0.0015635657        0.0013055997       -0.0021288030
	             0.0015827438       -0.0011004091        0.0022282166
	            -0.0002077383       -0.0008958002        0.0016165865
	             0.0001879057        0.0006836215       -0.0017193873

	---Fragment 1 Intrafragment Coordinates---
	 - Coordinate -           - BOHR/RAD -       - ANG/DEG -
	 R(1,2)           =         2.765061	       1.463207
	 R(1,3)           =         1.840067	       0.973721
	 R(2,4)           =         1.840068	       0.973722
	 B(1,2,4)         =         1.825290	     104.581402
	 B(2,1,3)         =         1.825290	     104.581434
	*D(3,1,2,4)       =        -0.174533	      -9.999987

	Current energy   :      -151.5388640486

	Energy change for the previous step:
		Projected    :        -0.0000570046
		Actual       :        -0.0000658842
	Energy ratio indicates good step: Trust radius increased to 1.000e+00.


	Performing BFGS update.
	Previous computed or guess Hessian on step 1.
	Steps to be used in Hessian update: 3 2
	Taking RFO optimization step.
	Going to follow RFO solution 1.
	Using RFO vector 1.
	Norm of target step-size    0.00563
	Projected energy change by RFO approximation:        -0.0000077514

	Back-transformation to cartesian coordinates...
	Successfully converged to displaced geometry.

	Back-transformation to cartesian coordinates to adjust frozen coordinates...
	Successfully converged to displaced geometry.

	--- Internal Coordinate Step in ANG or DEG, aJ/ANG or AJ/DEG ---
	 ---------------------------------------------------------------------------
	   Coordinate                Previous        Force       Change         New 
	   ----------                --------       ------       ------       ------
	    1 R(1,2)          =      1.463207    -0.014654    -0.002890     1.460318
	    2 R(1,3)          =      0.973721    -0.000043    -0.000085     0.973637
	    3 R(2,4)          =      0.973722    -0.000046    -0.000085     0.973637
	    4 B(1,2,4)        =    104.581402    -0.000028    -0.055515   104.525888
	    5 B(2,1,3)        =    104.581434    -0.000028    -0.055558   104.525876
	    6 *D(3,1,2,4)     =     -9.999987     0.000000    -0.000000    -9.999987
	 ---------------------------------------------------------------------------
	Successfully symmetrized geometry.

  ==> Convergence Check <==

  Measures of convergence in internal coordinates in au.
  Criteria marked as inactive (o), active & met (*), and active & unmet ( ).
  ---------------------------------------------------------------------------------------------
   Step     Total Energy     Delta E     MAX Force     RMS Force      MAX Disp      RMS Disp   
  ---------------------------------------------------------------------------------------------
    Convergence Criteria    1.00e-06 *    3.00e-04 *             o    1.20e-03 *             o
  ---------------------------------------------------------------------------------------------
      4    -151.53886405   -6.59e-05      1.78e-03      7.56e-04 o    5.46e-03      2.30e-03 o  ~
  ---------------------------------------------------------------------------------------------

	Writing optimization data to binary file.
	Structure for next step:
	Cartesian Geometry (in Angstrom)
	    O     1.0096233117  -0.0110865106   0.0482614319
	    O     2.4647759510  -0.1230506580  -0.0019620852
	    H     0.6876213361  -0.7984714511  -0.4253506079
	    H     2.6290484012  -1.0195103803  -0.3445177389
			--------------------------
			 OPTKING Finished Execution 
			--------------------------

    Structure for next step:
    Molecular point group: c1
    Full point group: C1

    Geometry (in Angstrom), charge = 0, multiplicity = 1:

    O            1.009623311732    -0.011086510605     0.048261431949
    O            2.464775950988    -0.123050657986    -0.001962085218
    H            0.687621336101    -0.798471451090    -0.425350607864
    H            2.629048401180    -1.019510380318    -0.344517738868

gradient() will perform analytic gradient computation.

*** tstart() called on loro.prib.upf.edu
*** at Sat Sep 29 16:37:59 2018

   => Loading Basis Set <=

    Name: CC-PVDZ
    Role: ORBITAL
    Keyword: BASIS
    atoms 1-2 entry O          line   198 file /shared/joao/test_parameterize/miniconda3/share/psi4/basis/cc-pvdz.gbs 
    atoms 3-4 entry H          line    22 file /shared/joao/test_parameterize/miniconda3/share/psi4/basis/cc-pvdz.gbs 


         ---------------------------------------------------------
                                   SCF
            by Justin Turney, Rob Parrish, Andy Simmonett
                             and Daniel Smith
                              RKS Reference
                        1 Threads,   5100 MiB Core
         ---------------------------------------------------------

  ==> Geometry <==

    Molecular point group: c1
    Full point group: C1

    Geometry (in Angstrom), charge = 0, multiplicity = 1:

       Center              X                  Y                   Z               Mass       
    ------------   -----------------  -----------------  -----------------  -----------------
         O            1.009623311732    -0.011086510605     0.048261431949    15.994914619560
         O            2.464775950988    -0.123050657986    -0.001962085218    15.994914619560
         H            0.687621336101    -0.798471451090    -0.425350607864     1.007825032070
         H            2.629048401180    -1.019510380318    -0.344517738868     1.007825032070

  Running in c1 symmetry.

  Rotational constants: A =      9.93443  B =      0.13873  C =      0.13686 [cm^-1]
  Rotational constants: A = 297826.65844  B =   4159.09745  C =   4102.96849 [MHz]
  Nuclear repulsion =   36.505425279453227

  Charge       = 0
  Multiplicity = 1
  Electrons    = 18
  Nalpha       = 9
  Nbeta        = 9

  ==> Algorithm <==

  SCF Algorithm Type is DF.
  DIIS enabled.
  MOM disabled.
  Fractional occupation disabled.
  Guess Type is READ.
  Energy threshold   = 1.00e-08
  Density threshold  = 1.00e-08
  Integral threshold = 0.00e+00

  ==> Primary Basis <==

  Basis Set: CC-PVDZ
    Blend: CC-PVDZ
    Number of shells: 18
    Number of basis function: 38
    Number of Cartesian functions: 40
    Spherical Harmonics?: true
    Max angular momentum: 2

  ==> DFT Potential <==

   => Composite Functional: B3LYP-D3ZERO <= 

    B3LYP-d3zero Hyb-GGA Exchange-Correlation Functional

    P. J. Stephens, F. J. Devlin, C. F. Chabalowski, and M. J. Frisch, J. Phys. Chem. 98, 11623 (1994)

    Deriv               =              1
    GGA                 =           TRUE
    Meta                =          FALSE

    Exchange Hybrid     =           TRUE
    MP2 Hybrid          =          FALSE

   => Exchange Functionals <=

    0.0800   Slater exchange
    0.7200         Becke 88

   => Exact (HF) Exchange <=

    0.2000               HF 

   => Correlation Functionals <=

    0.1900   Vosko, Wilk & Nusair (VWN5_RPA)
    0.8100   Lee, Yang & Parr

   => Molecular Quadrature <=

    Radial Scheme       =       TREUTLER
    Pruning Scheme      =           FLAT
    Nuclear Scheme      =       TREUTLER

    BS radius alpha     =              1
    Pruning alpha       =              1
    Radial Points       =             75
    Spherical Points    =            302
    Total Points        =          88298
    Total Blocks        =            720
    Max Points          =            256
    Max Functions       =             38

   => -D3ZERO: Empirical Dispersion <=

    Grimme's -D3 (zero-damping) Dispersion Correction
    Grimme S.; Antony J.; Ehrlich S.; Krieg H. (2010), J. Chem. Phys., 132: 154104

        S6 =   1.000000E+00
        S8 =   1.703000E+00
       SR6 =   1.261000E+00
       SR8 =   1.000000E+00
    ALPHA6 =   1.400000E+01

   => Loading Basis Set <=

    Name: (CC-PVDZ AUX)
    Role: JKFIT
    Keyword: DF_BASIS_SCF
    atoms 1-2 entry O          line   221 file /shared/joao/test_parameterize/miniconda3/share/psi4/basis/cc-pvdz-jkfit.gbs 
    atoms 3-4 entry H          line    51 file /shared/joao/test_parameterize/miniconda3/share/psi4/basis/cc-pvdz-jkfit.gbs 

  Reading orbitals from file 180, no projection.

  ==> Pre-Iterations <==

   -------------------------------------------------------
    Irrep   Nso     Nmo     Nalpha   Nbeta   Ndocc  Nsocc
   -------------------------------------------------------
     A         38      38       0       0       0       0
   -------------------------------------------------------
    Total      38      38       9       9       9       0
   -------------------------------------------------------

  ==> Integral Setup <==

  DFHelper Memory: AOs need 0.003 [GiB]; user supplied 3.486 [GiB]. Using in-core AOs.

  ==> MemDFJK: Density-Fitted J/K Matrices <==

    J tasked:                   Yes
    K tasked:                   Yes
    wK tasked:                   No
    OpenMP threads:               1
    Memory (MB):               3570
    Algorithm:                 Core
    Schwarz Cutoff:           1E-12
    Mask sparsity (%):       0.0000
    Fitting Condition:        1E-12

   => Auxiliary Basis Set <=

  Basis Set: (CC-PVDZ AUX)
    Blend: CC-PVDZ-JKFIT
    Number of shells: 66
    Number of basis function: 186
    Number of Cartesian functions: 212
    Spherical Harmonics?: true
    Max angular momentum: 3

  Minimum eigenvalue in the overlap matrix is 2.4826906968E-02.
  Using Symmetric Orthogonalization.

  SCF Guess: Orbitals guess was supplied from a previous computation.

  ==> Iterations <==

                           Total Energy        Delta E     RMS |[F,P]|

   @DF-RKS iter   0:  -151.54024340038600   -1.51540e+02   1.46173e-04 
   @DF-RKS iter   1:  -151.53886849275480    1.37491e-03   4.13632e-05 
   @DF-RKS iter   2:  -151.53886906669038   -5.73936e-07   2.11959e-05 DIIS
   @DF-RKS iter   3:  -151.53886927857181   -2.11881e-07   3.85764e-06 DIIS
   @DF-RKS iter   4:  -151.53886928650857   -7.93676e-09   2.95963e-07 DIIS
   @DF-RKS iter   5:  -151.53886928657010   -6.15330e-11   4.75546e-08 DIIS
   @DF-RKS iter   6:  -151.53886928657155   -1.44951e-12   1.30226e-08 DIIS
   @DF-RKS iter   7:  -151.53886928657150    5.68434e-14   1.34137e-08 DIIS
   @DF-RKS iter   8:  -151.53886928657181   -3.12639e-13   5.24795e-10 DIIS

  ==> Post-Iterations <==

    Orbital Energies [Eh]
    ---------------------

    Doubly Occupied:                                                      

       1A    -19.190018     2A    -19.189989     3A     -1.107734  
       4A     -0.894230     5A     -0.563636     6A     -0.418288  
       7A     -0.394910     8A     -0.371565     9A     -0.246819  

    Virtual:                                                              

      10A      0.010535    11A      0.020527    12A      0.129569  
      13A      0.551776    14A      0.577066    15A      0.858195  
      16A      0.870207    17A      0.942596    18A      0.943919  
      19A      0.980108    20A      1.071309    21A      1.246596  
      22A      1.254854    23A      1.342179    24A      1.511675  
      25A      1.535439    26A      1.819603    27A      2.026342  
      28A      2.100424    29A      2.313255    30A      2.374272  
      31A      2.632932    32A      2.851744    33A      2.935013  
      34A      2.972697    35A      3.185879    36A      3.533485  
      37A      3.538096    38A      3.791814  

    Final Occupation by Irrep:
              A 
    DOCC [     9 ]

  Energy converged.

  @DF-RKS Final Energy:  -151.53886928657181

   => Energetics <=

    Nuclear Repulsion Energy =             36.5054252794532275
    One-Electron Energy =                -280.9530428757037726
    Two-Electron Energy =                 107.3662230333863903
    DFT Exchange-Correlation Energy =     -14.4571756437076591
    Empirical Dispersion Energy =          -0.0002990800000000
    VV10 Nonlocal Energy =                  0.0000000000000000
    Total Energy =                       -151.5388692865718099



Properties will be evaluated at   0.000000,   0.000000,   0.000000 [a0]

Properties computed using the SCF density matrix

  Nuclear Dipole Moment: [e a0]
     X:    58.7929      Y:    -5.4633      Z:    -0.7549

  Electronic Dipole Moment: [e a0]
     X:   -58.8972      Y:     4.3504      Z:     0.2155

  Dipole Moment: [e a0]
     X:    -0.1043      Y:    -1.1129      Z:    -0.5394     Total:     1.2412

  Dipole Moment: [D]
     X:    -0.2650      Y:    -2.8288      Z:    -1.3711     Total:     3.1547


*** tstop() called on loro.prib.upf.edu at Sat Sep 29 16:38:02 2018
Module time:
	user time   =       2.45 seconds =       0.04 minutes
	system time =       0.07 seconds =       0.00 minutes
	total time  =          3 seconds =       0.05 minutes
Total time:
	user time   =      15.15 seconds =       0.25 minutes
	system time =       0.41 seconds =       0.01 minutes
	total time  =         21 seconds =       0.35 minutes

*** tstart() called on loro.prib.upf.edu
*** at Sat Sep 29 16:38:02 2018


         ------------------------------------------------------------
                                   SCF GRAD                          
                          Rob Parrish, Justin Turney,                
                       Andy Simmonett, and Alex Sokolov              
         ------------------------------------------------------------

  ==> Geometry <==

    Molecular point group: c1
    Full point group: C1

    Geometry (in Angstrom), charge = 0, multiplicity = 1:

       Center              X                  Y                   Z               Mass       
    ------------   -----------------  -----------------  -----------------  -----------------
         O            1.009623311732    -0.011086510605     0.048261431949    15.994914619560
         O            2.464775950988    -0.123050657986    -0.001962085218    15.994914619560
         H            0.687621336101    -0.798471451090    -0.425350607864     1.007825032070
         H            2.629048401180    -1.019510380318    -0.344517738868     1.007825032070

  Nuclear repulsion =   36.505425279453227

  ==> Basis Set <==

  Basis Set: CC-PVDZ
    Blend: CC-PVDZ
    Number of shells: 18
    Number of basis function: 38
    Number of Cartesian functions: 40
    Spherical Harmonics?: true
    Max angular momentum: 2

  ==> DFJKGrad: Density-Fitted SCF Gradients <==

    Gradient:                    1
    J tasked:                  Yes
    K tasked:                  Yes
    wK tasked:                  No
    OpenMP threads:              1
    Integrals threads:           1
    Memory (MB):              3570
    Schwarz Cutoff:          0E+00
    Fitting Condition:       1E-12

   => Auxiliary Basis Set <=

  Basis Set: (CC-PVDZ AUX)
    Blend: CC-PVDZ-JKFIT
    Number of shells: 66
    Number of basis function: 186
    Number of Cartesian functions: 212
    Spherical Harmonics?: true
    Max angular momentum: 3

  ==> DFT Potential <==

   => Composite Functional: B3LYP-D3ZERO <= 

    B3LYP-d3zero Hyb-GGA Exchange-Correlation Functional

    P. J. Stephens, F. J. Devlin, C. F. Chabalowski, and M. J. Frisch, J. Phys. Chem. 98, 11623 (1994)

    Deriv               =              1
    GGA                 =           TRUE
    Meta                =          FALSE

    Exchange Hybrid     =           TRUE
    MP2 Hybrid          =          FALSE

   => Exchange Functionals <=

    0.0800   Slater exchange
    0.7200         Becke 88

   => Exact (HF) Exchange <=

    0.2000               HF 

   => Correlation Functionals <=

    0.1900   Vosko, Wilk & Nusair (VWN5_RPA)
    0.8100   Lee, Yang & Parr

   => Molecular Quadrature <=

    Radial Scheme       =       TREUTLER
    Pruning Scheme      =           FLAT
    Nuclear Scheme      =       TREUTLER

    BS radius alpha     =              1
    Pruning alpha       =              1
    Radial Points       =             75
    Spherical Points    =            302
    Total Points        =          88298
    Total Blocks        =            720
    Max Points          =            256
    Max Functions       =             38


  -Total Gradient:
     Atom            X                  Y                   Z
    ------   -----------------  -----------------  -----------------
       1       -0.000114708100     0.001265873212    -0.002126195851
       2        0.000148416583    -0.000904300392     0.002301399495
       3        0.000056897650    -0.001000048041     0.001580061031
       4       -0.000091256936     0.000631527721    -0.001758632180


*** tstop() called on loro.prib.upf.edu at Sat Sep 29 16:38:03 2018
Module time:
	user time   =       0.61 seconds =       0.01 minutes
	system time =       0.01 seconds =       0.00 minutes
	total time  =          1 seconds =       0.02 minutes
Total time:
	user time   =      15.76 seconds =       0.26 minutes
	system time =       0.43 seconds =       0.01 minutes
	total time  =         22 seconds =       0.37 minutes

			-----------------------------------------
			 OPTKING 2.0: for geometry optimizations 
			  - R.A. King,  Bethel University        
			-----------------------------------------
	At level 1: Red. Int., RFO, no backsteps, dynamic trust

	Previous internal coordinate definitions found.
	---Fragment 1 Geometry and Gradient---
	 O           1.9079115566       -0.0209504688        0.0912008892
	 O           4.6577515263       -0.2325320441       -0.0037078037
	 H           1.2994160084       -1.5088923675       -0.8037961593
	 H           4.9681814683       -1.9265954084       -0.6510441744
	            -0.0001147081        0.0012658732       -0.0021261959
	             0.0001484166       -0.0009043004        0.0023013995
	             0.0000568977       -0.0010000480        0.0015800610
	            -0.0000912569        0.0006315277       -0.0017586322

	---Fragment 1 Intrafragment Coordinates---
	 - Coordinate -           - BOHR/RAD -       - ANG/DEG -
	 R(1,2)           =         2.759600	       1.460318
	 R(1,3)           =         1.839907	       0.973637
	 R(2,4)           =         1.839908	       0.973637
	 B(1,2,4)         =         1.824321	     104.525888
	 B(2,1,3)         =         1.824321	     104.525876
	*D(3,1,2,4)       =        -0.174533	      -9.999987

	Current energy   :      -151.5388692866

	Energy change for the previous step:
		Projected    :        -0.0000077514
		Actual       :        -0.0000052380

	Performing BFGS update.
	Previous computed or guess Hessian on step 1.
	Steps to be used in Hessian update: 4 3
	Taking RFO optimization step.
	Going to follow RFO solution 1.
	Using RFO vector 1.
	Norm of target step-size    0.00120
	Projected energy change by RFO approximation:        -0.0000003411

	Back-transformation to cartesian coordinates...
	Successfully converged to displaced geometry.

	Back-transformation to cartesian coordinates to adjust frozen coordinates...
	Successfully converged to displaced geometry.

	--- Internal Coordinate Step in ANG or DEG, aJ/ANG or AJ/DEG ---
	 ---------------------------------------------------------------------------
	   Coordinate                Previous        Force       Change         New 
	   ----------                --------       ------       ------       ------
	    1 R(1,2)          =      1.460318    -0.000486    -0.000242     1.460076
	    2 R(1,3)          =      0.973637    -0.000162    -0.000012     0.973625
	    3 R(2,4)          =      0.973637    -0.000166    -0.000012     0.973625
	    4 B(1,2,4)        =    104.525888     0.000012     0.044803   104.570691
	    5 B(2,1,3)        =    104.525876     0.000012     0.044813   104.570689
	    6 *D(3,1,2,4)     =     -9.999987     0.000000     0.000000    -9.999987
	 ---------------------------------------------------------------------------
	Successfully symmetrized geometry.

  ==> Convergence Check <==

  Measures of convergence in internal coordinates in au.
  Criteria marked as inactive (o), active & met (*), and active & unmet ( ).
  ---------------------------------------------------------------------------------------------
   Step     Total Energy     Delta E     MAX Force     RMS Force      MAX Disp      RMS Disp   
  ---------------------------------------------------------------------------------------------
    Convergence Criteria    1.00e-06 *    3.00e-04 *             o    1.20e-03 *             o
  ---------------------------------------------------------------------------------------------
      5    -151.53886929   -5.24e-06      1.60e-04 *    9.61e-05 o    7.82e-04 *    4.89e-04 o  ~
  ---------------------------------------------------------------------------------------------


  **** Optimization is complete! (in 5 steps) ****

  ==> Optimization Summary <==

  Measures of convergence in internal coordinates in au.
  --------------------------------------------------------------------------------------------------------------- ~
   Step         Total Energy             Delta E       MAX Force       RMS Force        MAX Disp        RMS Disp  ~
  --------------------------------------------------------------------------------------------------------------- ~
      1    -151.533871374946   -151.533871374946      0.03643051      0.02384304      0.20589459      0.12208223  ~
      2    -151.537157514338     -0.003286139392      0.02087548      0.01290739      0.05912666      0.03732348  ~
      3    -151.538798164409     -0.001640650072      0.00593907      0.00282814      0.01181447      0.00627407  ~
      4    -151.538864048612     -0.000065884203      0.00177872      0.00075617      0.00546042      0.00230023  ~
      5    -151.538869286572     -0.000005237959      0.00015996      0.00009612      0.00078214      0.00048867  ~
  --------------------------------------------------------------------------------------------------------------- ~

	Writing optimization data to binary file.
	Final energy is   -151.5388692865718
	Final (previous) structure:
	Cartesian Geometry (in Angstrom)
	    O     1.0096233117  -0.0110865106   0.0482614319
	    O     2.4647759510  -0.1230506580  -0.0019620852
	    H     0.6876213361  -0.7984714511  -0.4253506079
	    H     2.6290484012  -1.0195103803  -0.3445177389
	Saving final (previous) structure.
	Removing binary optimization data file.
			--------------------------
			 OPTKING Finished Execution 
			--------------------------

    Final optimized geometry and variables:
    Molecular point group: c1
    Full point group: C1

    Geometry (in Angstrom), charge = 0, multiplicity = 1:

    O            1.009623311732    -0.011086510605     0.048261431949
    O            2.464775950988    -0.123050657986    -0.001962085218
    H            0.687621336101    -0.798471451090    -0.425350607864
    H            2.629048401180    -1.019510380318    -0.344517738868

	Removing binary optimization data file.
	Cleaning optimization helper files.


Properties will be evaluated at   0.000000,   0.000000,   0.000000 [a0]
OEProp: No title given, name of density matrix used for the following properties is 'SCF density'
  Nuclear Dipole Moment: [e a0]
     X:    58.7929      Y:    -5.4633      Z:    -0.7549

  Electronic Dipole Moment: [e a0]
     X:   -58.8972      Y:     4.3504      Z:     0.2155

  Dipole Moment: [e a0]
     X:    -0.1043      Y:    -1.1129      Z:    -0.5394     Total:     1.2412

  Dipole Moment: [D]
     X:    -0.2650      Y:    -2.8288      Z:    -1.3711     Total:     3.1547

  Quadrupole Moment: [D A]
    XX:   -11.3768     YY:    -8.6726     ZZ:   -11.6203
    XY:    -4.8690     XZ:    -2.0281     YZ:     1.5709

  Traceless Quadrupole Moment: [D A]
    XX:    -0.8202     YY:     1.8840     ZZ:    -1.0637
    XY:    -4.8690     XZ:    -2.0281     YZ:     1.5709

  Mulliken Charges: (a.u.)
   Center  Symbol    Alpha    Beta     Spin     Total
       1     O     4.08069  4.08069  0.00000 -0.16137
       2     O     4.08069  4.08069  0.00000 -0.16137
       3     H     0.41931  0.41931  0.00000  0.16137
       4     H     0.41931  0.41931  0.00000  0.16137

   Total alpha =  9.00000, Total beta =  9.00000, Total charge =  0.00000


    Psi4 stopped on: Saturday, 29 September 2018 04:38PM
    Psi4 wall time for execution: 0:00:22.14

*** Psi4 exiting successfully. Buy a developer a beer!
