
    -----------------------------------------------------------------------
          Psi4: An Open-Source Ab Initio Electronic Structure Package
                               Psi4 1.2.1 release

                         Git: Rev {HEAD} 406f4de 


    R. M. Parrish, L. A. Burns, D. G. A. Smith, A. C. Simmonett,
    A. E. DePrince III, E. G. Hohenstein, U. Bozkaya, A. Yu. Sokolov,
    R. Di Remigio, R. M. Richard, J. F. Gonthier, A. M. James,
    H. R. McAlexander, A. Kumar, M. Saitow, X. Wang, B. P. Pritchard,
    P. Verma, H. F. Schaefer III, K. Patkowski, R. A. King, E. F. Valeev,
    F. A. Evangelista, J. M. Turney, T. D. Crawford, and C. D. Sherrill,
    J. Chem. Theory Comput. 13(7) pp 3185--3197 (2017).
    (doi: 10.1021/acs.jctc.7b00174)


                         Additional Contributions by
    P. Kraus, H. Kruse, M. H. Lechner, M. C. Schieber, and R. A. Shaw

    -----------------------------------------------------------------------


    Psi4 started on: Saturday, 29 September 2018 04:46PM

    Process ID: 2879
    Host:       loro.prib.upf.edu
    PSIDATADIR: /shared/joao/test_parameterize/miniconda3/share/psi4
    Memory:     500.0 MiB
    Threads:    1
    
  ==> Input File <==

--------------------------------------------------------------------------
set_num_threads(1)
set_memory('5348 MB')

set { scf_mem_safety_factor 0.7 }

set { reference rks }
set { basis cc-pVDZ }

molecule MOL {
    0 1
    noreorient
    nocom
    symmetry c1
    C    0.940800  -0.041500  -0.056200
    C    2.276600  -0.041500  -0.056200
    H    0.380900   0.578300  -0.749400
    H    0.380900  -0.661400   0.637000
    H    2.836500   0.397911   0.763310
    H    2.836500  -0.480877  -0.875804
}

set optking { frozen_dihedral = (" 3 1 2 5 ") }

energy, wfn = energy('B3LYP-D3', return_wfn=True)

import os
os.chdir(os.environ['HTMD_PSI4_WORKDIR'])

oeprop(wfn, 'DIPOLE', 'QUADRUPOLE', 'MULLIKEN_CHARGES')

with open('psi4out.xyz', 'w') as f:
    f.write('6 ' )
    f.write('%.12f\n' % energy)
    f.write(MOL.save_string_xyz())
--------------------------------------------------------------------------
  Threads set to 1 by Python driver.

  Memory set to   4.981 GiB by Python driver.

*** tstart() called on loro.prib.upf.edu
*** at Sat Sep 29 16:46:58 2018

   => Loading Basis Set <=

    Name: CC-PVDZ
    Role: ORBITAL
    Keyword: BASIS
    atoms 1-2 entry C          line   138 file /shared/joao/test_parameterize/miniconda3/share/psi4/basis/cc-pvdz.gbs 
    atoms 3-6 entry H          line    22 file /shared/joao/test_parameterize/miniconda3/share/psi4/basis/cc-pvdz.gbs 


         ---------------------------------------------------------
                                   SCF
            by Justin Turney, Rob Parrish, Andy Simmonett
                             and Daniel Smith
                              RKS Reference
                        1 Threads,   5100 MiB Core
         ---------------------------------------------------------

  ==> Geometry <==

    Molecular point group: c1
    Full point group: C1

    Geometry (in Angstrom), charge = 0, multiplicity = 1:

       Center              X                  Y                   Z               Mass       
    ------------   -----------------  -----------------  -----------------  -----------------
         C            0.940800000000    -0.041500000000    -0.056200000000    12.000000000000
         C            2.276600000000    -0.041500000000    -0.056200000000    12.000000000000
         H            0.380900000000     0.578300000000    -0.749400000000     1.007825032070
         H            0.380900000000    -0.661400000000     0.637000000000     1.007825032070
         H            2.836500000000     0.397911000000     0.763310000000     1.007825032070
         H            2.836500000000    -0.480877000000    -0.875804000000     1.007825032070

  Running in c1 symmetry.

  Rotational constants: A =      4.80351  B =      0.18607  C =      0.18365 [cm^-1]
  Rotational constants: A = 144005.47229  B =   5578.28760  C =   5505.77639 [MHz]
  Nuclear repulsion =   33.307131950343553

  Charge       = 0
  Multiplicity = 1
  Electrons    = 16
  Nalpha       = 8
  Nbeta        = 8

  ==> Algorithm <==

  SCF Algorithm Type is DF.
  DIIS enabled.
  MOM disabled.
  Fractional occupation disabled.
  Guess Type is SAD.
  Energy threshold   = 1.00e-06
  Density threshold  = 1.00e-06
  Integral threshold = 0.00e+00

  ==> Primary Basis <==

  Basis Set: CC-PVDZ
    Blend: CC-PVDZ
    Number of shells: 24
    Number of basis function: 48
    Number of Cartesian functions: 50
    Spherical Harmonics?: true
    Max angular momentum: 2

  ==> DFT Potential <==

   => Composite Functional: B3LYP-D3ZERO <= 

    B3LYP-d3zero Hyb-GGA Exchange-Correlation Functional

    P. J. Stephens, F. J. Devlin, C. F. Chabalowski, and M. J. Frisch, J. Phys. Chem. 98, 11623 (1994)

    Deriv               =              1
    GGA                 =           TRUE
    Meta                =          FALSE

    Exchange Hybrid     =           TRUE
    MP2 Hybrid          =          FALSE

   => Exchange Functionals <=

    0.0800   Slater exchange
    0.7200         Becke 88

   => Exact (HF) Exchange <=

    0.2000               HF 

   => Correlation Functionals <=

    0.1900   Vosko, Wilk & Nusair (VWN5_RPA)
    0.8100   Lee, Yang & Parr

   => Molecular Quadrature <=

    Radial Scheme       =       TREUTLER
    Pruning Scheme      =           FLAT
    Nuclear Scheme      =       TREUTLER

    BS radius alpha     =              1
    Pruning alpha       =              1
    Radial Points       =             75
    Spherical Points    =            302
    Total Points        =         133276
    Total Blocks        =           1080
    Max Points          =            256
    Max Functions       =             48

   => -D3ZERO: Empirical Dispersion <=

    Grimme's -D3 (zero-damping) Dispersion Correction
    Grimme S.; Antony J.; Ehrlich S.; Krieg H. (2010), J. Chem. Phys., 132: 154104

        S6 =   1.000000E+00
        S8 =   1.703000E+00
       SR6 =   1.261000E+00
       SR8 =   1.000000E+00
    ALPHA6 =   1.400000E+01

   => Loading Basis Set <=

    Name: (CC-PVDZ AUX)
    Role: JKFIT
    Keyword: DF_BASIS_SCF
    atoms 1-2 entry C          line   121 file /shared/joao/test_parameterize/miniconda3/share/psi4/basis/cc-pvdz-jkfit.gbs 
    atoms 3-6 entry H          line    51 file /shared/joao/test_parameterize/miniconda3/share/psi4/basis/cc-pvdz-jkfit.gbs 

  ==> Pre-Iterations <==

   -------------------------------------------------------
    Irrep   Nso     Nmo     Nalpha   Nbeta   Ndocc  Nsocc
   -------------------------------------------------------
     A         48      48       0       0       0       0
   -------------------------------------------------------
    Total      48      48       8       8       8       0
   -------------------------------------------------------

  ==> Integral Setup <==

  DFHelper Memory: AOs need 0.005 [GiB]; user supplied 3.486 [GiB]. Using in-core AOs.

  ==> MemDFJK: Density-Fitted J/K Matrices <==

    J tasked:                   Yes
    K tasked:                   Yes
    wK tasked:                   No
    OpenMP threads:               1
    Memory (MB):               3570
    Algorithm:                 Core
    Schwarz Cutoff:           1E-12
    Mask sparsity (%):       0.0000
    Fitting Condition:        1E-12

   => Auxiliary Basis Set <=

  Basis Set: (CC-PVDZ AUX)
    Blend: CC-PVDZ-JKFIT
    Number of shells: 84
    Number of basis function: 232
    Number of Cartesian functions: 262
    Spherical Harmonics?: true
    Max angular momentum: 3

  Minimum eigenvalue in the overlap matrix is 5.0394249489E-03.
  Using Symmetric Orthogonalization.

  SCF Guess: Superposition of Atomic Densities via on-the-fly atomic UHF.

  ==> Iterations <==

                           Total Energy        Delta E     RMS |[F,P]|

   @DF-RKS iter   0:   -78.97235821416606   -7.89724e+01   4.98309e-02 
   @DF-RKS iter   1:   -78.44899280844372    5.23365e-01   5.72736e-03 
   @DF-RKS iter   2:   -78.44088909354198    8.10371e-03   6.38069e-03 DIIS
   @DF-RKS iter   3:   -78.49396041417012   -5.30713e-02   7.88857e-04 DIIS
   @DF-RKS iter   4:   -78.49435823319124   -3.97819e-04   5.86881e-04 DIIS
   @DF-RKS iter   5:   -78.49480401077834   -4.45778e-04   2.44237e-05 DIIS
   @DF-RKS iter   6:   -78.49480462604123   -6.15263e-07   9.29870e-06 DIIS
   @DF-RKS iter   7:   -78.49480473126917   -1.05228e-07   1.56227e-06 DIIS
   @DF-RKS iter   8:   -78.49480473407617   -2.80700e-09   3.10329e-07 DIIS

  ==> Post-Iterations <==

    Orbital Energies [Eh]
    ---------------------

    Doubly Occupied:                                                      

       1A    -10.189629     2A    -10.188851     3A     -0.764696  
       4A     -0.580206     5A     -0.448265     6A     -0.419074  
       7A     -0.415033     8A     -0.195526  

    Virtual:                                                              

       9A     -0.068245    10A      0.089241    11A      0.102568  
      12A      0.133310    13A      0.157566    14A      0.286580  
      15A      0.408421    16A      0.502233    17A      0.506779  
      18A      0.521491    19A      0.537094    20A      0.546063  
      21A      0.636518    22A      0.668706    23A      0.702486  
      24A      0.703090    25A      0.836760    26A      0.922493  
      27A      0.964682    28A      1.039319    29A      1.291473  
      30A      1.408489    31A      1.410304    32A      1.448117  
      33A      1.482495    34A      1.541879    35A      1.620086  
      36A      1.668467    37A      1.684184    38A      1.798810  
      39A      1.822657    40A      2.049903    41A      2.051299  
      42A      2.097722    43A      2.185170    44A      2.325817  
      45A      2.503435    46A      2.531018    47A      2.559751  
      48A      2.703457  

    Final Occupation by Irrep:
              A 
    DOCC [     8 ]

  Energy converged.

  @DF-RKS Final Energy:   -78.49480473407617

   => Energetics <=

    Nuclear Repulsion Energy =             33.3071319503435532
    One-Electron Energy =                -170.0438427380685766
    Two-Electron Energy =                  68.1880464046732442
    DFT Exchange-Correlation Energy =      -9.9453022410243985
    Empirical Dispersion Energy =          -0.0008381100000000
    VV10 Nonlocal Energy =                  0.0000000000000000
    Total Energy =                        -78.4948047340761832



Properties will be evaluated at   0.000000,   0.000000,   0.000000 [a0]

Properties computed using the SCF density matrix

  Nuclear Dipole Moment: [e a0]
     X:    48.6400      Y:    -1.2549      Z:    -1.6994

  Electronic Dipole Moment: [e a0]
     X:   -48.6400      Y:     1.2549      Z:     1.6994

  Dipole Moment: [e a0]
     X:    -0.0000      Y:    -0.0000      Z:    -0.0000     Total:     0.0000

  Dipole Moment: [D]
     X:    -0.0000      Y:    -0.0000      Z:    -0.0000     Total:     0.0000


*** tstop() called on loro.prib.upf.edu at Sat Sep 29 16:47:04 2018
Module time:
	user time   =       4.63 seconds =       0.08 minutes
	system time =       0.10 seconds =       0.00 minutes
	total time  =          6 seconds =       0.10 minutes
Total time:
	user time   =       4.63 seconds =       0.08 minutes
	system time =       0.10 seconds =       0.00 minutes
	total time  =          6 seconds =       0.10 minutes


Properties will be evaluated at   0.000000,   0.000000,   0.000000 [a0]
OEProp: No title given, name of density matrix used for the following properties is 'SCF density'
  Nuclear Dipole Moment: [e a0]
     X:    48.6400      Y:    -1.2549      Z:    -1.6994

  Electronic Dipole Moment: [e a0]
     X:   -48.6400      Y:     1.2549      Z:     1.6994

  Dipole Moment: [e a0]
     X:    -0.0000      Y:    -0.0000      Z:    -0.0000     Total:     0.0000

  Dipole Moment: [D]
     X:    -0.0000      Y:    -0.0000      Z:    -0.0000     Total:     0.0000

  Quadrupole Moment: [D A]
    XX:   -12.8531     YY:   -13.6878     ZZ:   -13.7300
    XY:     0.0001     XZ:     0.0001     YZ:     0.0051

  Traceless Quadrupole Moment: [D A]
    XX:     0.5705     YY:    -0.2642     ZZ:    -0.3063
    XY:     0.0001     XZ:     0.0001     YZ:     0.0051

  Mulliken Charges: (a.u.)
   Center  Symbol    Alpha    Beta     Spin     Total
       1     C     3.03784  3.03784  0.00000 -0.07567
       2     C     3.03784  3.03784  0.00000 -0.07569
       3     H     0.48108  0.48108  0.00000  0.03783
       4     H     0.48108  0.48108  0.00000  0.03785
       5     H     0.48108  0.48108  0.00000  0.03784
       6     H     0.48108  0.48108  0.00000  0.03784

   Total alpha =  8.00000, Total beta =  8.00000, Total charge =  0.00000


    Psi4 stopped on: Saturday, 29 September 2018 04:47PM
    Psi4 wall time for execution: 0:00:06.75

*** Psi4 exiting successfully. Buy a developer a beer!
