
    -----------------------------------------------------------------------
          Psi4: An Open-Source Ab Initio Electronic Structure Package
                               Psi4 1.2.1 release

                         Git: Rev {HEAD} 406f4de 


    R. M. Parrish, L. A. Burns, D. G. A. Smith, A. C. Simmonett,
    A. E. DePrince III, E. G. Hohenstein, U. Bozkaya, A. Yu. Sokolov,
    R. Di Remigio, R. M. Richard, J. F. Gonthier, A. M. James,
    H. R. McAlexander, A. Kumar, M. Saitow, X. Wang, B. P. Pritchard,
    P. Verma, H. F. Schaefer III, K. Patkowski, R. A. King, E. F. Valeev,
    F. A. Evangelista, J. M. Turney, T. D. Crawford, and C. D. Sherrill,
    J. Chem. Theory Comput. 13(7) pp 3185--3197 (2017).
    (doi: 10.1021/acs.jctc.7b00174)


                         Additional Contributions by
    P. Kraus, H. Kruse, M. H. Lechner, M. C. Schieber, and R. A. Shaw

    -----------------------------------------------------------------------


    Psi4 started on: Saturday, 29 September 2018 05:08PM

    Process ID: 12287
    Host:       loro.prib.upf.edu
    PSIDATADIR: /shared/joao/test_parameterize/miniconda3/share/psi4
    Memory:     500.0 MiB
    Threads:    1
    
  ==> Input File <==

--------------------------------------------------------------------------
set_num_threads(1)
set_memory('5348 MB')

set { scf_mem_safety_factor 0.7 }

set { reference rks }
set { basis cc-pVDZ }

molecule MOL {
    0 1
    noreorient
    nocom
    symmetry c1
    O    1.050400   0.042900  -0.048100
    C    2.474100   0.047400  -0.029000
    C    3.002600  -1.068900  -0.932000
    N    3.818482  -2.033306  -0.195958
    H    0.760400   0.728400   0.578000
    H    2.809900  -0.097900   1.003200
    H    2.817400   1.026800  -0.378600
    H    3.589251  -0.637286  -1.751323
    H    2.157533  -1.586802  -1.399649
    H    4.665882  -1.574241   0.136690
    H    4.129625  -2.759598  -0.840893
}

set optking { frozen_dihedral = (" 1 2 3 4 ") }

energy, wfn = energy('B3LYP-D3', return_wfn=True)

import os
os.chdir(os.environ['HTMD_PSI4_WORKDIR'])

oeprop(wfn, 'DIPOLE', 'QUADRUPOLE', 'MULLIKEN_CHARGES')

with open('psi4out.xyz', 'w') as f:
    f.write('11 ' )
    f.write('%.12f\n' % energy)
    f.write(MOL.save_string_xyz())
--------------------------------------------------------------------------
  Threads set to 1 by Python driver.

  Memory set to   4.981 GiB by Python driver.

*** tstart() called on loro.prib.upf.edu
*** at Sat Sep 29 17:08:29 2018

   => Loading Basis Set <=

    Name: CC-PVDZ
    Role: ORBITAL
    Keyword: BASIS
    atoms 1    entry O          line   198 file /shared/joao/test_parameterize/miniconda3/share/psi4/basis/cc-pvdz.gbs 
    atoms 2-3  entry C          line   138 file /shared/joao/test_parameterize/miniconda3/share/psi4/basis/cc-pvdz.gbs 
    atoms 4    entry N          line   168 file /shared/joao/test_parameterize/miniconda3/share/psi4/basis/cc-pvdz.gbs 
    atoms 5-11 entry H          line    22 file /shared/joao/test_parameterize/miniconda3/share/psi4/basis/cc-pvdz.gbs 


         ---------------------------------------------------------
                                   SCF
            by Justin Turney, Rob Parrish, Andy Simmonett
                             and Daniel Smith
                              RKS Reference
                        1 Threads,   5100 MiB Core
         ---------------------------------------------------------

  ==> Geometry <==

    Molecular point group: c1
    Full point group: C1

    Geometry (in Angstrom), charge = 0, multiplicity = 1:

       Center              X                  Y                   Z               Mass       
    ------------   -----------------  -----------------  -----------------  -----------------
         O            1.050400000000     0.042900000000    -0.048100000000    15.994914619560
         C            2.474100000000     0.047400000000    -0.029000000000    12.000000000000
         C            3.002600000000    -1.068900000000    -0.932000000000    12.000000000000
         N            3.818482000000    -2.033306000000    -0.195958000000    14.003074004780
         H            0.760400000000     0.728400000000     0.578000000000     1.007825032070
         H            2.809900000000    -0.097900000000     1.003200000000     1.007825032070
         H            2.817400000000     1.026800000000    -0.378600000000     1.007825032070
         H            3.589251000000    -0.637286000000    -1.751323000000     1.007825032070
         H            2.157533000000    -1.586802000000    -1.399649000000     1.007825032070
         H            4.665882000000    -1.574241000000     0.136690000000     1.007825032070
         H            4.129625000000    -2.759598000000    -0.840893000000     1.007825032070

  Running in c1 symmetry.

  Rotational constants: A =      0.46309  B =      0.03031  C =      0.02955 [cm^-1]
  Rotational constants: A =  13883.06495  B =    908.69106  C =    885.96580 [MHz]
  Nuclear repulsion =  130.982603936393588

  Charge       = 0
  Multiplicity = 1
  Electrons    = 34
  Nalpha       = 17
  Nbeta        = 17

  ==> Algorithm <==

  SCF Algorithm Type is DF.
  DIIS enabled.
  MOM disabled.
  Fractional occupation disabled.
  Guess Type is SAD.
  Energy threshold   = 1.00e-06
  Density threshold  = 1.00e-06
  Integral threshold = 0.00e+00

  ==> Primary Basis <==

  Basis Set: CC-PVDZ
    Blend: CC-PVDZ
    Number of shells: 45
    Number of basis function: 91
    Number of Cartesian functions: 95
    Spherical Harmonics?: true
    Max angular momentum: 2

  ==> DFT Potential <==

   => Composite Functional: B3LYP-D3ZERO <= 

    B3LYP-d3zero Hyb-GGA Exchange-Correlation Functional

    P. J. Stephens, F. J. Devlin, C. F. Chabalowski, and M. J. Frisch, J. Phys. Chem. 98, 11623 (1994)

    Deriv               =              1
    GGA                 =           TRUE
    Meta                =          FALSE

    Exchange Hybrid     =           TRUE
    MP2 Hybrid          =          FALSE

   => Exchange Functionals <=

    0.0800   Slater exchange
    0.7200         Becke 88

   => Exact (HF) Exchange <=

    0.2000               HF 

   => Correlation Functionals <=

    0.1900   Vosko, Wilk & Nusair (VWN5_RPA)
    0.8100   Lee, Yang & Parr

   => Molecular Quadrature <=

    Radial Scheme       =       TREUTLER
    Pruning Scheme      =           FLAT
    Nuclear Scheme      =       TREUTLER

    BS radius alpha     =              1
    Pruning alpha       =              1
    Radial Points       =             75
    Spherical Points    =            302
    Total Points        =         245074
    Total Blocks        =           1895
    Max Points          =            256
    Max Functions       =             91

   => -D3ZERO: Empirical Dispersion <=

    Grimme's -D3 (zero-damping) Dispersion Correction
    Grimme S.; Antony J.; Ehrlich S.; Krieg H. (2010), J. Chem. Phys., 132: 154104

        S6 =   1.000000E+00
        S8 =   1.703000E+00
       SR6 =   1.261000E+00
       SR8 =   1.000000E+00
    ALPHA6 =   1.400000E+01

   => Loading Basis Set <=

    Name: (CC-PVDZ AUX)
    Role: JKFIT
    Keyword: DF_BASIS_SCF
    atoms 1    entry O          line   221 file /shared/joao/test_parameterize/miniconda3/share/psi4/basis/cc-pvdz-jkfit.gbs 
    atoms 2-3  entry C          line   121 file /shared/joao/test_parameterize/miniconda3/share/psi4/basis/cc-pvdz-jkfit.gbs 
    atoms 4    entry N          line   171 file /shared/joao/test_parameterize/miniconda3/share/psi4/basis/cc-pvdz-jkfit.gbs 
    atoms 5-11 entry H          line    51 file /shared/joao/test_parameterize/miniconda3/share/psi4/basis/cc-pvdz-jkfit.gbs 

  ==> Pre-Iterations <==

   -------------------------------------------------------
    Irrep   Nso     Nmo     Nalpha   Nbeta   Ndocc  Nsocc
   -------------------------------------------------------
     A         91      91       0       0       0       0
   -------------------------------------------------------
    Total      91      91      17      17      17       0
   -------------------------------------------------------

  ==> Integral Setup <==

  DFHelper Memory: AOs need 0.036 [GiB]; user supplied 3.486 [GiB]. Using in-core AOs.

  ==> MemDFJK: Density-Fitted J/K Matrices <==

    J tasked:                   Yes
    K tasked:                   Yes
    wK tasked:                   No
    OpenMP threads:               1
    Memory (MB):               3570
    Algorithm:                 Core
    Schwarz Cutoff:           1E-12
    Mask sparsity (%):       0.3140
    Fitting Condition:        1E-12

   => Auxiliary Basis Set <=

  Basis Set: (CC-PVDZ AUX)
    Blend: CC-PVDZ-JKFIT
    Number of shells: 159
    Number of basis function: 441
    Number of Cartesian functions: 499
    Spherical Harmonics?: true
    Max angular momentum: 3

  Minimum eigenvalue in the overlap matrix is 4.5389993518E-03.
  Using Symmetric Orthogonalization.

  SCF Guess: Superposition of Atomic Densities via on-the-fly atomic UHF.

  ==> Iterations <==

                           Total Energy        Delta E     RMS |[F,P]|

   @DF-RKS iter   0:  -210.88764596931881   -2.10888e+02   3.70381e-02 
   @DF-RKS iter   1:  -210.23379917288293    6.53847e-01   6.54140e-03 
   @DF-RKS iter   2:  -210.09004456003888    1.43755e-01   9.33218e-03 DIIS
   @DF-RKS iter   3:  -210.38467498695641   -2.94630e-01   5.79703e-04 DIIS
   @DF-RKS iter   4:  -210.38542473989546   -7.49753e-04   3.56968e-04 DIIS
   @DF-RKS iter   5:  -210.38588862968959   -4.63890e-04   4.50984e-05 DIIS
   @DF-RKS iter   6:  -210.38589442303217   -5.79334e-06   1.95450e-05 DIIS
   @DF-RKS iter   7:  -210.38589578567053   -1.36264e-06   2.78320e-06 DIIS
   @DF-RKS iter   8:  -210.38589581421215   -2.85416e-08   6.41810e-07 DIIS

  ==> Post-Iterations <==

    Orbital Energies [Eh]
    ---------------------

    Doubly Occupied:                                                      

       1A    -19.124300     2A    -14.303071     3A    -10.222262  
       4A    -10.200845     5A     -1.007170     6A     -0.875567  
       7A     -0.712527     8A     -0.596795     9A     -0.507603  
      10A     -0.477021    11A     -0.466573    12A     -0.396528  
      13A     -0.389424    14A     -0.370830    15A     -0.322643  
      16A     -0.257178    17A     -0.229440  

    Virtual:                                                              

      18A      0.055521    19A      0.058006    20A      0.107241  
      21A      0.110291    22A      0.131525    23A      0.144294  
      24A      0.154072    25A      0.220216    26A      0.236222  
      27A      0.261369    28A      0.459110    29A      0.476127  
      30A      0.485116    31A      0.518559    32A      0.529012  
      33A      0.568677    34A      0.613475    35A      0.619010  
      36A      0.637819    37A      0.655455    38A      0.664512  
      39A      0.684883    40A      0.711341    41A      0.788865  
      42A      0.795520    43A      0.840984    44A      0.893918  
      45A      0.961494    46A      0.995280    47A      1.010291  
      48A      1.056013    49A      1.192192    50A      1.223468  
      51A      1.231446    52A      1.283830    53A      1.337761  
      54A      1.383396    55A      1.417513    56A      1.497641  
      57A      1.535090    58A      1.564919    59A      1.586382  
      60A      1.609979    61A      1.627730    62A      1.647778  
      63A      1.706175    64A      1.743014    65A      1.774034  
      66A      1.801828    67A      1.854684    68A      1.910649  
      69A      1.930216    70A      1.965788    71A      1.973138  
      72A      2.010128    73A      2.049665    74A      2.135985  
      75A      2.148142    76A      2.177110    77A      2.283490  
      78A      2.378927    79A      2.386182    80A      2.448052  
      81A      2.455576    82A      2.523854    83A      2.624308  
      84A      2.678934    85A      2.815612    86A      2.964928  
      87A      3.012704    88A      3.056073    89A      3.100063  
      90A      3.191599    91A      3.691333  

    Final Occupation by Irrep:
              A 
    DOCC [    17 ]

  Energy converged.

  @DF-RKS Final Energy:  -210.38589581421215

   => Energetics <=

    Nuclear Repulsion Energy =            130.9826039363935877
    One-Electron Energy =                -544.9336941935259802
    Two-Electron Energy =                 227.0594014613748470
    DFT Exchange-Correlation Energy =     -23.4895093784546027
    Empirical Dispersion Energy =          -0.0046976400000000
    VV10 Nonlocal Energy =                  0.0000000000000000
    Total Energy =                       -210.3858958142121196



Properties will be evaluated at   0.000000,   0.000000,   0.000000 [a0]

Properties computed using the SCF density matrix

  Nuclear Dipole Moment: [e a0]
     X:   168.0397      Y:   -47.0912      Z:   -19.2281

  Electronic Dipole Moment: [e a0]
     X:  -167.4317      Y:    47.5748      Z:    19.2057

  Dipole Moment: [e a0]
     X:     0.6080      Y:     0.4836      Z:    -0.0224     Total:     0.7772

  Dipole Moment: [D]
     X:     1.5453      Y:     1.2292      Z:    -0.0570     Total:     1.9754


*** tstop() called on loro.prib.upf.edu at Sat Sep 29 17:08:49 2018
Module time:
	user time   =      15.26 seconds =       0.25 minutes
	system time =       0.20 seconds =       0.00 minutes
	total time  =         20 seconds =       0.33 minutes
Total time:
	user time   =      15.26 seconds =       0.25 minutes
	system time =       0.20 seconds =       0.00 minutes
	total time  =         20 seconds =       0.33 minutes


Properties will be evaluated at   0.000000,   0.000000,   0.000000 [a0]
OEProp: No title given, name of density matrix used for the following properties is 'SCF density'
  Nuclear Dipole Moment: [e a0]
     X:   168.0397      Y:   -47.0912      Z:   -19.2281

  Electronic Dipole Moment: [e a0]
     X:  -167.4317      Y:    47.5748      Z:    19.2057

  Dipole Moment: [e a0]
     X:     0.6080      Y:     0.4836      Z:    -0.0224     Total:     0.7772

  Dipole Moment: [D]
     X:     1.5453      Y:     1.2292      Z:    -0.0570     Total:     1.9754

  Quadrupole Moment: [D A]
    XX:   -15.7628     YY:   -25.4124     ZZ:   -24.7308
    XY:    -0.3259     XZ:    -2.8536     YZ:     3.8978

  Traceless Quadrupole Moment: [D A]
    XX:     6.2059     YY:    -3.4437     ZZ:    -2.7621
    XY:    -0.3259     XZ:    -2.8536     YZ:     3.8978

  Mulliken Charges: (a.u.)
   Center  Symbol    Alpha    Beta     Spin     Total
       1     O     4.14009  4.14009  0.00000 -0.28018
       2     C     2.92472  2.92472  0.00000  0.15056
       3     C     2.98183  2.98183  0.00000  0.03633
       4     N     3.59154  3.59154  0.00000 -0.18309
       5     H     0.43200  0.43200  0.00000  0.13600
       6     H     0.50169  0.50169  0.00000 -0.00337
       7     H     0.50460  0.50460  0.00000 -0.00920
       8     H     0.50574  0.50574  0.00000 -0.01149
       9     H     0.48549  0.48549  0.00000  0.02903
      10     H     0.46665  0.46665  0.00000  0.06670
      11     H     0.46565  0.46565  0.00000  0.06870

   Total alpha = 17.00000, Total beta = 17.00000, Total charge =  0.00000


    Psi4 stopped on: Saturday, 29 September 2018 05:08PM
    Psi4 wall time for execution: 0:00:20.06

*** Psi4 exiting successfully. Buy a developer a beer!
