
    -----------------------------------------------------------------------
          Psi4: An Open-Source Ab Initio Electronic Structure Package
                               Psi4 1.2.1 release

                         Git: Rev {HEAD} 406f4de 


    R. M. Parrish, L. A. Burns, D. G. A. Smith, A. C. Simmonett,
    A. E. DePrince III, E. G. Hohenstein, U. Bozkaya, A. Yu. Sokolov,
    R. Di Remigio, R. M. Richard, J. F. Gonthier, A. M. James,
    H. R. McAlexander, A. Kumar, M. Saitow, X. Wang, B. P. Pritchard,
    P. Verma, H. F. Schaefer III, K. Patkowski, R. A. King, E. F. Valeev,
    F. A. Evangelista, J. M. Turney, T. D. Crawford, and C. D. Sherrill,
    J. Chem. Theory Comput. 13(7) pp 3185--3197 (2017).
    (doi: 10.1021/acs.jctc.7b00174)


                         Additional Contributions by
    P. Kraus, H. Kruse, M. H. Lechner, M. C. Schieber, and R. A. Shaw

    -----------------------------------------------------------------------


    Psi4 started on: Saturday, 29 September 2018 08:24PM

    Process ID: 15767
    Host:       green.prib.upf.edu
    PSIDATADIR: /shared/joao/test_parameterize/miniconda3/share/psi4
    Memory:     500.0 MiB
    Threads:    1
    
  ==> Input File <==

--------------------------------------------------------------------------
set_num_threads(4)
set_memory('3000 MB')

set { scf_mem_safety_factor 0.7 }

set { reference rks }
set { basis 6-31G* }

molecule MOL {
    1 1
    noreorient
    nocom
    symmetry c1
    C   -0.000000  -0.000000  -0.177864
    C    0.036678   1.219374   0.524165
    C    0.031765   1.213120   1.915444
    C    0.000000   0.000000   2.610107
    C   -0.031765  -1.213120   1.915444
    C   -0.036678  -1.219375   0.524165
    C   -0.000000   0.000000  -1.644734
    H    0.018170   2.164705  -0.010854
    H    0.042402   2.152895   2.457886
    H    0.000000   0.000000   3.695756
    H   -0.042402  -2.152895   2.457886
    H   -0.018170  -2.164705  -0.010853
    N   -0.712590  -0.905950  -2.308461
    N    0.712590   0.905950  -2.308460
    H    0.673432   1.006470  -3.315997
    H    1.377190   1.485970  -1.813316
    H   -0.280634  -1.443522  -3.048538
    H   -1.668428  -1.139403  -2.066304
}

set optking { frozen_dihedral = (" 1 7 13 17 ") }

set optking { dynamic_level = 1 
 geom_maxiter = 250
 print_trajectory_xyz_file = True }

energy, wfn = optimize('B3LYP-D3', return_wfn=True)

import os
os.chdir(os.environ['HTMD_PSI4_WORKDIR'])

oeprop(wfn, 'DIPOLE', 'QUADRUPOLE', 'MULLIKEN_CHARGES')

with open('psi4out.xyz', 'w') as f:
    f.write('18 ' )
    f.write('%.12f\n' % energy)
    f.write(MOL.save_string_xyz())
--------------------------------------------------------------------------
  Threads set to 4 by Python driver.

  Memory set to   2.794 GiB by Python driver.
gradient() will perform analytic gradient computation.

*** tstart() called on green.prib.upf.edu
*** at Sat Sep 29 20:24:39 2018

   => Loading Basis Set <=

    Name: 6-31G*
    Role: ORBITAL
    Keyword: BASIS
    atoms 1-7         entry C          line   111 file /shared/joao/test_parameterize/miniconda3/share/psi4/basis/6-31gs.gbs 
    atoms 8-12, 15-18 entry H          line    44 file /shared/joao/test_parameterize/miniconda3/share/psi4/basis/6-31gs.gbs 
    atoms 13-14       entry N          line   128 file /shared/joao/test_parameterize/miniconda3/share/psi4/basis/6-31gs.gbs 


         ---------------------------------------------------------
                                   SCF
            by Justin Turney, Rob Parrish, Andy Simmonett
                             and Daniel Smith
                              RKS Reference
                        4 Threads,   2861 MiB Core
         ---------------------------------------------------------

  ==> Geometry <==

    Molecular point group: c1
    Full point group: C1

    Geometry (in Angstrom), charge = 1, multiplicity = 1:

       Center              X                  Y                   Z               Mass       
    ------------   -----------------  -----------------  -----------------  -----------------
         C            0.000000000000     0.000000000000    -0.177864000000    12.000000000000
         C            0.036678000000     1.219374000000     0.524165000000    12.000000000000
         C            0.031765000000     1.213120000000     1.915444000000    12.000000000000
         C            0.000000000000     0.000000000000     2.610107000000    12.000000000000
         C           -0.031765000000    -1.213120000000     1.915444000000    12.000000000000
         C           -0.036678000000    -1.219375000000     0.524165000000    12.000000000000
         C            0.000000000000     0.000000000000    -1.644734000000    12.000000000000
         H            0.018170000000     2.164705000000    -0.010854000000     1.007825032070
         H            0.042402000000     2.152895000000     2.457886000000     1.007825032070
         H            0.000000000000     0.000000000000     3.695756000000     1.007825032070
         H           -0.042402000000    -2.152895000000     2.457886000000     1.007825032070
         H           -0.018170000000    -2.164705000000    -0.010853000000     1.007825032070
         N           -0.712590000000    -0.905950000000    -2.308461000000    14.003074004780
         N            0.712590000000     0.905950000000    -2.308460000000    14.003074004780
         H            0.673432000000     1.006470000000    -3.315997000000     1.007825032070
         H            1.377190000000     1.485970000000    -1.813316000000     1.007825032070
         H           -0.280634000000    -1.443522000000    -3.048538000000     1.007825032070
         H           -1.668428000000    -1.139403000000    -2.066304000000     1.007825032070

  Running in c1 symmetry.

  Rotational constants: A =      0.12131  B =      0.03958  C =      0.03133 [cm^-1]
  Rotational constants: A =   3636.70299  B =   1186.50858  C =    939.33107 [MHz]
  Nuclear repulsion =  416.714160521606914

  Charge       = 1
  Multiplicity = 1
  Electrons    = 64
  Nalpha       = 32
  Nbeta        = 32

  ==> Algorithm <==

  SCF Algorithm Type is DF.
  DIIS enabled.
  MOM disabled.
  Fractional occupation disabled.
  Guess Type is SAD.
  Energy threshold   = 1.00e-08
  Density threshold  = 1.00e-08
  Integral threshold = 0.00e+00

  ==> Primary Basis <==

  Basis Set: 6-31G*
    Blend: 6-31G*
    Number of shells: 72
    Number of basis function: 153
    Number of Cartesian functions: 153
    Spherical Harmonics?: false
    Max angular momentum: 2

  ==> DFT Potential <==

   => Composite Functional: B3LYP-D3ZERO <= 

    B3LYP-d3zero Hyb-GGA Exchange-Correlation Functional

    P. J. Stephens, F. J. Devlin, C. F. Chabalowski, and M. J. Frisch, J. Phys. Chem. 98, 11623 (1994)

    Deriv               =              1
    GGA                 =           TRUE
    Meta                =          FALSE

    Exchange Hybrid     =           TRUE
    MP2 Hybrid          =          FALSE

   => Exchange Functionals <=

    0.0800   Slater exchange
    0.7200         Becke 88

   => Exact (HF) Exchange <=

    0.2000               HF 

   => Correlation Functionals <=

    0.1900   Vosko, Wilk & Nusair (VWN5_RPA)
    0.8100   Lee, Yang & Parr

   => Molecular Quadrature <=

    Radial Scheme       =       TREUTLER
    Pruning Scheme      =           FLAT
    Nuclear Scheme      =       TREUTLER

    BS radius alpha     =              1
    Pruning alpha       =              1
    Radial Points       =             75
    Spherical Points    =            302
    Total Points        =         397079
    Total Blocks        =           3021
    Max Points          =            256
    Max Functions       =            149

   => -D3ZERO: Empirical Dispersion <=

    Grimme's -D3 (zero-damping) Dispersion Correction
    Grimme S.; Antony J.; Ehrlich S.; Krieg H. (2010), J. Chem. Phys., 132: 154104

        S6 =   1.000000E+00
        S8 =   1.703000E+00
       SR6 =   1.261000E+00
       SR8 =   1.000000E+00
    ALPHA6 =   1.400000E+01

   => Loading Basis Set <=

    Name: (6-31G* AUX)
    Role: JKFIT
    Keyword: DF_BASIS_SCF
    atoms 1-7         entry C          line   121 file /shared/joao/test_parameterize/miniconda3/share/psi4/basis/cc-pvdz-jkfit.gbs 
    atoms 8-12, 15-18 entry H          line    51 file /shared/joao/test_parameterize/miniconda3/share/psi4/basis/cc-pvdz-jkfit.gbs 
    atoms 13-14       entry N          line   171 file /shared/joao/test_parameterize/miniconda3/share/psi4/basis/cc-pvdz-jkfit.gbs 

  ==> Pre-Iterations <==

   -------------------------------------------------------
    Irrep   Nso     Nmo     Nalpha   Nbeta   Ndocc  Nsocc
   -------------------------------------------------------
     A        153     153       0       0       0       0
   -------------------------------------------------------
    Total     153     153      32      32      32       0
   -------------------------------------------------------

  ==> Integral Setup <==

  ==> DiskDFJK: Density-Fitted J/K Matrices <==

    J tasked:                  Yes
    K tasked:                  Yes
    wK tasked:                  No
    OpenMP threads:              4
    Integrals threads:           4
    Memory (MB):              2002
    Algorithm:                Core
    Integral Cache:           NONE
    Schwarz Cutoff:          1E-12
    Fitting Condition:       1E-12

   => Auxiliary Basis Set <=

  Basis Set: (6-31G* AUX)
    Blend: CC-PVDZ-JKFIT
    Number of shells: 297
    Number of basis function: 954
    Number of Cartesian functions: 954
    Spherical Harmonics?: false
    Max angular momentum: 3

  Minimum eigenvalue in the overlap matrix is 4.8724975033E-04.
  Using Symmetric Orthogonalization.

  SCF Guess: Superposition of Atomic Densities via on-the-fly atomic UHF.

  ==> Iterations <==

                           Total Energy        Delta E     RMS |[F,P]|

   @DF-RKS iter   0:  -379.61323285014333   -3.79613e+02   6.81806e-02 
   @DF-RKS iter   1:  -381.01822725748070   -1.40499e+00   1.20516e-02 
   @DF-RKS iter   2:  -380.88628769166462    1.31940e-01   1.37370e-02 DIIS
   @DF-RKS iter   3:  -381.44001600441112   -5.53728e-01   2.29619e-03 DIIS
   @DF-RKS iter   4:  -381.45270355108448   -1.26875e-02   8.87349e-04 DIIS
   @DF-RKS iter   5:  -381.45457025329347   -1.86670e-03   3.05063e-04 DIIS
   @DF-RKS iter   6:  -381.45480438255657   -2.34129e-04   9.78821e-05 DIIS
   @DF-RKS iter   7:  -381.45483004599714   -2.56634e-05   2.57581e-05 DIIS
   @DF-RKS iter   8:  -381.45483193568447   -1.88969e-06   7.00164e-06 DIIS
   @DF-RKS iter   9:  -381.45483207979811   -1.44114e-07   2.91815e-06 DIIS
   @DF-RKS iter  10:  -381.45483210467165   -2.48735e-08   6.35174e-07 DIIS
   @DF-RKS iter  11:  -381.45483210573803   -1.06638e-09   2.30776e-07 DIIS
   @DF-RKS iter  12:  -381.45483210588600   -1.47963e-10   9.29766e-08 DIIS
   @DF-RKS iter  13:  -381.45483210591624   -3.02407e-11   1.71879e-08 DIIS
   @DF-RKS iter  14:  -381.45483210591749   -1.25056e-12   4.36538e-09 DIIS

  ==> Post-Iterations <==

    Orbital Energies [Eh]
    ---------------------

    Doubly Occupied:                                                      

       1A    -14.574001     2A    -14.548769     3A    -10.494501  
       4A    -10.370430     5A    -10.356429     6A    -10.355764  
       7A    -10.345564     8A    -10.340898     9A    -10.340318  
      10A     -1.179251    11A     -1.086581    12A     -1.013830  
      13A     -0.924800    14A     -0.902007    15A     -0.842366  
      16A     -0.780199    17A     -0.767988    18A     -0.740471  
      19A     -0.727744    20A     -0.702897    21A     -0.669971  
      22A     -0.626635    23A     -0.608026    24A     -0.582354  
      25A     -0.577365    26A     -0.558478    27A     -0.518699  
      28A     -0.505696    29A     -0.497674    30A     -0.464230  
      31A     -0.414056    32A     -0.405667  

    Virtual:                                                              

      33A     -0.234451    34A     -0.155599    35A     -0.134678  
      36A     -0.099857    37A     -0.070734    38A     -0.050360  
      39A     -0.037403    40A     -0.016876    41A      0.007130  
      42A      0.010925    43A      0.022098    44A      0.054011  
      45A      0.061364    46A      0.090838    47A      0.133720  
      48A      0.140443    49A      0.155703    50A      0.158251  
      51A      0.207396    52A      0.241378    53A      0.298287  
      54A      0.354274    55A      0.358313    56A      0.381885  
      57A      0.392870    58A      0.397688    59A      0.419252  
      60A      0.421639    61A      0.442639    62A      0.449092  
      63A      0.452543    64A      0.470929    65A      0.473845  
      66A      0.482223    67A      0.488116    68A      0.516067  
      69A      0.523204    70A      0.537246    71A      0.553109  
      72A      0.585126    73A      0.615329    74A      0.647729  
      75A      0.671116    76A      0.686098    77A      0.697177  
      78A      0.701947    79A      0.708798    80A      0.719803  
      81A      0.730087    82A      0.741886    83A      0.771915  
      84A      0.779256    85A      0.808325    86A      0.818801  
      87A      0.855433    88A      0.926653    89A      0.948889  
      90A      0.974613    91A      0.999984    92A      1.018341  
      93A      1.057258    94A      1.070381    95A      1.122267  
      96A      1.142408    97A      1.238734    98A      1.275538  
      99A      1.278684   100A      1.308889   101A      1.319077  
     102A      1.342312   103A      1.360153   104A      1.381845  
     105A      1.440930   106A      1.479921   107A      1.541409  
     108A      1.588697   109A      1.628047   110A      1.661944  
     111A      1.683946   112A      1.734736   113A      1.750097  
     114A      1.793507   115A      1.810927   116A      1.828216  
     117A      1.893782   118A      1.926559   119A      1.963189  
     120A      1.979029   121A      1.982771   122A      1.999720  
     123A      2.024444   124A      2.037790   125A      2.124234  
     126A      2.131329   127A      2.154404   128A      2.196452  
     129A      2.234976   130A      2.345667   131A      2.365874  
     132A      2.380562   133A      2.448985   134A      2.453390  
     135A      2.488353   136A      2.512113   137A      2.552086  
     138A      2.586354   139A      2.599397   140A      2.628518  
     141A      2.736155   142A      2.849044   143A      2.981248  
     144A      3.258094   145A      3.629339   146A      3.673296  
     147A      3.913183   148A      3.946418   149A      3.963706  
     150A      4.046352   151A      4.173828   152A      4.253950  
     153A      4.546208  

    Final Occupation by Irrep:
              A 
    DOCC [    32 ]

  Energy converged.

  @DF-RKS Final Energy:  -381.45483210591749

   => Energetics <=

    Nuclear Repulsion Energy =            416.7141605216069138
    One-Electron Energy =               -1328.7417842520621889
    Two-Electron Energy =                 574.9920858293813808
    DFT Exchange-Correlation Energy =     -44.4073632748436111
    Empirical Dispersion Energy =          -0.0119309300000000
    VV10 Nonlocal Energy =                  0.0000000000000000
    Total Energy =                       -381.4548321059174896



Properties will be evaluated at   0.000000,   0.000000,   0.000000 [a0]

Properties computed using the SCF density matrix

  Nuclear Dipole Moment: [e a0]
     X:     0.1919      Y:    -0.1710      Z:     0.0521

  Electronic Dipole Moment: [e a0]
     X:    -0.0569      Y:     0.1766      Z:    -2.1721

  Dipole Moment: [e a0]
     X:     0.1350      Y:     0.0056      Z:    -2.1199     Total:     2.1243

  Dipole Moment: [D]
     X:     0.3431      Y:     0.0143      Z:    -5.3884     Total:     5.3993


*** tstop() called on green.prib.upf.edu at Sat Sep 29 20:25:08 2018
Module time:
	user time   =     106.53 seconds =       1.78 minutes
	system time =       0.48 seconds =       0.01 minutes
	total time  =         29 seconds =       0.48 minutes
Total time:
	user time   =     106.53 seconds =       1.78 minutes
	system time =       0.48 seconds =       0.01 minutes
	total time  =         29 seconds =       0.48 minutes

*** tstart() called on green.prib.upf.edu
*** at Sat Sep 29 20:25:08 2018


         ------------------------------------------------------------
                                   SCF GRAD                          
                          Rob Parrish, Justin Turney,                
                       Andy Simmonett, and Alex Sokolov              
         ------------------------------------------------------------

  ==> Geometry <==

    Molecular point group: c1
    Full point group: C1

    Geometry (in Angstrom), charge = 1, multiplicity = 1:

       Center              X                  Y                   Z               Mass       
    ------------   -----------------  -----------------  -----------------  -----------------
         C            0.000000000000     0.000000000000    -0.177864000000    12.000000000000
         C            0.036678000000     1.219374000000     0.524165000000    12.000000000000
         C            0.031765000000     1.213120000000     1.915444000000    12.000000000000
         C            0.000000000000     0.000000000000     2.610107000000    12.000000000000
         C           -0.031765000000    -1.213120000000     1.915444000000    12.000000000000
         C           -0.036678000000    -1.219375000000     0.524165000000    12.000000000000
         C            0.000000000000     0.000000000000    -1.644734000000    12.000000000000
         H            0.018170000000     2.164705000000    -0.010854000000     1.007825032070
         H            0.042402000000     2.152895000000     2.457886000000     1.007825032070
         H            0.000000000000     0.000000000000     3.695756000000     1.007825032070
         H           -0.042402000000    -2.152895000000     2.457886000000     1.007825032070
         H           -0.018170000000    -2.164705000000    -0.010853000000     1.007825032070
         N           -0.712590000000    -0.905950000000    -2.308461000000    14.003074004780
         N            0.712590000000     0.905950000000    -2.308460000000    14.003074004780
         H            0.673432000000     1.006470000000    -3.315997000000     1.007825032070
         H            1.377190000000     1.485970000000    -1.813316000000     1.007825032070
         H           -0.280634000000    -1.443522000000    -3.048538000000     1.007825032070
         H           -1.668428000000    -1.139403000000    -2.066304000000     1.007825032070

  Nuclear repulsion =  416.714160521606914

  ==> Basis Set <==

  Basis Set: 6-31G*
    Blend: 6-31G*
    Number of shells: 72
    Number of basis function: 153
    Number of Cartesian functions: 153
    Spherical Harmonics?: false
    Max angular momentum: 2

  ==> DFJKGrad: Density-Fitted SCF Gradients <==

    Gradient:                    1
    J tasked:                  Yes
    K tasked:                  Yes
    wK tasked:                  No
    OpenMP threads:              4
    Integrals threads:           4
    Memory (MB):              2002
    Schwarz Cutoff:          0E+00
    Fitting Condition:       1E-12

   => Auxiliary Basis Set <=

  Basis Set: (6-31G* AUX)
    Blend: CC-PVDZ-JKFIT
    Number of shells: 297
    Number of basis function: 954
    Number of Cartesian functions: 954
    Spherical Harmonics?: false
    Max angular momentum: 3

  ==> DFT Potential <==

   => Composite Functional: B3LYP-D3ZERO <= 

    B3LYP-d3zero Hyb-GGA Exchange-Correlation Functional

    P. J. Stephens, F. J. Devlin, C. F. Chabalowski, and M. J. Frisch, J. Phys. Chem. 98, 11623 (1994)

    Deriv               =              1
    GGA                 =           TRUE
    Meta                =          FALSE

    Exchange Hybrid     =           TRUE
    MP2 Hybrid          =          FALSE

   => Exchange Functionals <=

    0.0800   Slater exchange
    0.7200         Becke 88

   => Exact (HF) Exchange <=

    0.2000               HF 

   => Correlation Functionals <=

    0.1900   Vosko, Wilk & Nusair (VWN5_RPA)
    0.8100   Lee, Yang & Parr

   => Molecular Quadrature <=

    Radial Scheme       =       TREUTLER
    Pruning Scheme      =           FLAT
    Nuclear Scheme      =       TREUTLER

    BS radius alpha     =              1
    Pruning alpha       =              1
    Radial Points       =             75
    Spherical Points    =            302
    Total Points        =         397079
    Total Blocks        =           3021
    Max Points          =            256
    Max Functions       =            149


  -Total Gradient:
     Atom            X                  Y                   Z
    ------   -----------------  -----------------  -----------------
       1        0.005331858427    -0.008857276596     0.006275144130
       2       -0.000492208470    -0.001137648754    -0.004727475096
       3       -0.000606548568    -0.002266319050     0.001412986936
       4        0.000108258575     0.000539194587    -0.000101718183
       5       -0.000794825203     0.000184041754     0.000794510479
       6        0.000875492999     0.003003547852    -0.000273080062
       7       -0.004425527750    -0.014872343567    -0.020383932888
       8        0.000390447281    -0.000102071385     0.000104945124
       9        0.000078438154     0.000038018097    -0.000222100597
      10        0.000170409748    -0.000061072652    -0.000084283400
      11       -0.000077418775     0.000004093492     0.000012403475
      12        0.001514648290    -0.001238286311     0.000885831450
      13        0.002969104425     0.015792082835     0.017146042748
      14       -0.004065653015     0.007484301484    -0.002190792731
      15        0.002510384607     0.001207675925     0.001054560561
      16       -0.002999365181     0.000467392781    -0.000346276037
      17        0.005543804960    -0.006206299852     0.010597734435
      18       -0.006036857907     0.006013905244    -0.009966094193


*** tstop() called on green.prib.upf.edu at Sat Sep 29 20:25:15 2018
Module time:
	user time   =      28.95 seconds =       0.48 minutes
	system time =       0.20 seconds =       0.00 minutes
	total time  =          7 seconds =       0.12 minutes
Total time:
	user time   =     135.53 seconds =       2.26 minutes
	system time =       0.69 seconds =       0.01 minutes
	total time  =         36 seconds =       0.60 minutes

			-----------------------------------------
			 OPTKING 2.0: for geometry optimizations 
			  - R.A. King,  Bethel University        
			-----------------------------------------
	At level 1: Red. Int., RFO, no backsteps, dynamic trust

	Internal coordinates to be generated automatically.
	Detected frag 1 with atoms:  1 2 3 4 5 6 7 8 9 10 11 12 13 14 15 16 17 18
	---Fragment 1 Bond Connectivity---
	 1 : 2 6 7
	 2 : 1 3 8
	 3 : 2 4 9
	 4 : 3 5 10
	 5 : 4 6 11
	 6 : 1 5 12
	 7 : 1 13 14
	 8 : 2
	 9 : 3
	 10 : 4
	 11 : 5
	 12 : 6
	 13 : 7 17 18
	 14 : 7 15 16
	 15 : 14
	 16 : 14
	 17 : 13
	 18 : 13

	Assuming in current code that numbering for constraints corresponds to unified fragment.
	Frozen dihedral atom list: 
	     1     7    13    17
	---Fragment 1 Geometry and Gradient---
	 C           0.0000000000        0.0000000000       -0.3361142489
	 C           0.0693113751        2.3042829136        0.9905282984
	 C           0.0600271506        2.2924645663        3.6196645829
	 C           0.0000000000        0.0000000000        4.9323874075
	 C          -0.0600271506       -2.2924645663        3.6196645829
	 C          -0.0693113751       -2.3042848033        0.9905282984
	 C           0.0000000000        0.0000000000       -3.1080968214
	 H           0.0343363238        4.0906996085       -0.0205110874
	 H           0.0801281675        4.0683819429        4.6447314059
	 H           0.0000000000        0.0000000000        6.9839666940
	 H          -0.0801281675       -4.0683819429        4.6447314059
	 H          -0.0343363238       -4.0906996085       -0.0205091977
	 N          -1.3465999450       -1.7119973901       -4.3623590784
	 N           1.3465999450        1.7119973901       -4.3623571887
	 H           1.2726020491        1.9019526610       -6.2663261875
	 H           2.6025119329        2.8080763417       -3.4266706324
	 H          -0.5303214036       -2.7278612468       -5.7609019257
	 H          -3.1528719924       -2.1531596250       -3.9047486673
	             0.0053318584       -0.0088572766        0.0062751441
	            -0.0004922085       -0.0011376488       -0.0047274751
	            -0.0006065486       -0.0022663191        0.0014129869
	             0.0001082586        0.0005391946       -0.0001017182
	            -0.0007948252        0.0001840418        0.0007945105
	             0.0008754930        0.0030035479       -0.0002730801
	            -0.0044255277       -0.0148723436       -0.0203839329
	             0.0003904473       -0.0001020714        0.0001049451
	             0.0000784382        0.0000380181       -0.0002221006
	             0.0001704097       -0.0000610727       -0.0000842834
	            -0.0000774188        0.0000040935        0.0000124035
	             0.0015146483       -0.0012382863        0.0008858315
	             0.0029691044        0.0157920828        0.0171460427
	            -0.0040656530        0.0074843015       -0.0021907927
	             0.0025103846        0.0012076759        0.0010545606
	            -0.0029993652        0.0004673928       -0.0003462760
	             0.0055438050       -0.0062062999        0.0105977344
	            -0.0060368579        0.0060139052       -0.0099660942

	Previous optimization step data not found.  Starting new optimization.

	---Fragment 1 Intrafragment Coordinates---
	 - Coordinate -           - BOHR/RAD -       - ANG/DEG -
	 R(1,2)           =         2.659794	       1.407502
	 R(1,6)           =         2.659796	       1.407503
	 R(1,7)           =         2.771983	       1.466870
	 R(2,3)           =         2.629179	       1.391302
	 R(2,8)           =         2.052976	       1.086388
	 R(3,4)           =         2.642393	       1.398294
	 R(3,9)           =         2.050622	       1.085142
	 R(4,5)           =         2.642393	       1.398294
	 R(4,10)          =         2.051579	       1.085649
	 R(5,6)           =         2.629179	       1.391302
	 R(5,11)          =         2.050622	       1.085142
	 R(6,12)          =         2.052973	       1.086386
	 R(7,13)          =         2.513452	       1.330061
	 R(7,14)          =         2.513451	       1.330061
	 R(13,17)         =         1.911599	       1.011575
	 R(13,18)         =         1.914850	       1.013295
	 R(14,15)         =         1.914852	       1.013296
	 R(14,16)         =         1.911600	       1.011575
	 B(1,2,3)         =         2.088380	     119.655376
	 B(1,2,8)         =         2.103396	     120.515689
	 B(1,6,5)         =         2.088379	     119.655315
	 B(1,6,12)        =         2.103396	     120.515729
	 B(1,7,13)        =         2.093264	     119.935172
	 B(1,7,14)        =         2.093263	     119.935135
	 B(2,1,6)         =         2.097220	     120.161857
	 B(2,1,7)         =         2.092983	     119.919082
	 B(2,3,4)         =         2.095279	     120.050636
	 B(2,3,9)         =         2.089719	     119.732108
	 B(3,2,8)         =         2.090149	     119.756722
	 B(3,4,5)         =         2.101793	     120.423859
	 B(3,4,10)        =         2.090696	     119.788070
	 B(4,3,9)         =         2.098135	     120.214297
	 B(4,5,6)         =         2.095280	     120.050677
	 B(4,5,11)        =         2.098135	     120.214297
	 B(5,4,10)        =         2.090696	     119.788070
	 B(5,6,12)        =         2.090149	     119.756743
	 B(6,1,7)         =         2.092982	     119.919061
	 B(6,5,11)        =         2.089719	     119.732067
	 B(7,13,17)       =         2.092411	     119.886309
	 B(7,13,18)       =         2.144860	     122.891435
	 B(7,14,15)       =         2.144860	     122.891405
	 B(7,14,16)       =         2.092412	     119.886393
	 B(13,7,14)       =         2.096659	     120.129694
	 B(15,14,16)      =         2.043399	     117.078146
	 B(17,13,18)      =         2.043400	     117.078195
	 D(1,2,3,4)       =         0.007799	       0.446825
	 D(1,2,3,9)       =        -3.122896	    -178.928735
	 D(1,6,5,4)       =         0.007799	       0.446822
	 D(1,6,5,11)      =        -3.122896	    -178.928737
	*D(1,7,13,17)     =        -2.268928	    -129.999986
	 D(1,7,13,18)     =         0.794247	      45.507023
	 D(1,7,14,15)     =        -3.032165	    -173.730230
	 D(1,7,14,16)     =         0.187844	      10.762681
	 D(2,1,6,5)       =        -0.003906	      -0.223802
	 D(2,1,6,12)      =        -3.091437	    -177.126283
	 D(2,1,7,13)      =        -2.505167	    -143.535494
	 D(2,1,7,14)      =         0.636426	      36.464506
	 D(2,3,4,5)       =        -0.003942	      -0.225875
	 D(2,3,4,10)      =         3.137650	     179.774125
	 D(3,2,1,6)       =        -0.003906	      -0.223806
	 D(3,2,1,7)       =         3.137687	     179.776196
	 D(3,4,5,6)       =        -0.003942	      -0.225874
	 D(3,4,5,11)      =         3.126699	     179.146646
	 D(4,3,2,8)       =         3.095744	     177.373058
	 D(4,5,6,12)      =         3.095744	     177.373055
	 D(5,4,3,9)       =         3.126699	     179.146646
	 D(5,6,1,7)       =         3.137687	     179.776197
	 D(6,1,2,8)       =        -3.091437	    -177.126287
	 D(6,1,7,13)      =         0.636426	      36.464508
	 D(6,1,7,14)      =        -2.505167	    -143.535492
	 D(6,5,4,10)      =         3.137650	     179.774126
	 D(7,1,2,8)       =         0.050156	       2.873714
	 D(7,1,6,12)      =         0.050156	       2.873716
	 D(8,2,3,9)       =        -0.034950	      -2.002503
	 D(9,3,4,10)      =        -0.014894	      -0.853354
	 D(10,4,5,11)     =        -0.014894	      -0.853354
	 D(11,5,6,12)     =        -0.034950	      -2.002504
	 D(13,7,14,15)    =         0.109428	       6.269770
	 D(13,7,14,16)    =        -2.953748	    -169.237319
	 D(14,7,13,17)    =         0.872665	      50.000014
	 D(14,7,13,18)    =        -2.347345	    -134.492977

	Current energy   :      -381.4548321059

	Generating empirical Hessian (Schlegel '84) for each fragment.
	Taking RFO optimization step.
	Going to follow RFO solution 1.
	Using RFO vector 1.

	Determining step-restricting scale parameter for RS-RFO.
	Maximum step size allowed    0.50000

	 Iter      |step|        alpha        rfo_root  
	------------------------------------------------
	    0     0.55407       1.00000           1
	    1     0.50739       1.35027           1
	    2     0.50017       1.41432           1
	    3     0.50000       1.41588           1
	------------------------------------------------
	Norm of target step-size    0.50000
	Projected energy change by RFO approximation:        -0.0089853835

	Back-transformation to cartesian coordinates...
	Could not converge backtransformation.
	Using first guess instead.

	Back-transformation to cartesian coordinates to adjust frozen coordinates...
	Successfully converged to displaced geometry.

	--- Internal Coordinate Step in ANG or DEG, aJ/ANG or AJ/DEG ---
	 ---------------------------------------------------------------------------
	   Coordinate                Previous        Force       Change         New 
	   ----------                --------       ------       ------       ------
	    1 R(1,2)          =      1.407502     0.027678     0.004754     1.412257
	    2 R(1,6)          =      1.407503     0.002181     0.000916     1.408419
	    3 R(1,7)          =      1.466870    -0.033649    -0.005723     1.461147
	    4 R(2,3)          =      1.391302    -0.010683    -0.000935     1.390367
	    5 R(2,8)          =      1.086388     0.001214     0.000480     1.086868
	    6 R(3,4)          =      1.398294     0.010497     0.001823     1.400117
	    7 R(3,9)          =      1.085142     0.000633     0.000842     1.085984
	    8 R(4,5)          =      1.398294     0.008596     0.002218     1.400512
	    9 R(4,10)         =      1.085649     0.000689     0.000444     1.086093
	   10 R(5,6)          =      1.391302    -0.004268    -0.000071     1.391231
	   11 R(5,11)         =      1.085142    -0.000030     0.000389     1.085531
	   12 R(6,12)         =      1.086386    -0.005492     0.000870     1.087256
	   13 R(7,13)         =      1.330061     0.171587     0.022694     1.352756
	   14 R(7,14)         =      1.330061    -0.037403    -0.003650     1.326411
	   15 R(13,17)        =      1.011575     0.017205     0.003522     1.015097
	   16 R(13,18)        =      1.013295    -0.015872     0.030857     1.044152
	   17 R(14,15)        =      1.013296     0.008459     0.001989     1.015285
	   18 R(14,16)        =      1.011575     0.015411     0.002454     1.014029
	   19 B(1,2,3)        =    119.655376     0.000022     0.103584   119.758960
	   20 B(1,2,8)        =    120.515689    -0.000015    -0.048369   120.467321
	   21 B(1,6,5)        =    119.655315    -0.000031    -0.149071   119.506244
	   22 B(1,6,12)       =    120.515729    -0.000089    -0.367721   120.148009
	   23 B(1,7,13)       =    119.935172     0.000428     1.064294   120.999466
	   24 B(1,7,14)       =    119.935135     0.000089     0.243090   120.178225
	   25 B(2,1,6)        =    120.161857     0.000003     0.043316   120.205173
	   26 B(2,1,7)        =    119.919082     0.000354     0.995410   120.914491
	   27 B(2,3,4)        =    120.050636    -0.000066    -0.233766   119.816870
	   28 B(2,3,9)        =    119.732108     0.000049     0.191206   119.923314
	   29 B(3,2,8)        =    119.756722    -0.000006    -0.044606   119.712116
	   30 B(3,4,5)        =    120.423859     0.000055     0.170963   120.594823
	   31 B(3,4,10)       =    119.788070    -0.000032    -0.122600   119.665470
	   32 B(4,3,9)        =    120.214297     0.000016     0.040836   120.255133
	   33 B(4,5,6)        =    120.050677     0.000017     0.056485   120.107163
	   34 B(4,5,11)       =    120.214297    -0.000007     0.010735   120.225032
	   35 B(5,4,10)       =    119.788070    -0.000023    -0.049331   119.738739
	   36 B(5,6,12)       =    119.756743     0.000121     0.538723   120.295466
	   37 B(6,1,7)        =    119.919061    -0.000356    -1.038732   118.880329
	   38 B(6,5,11)       =    119.732067    -0.000009    -0.064495   119.667571
	   39 B(7,13,17)      =    119.886309     0.000499     1.773640   121.659949
	   40 B(7,13,18)      =    122.891435    -0.000535    -2.814490   120.076944
	   41 B(7,14,15)      =    122.891405    -0.000267    -1.168283   121.723122
	   42 B(7,14,16)      =    119.886393     0.000145     0.604160   120.490553
	   43 B(13,7,14)      =    120.129694    -0.000518    -1.672008   118.457685
	   44 B(15,14,16)     =    117.078146     0.000115     0.395340   117.473486
	   45 B(17,13,18)     =    117.078195    -0.000003    -0.760139   116.318056
	   46 D(1,2,3,4)      =      0.446825    -0.000003    -0.289273     0.157552
	   47 D(1,2,3,9)      =   -178.928735    -0.000001    -0.128555  -179.057290
	   48 D(1,6,5,4)      =      0.446822     0.000006     0.577552     1.024374
	   49 D(1,6,5,11)     =   -178.928737     0.000001     0.128871  -178.799866
	   50 *D(1,7,13,17)   =   -129.999986     0.000000     0.000000  -129.999986
	   51 D(1,7,13,18)    =     45.507023    -0.000140   -11.961850    33.545172
	   52 D(1,7,14,15)    =   -173.730230    -0.000021    -2.325893  -176.056123
	   53 D(1,7,14,16)    =     10.762681     0.000001    -0.232532    10.530149
	   54 D(2,1,6,5)      =     -0.223802    -0.000010    -1.014664    -1.238466
	   55 D(2,1,6,12)     =   -177.126283    -0.000016    -1.541207  -178.667489
	   56 D(2,1,7,13)     =   -143.535494    -0.000062    -7.311190  -150.846683
	   57 D(2,1,7,14)     =     36.464506     0.000007    -0.271976    36.192530
	   58 D(2,3,4,5)      =     -0.225875    -0.000001    -0.147283    -0.373159
	   59 D(2,3,4,10)     =    179.774125     0.000002     0.211520   179.985645
	   60 D(3,2,1,6)      =     -0.223806     0.000008     0.871320     0.647514
	   61 D(3,2,1,7)      =    179.776196     0.000008     0.901082   180.677278
	   62 D(3,4,5,6)      =     -0.225874    -0.000000     0.000873    -0.225002
	   63 D(3,4,5,11)     =    179.146646     0.000004     0.451605   179.598251
	   64 D(4,3,2,8)      =    177.373058    -0.000001    -0.056081   177.316976
	   65 D(4,5,6,12)     =    177.373055     0.000010     1.076483   178.449538
	   66 D(5,4,3,9)      =    179.146646    -0.000003    -0.307603   178.839044
	   67 D(5,6,1,7)      =    179.776197    -0.000010    -1.043825   178.732372
	   68 D(6,1,2,8)      =   -177.126287     0.000006     0.636173  -176.490114
	   69 D(6,1,7,13)     =     36.464508    -0.000062    -7.281815    29.182693
	   70 D(6,1,7,14)     =   -143.535492     0.000007    -0.242601  -143.778093
	   71 D(6,5,4,10)     =    179.774126    -0.000004    -0.358192   179.415933
	   72 D(7,1,2,8)      =      2.873714     0.000006     0.665935     3.539650
	   73 D(7,1,6,12)     =      2.873716    -0.000016    -1.570367     1.303348
	   74 D(8,2,3,9)      =     -2.002503     0.000001     0.104637    -1.897866
	   75 D(9,3,4,10)     =     -0.853354     0.000000     0.051201    -0.802153
	   76 D(10,4,5,11)    =     -0.853354     0.000001     0.092539    -0.760814
	   77 D(11,5,6,12)    =     -2.002504     0.000006     0.627802    -1.374702
	   78 D(13,7,14,15)   =      6.269770     0.000047     4.536339    10.806109
	   79 D(13,7,14,16)   =   -169.237319     0.000070     6.629699  -162.607620
	   80 D(14,7,13,17)   =     50.000014    -0.000069    -6.920908    43.079106
	   81 D(14,7,13,18)   =   -134.492977    -0.000209   -18.882758  -153.375736
	 ---------------------------------------------------------------------------
	Successfully symmetrized geometry.

  ==> Convergence Check <==

  Measures of convergence in internal coordinates in au.
  Criteria marked as inactive (o), active & met (*), and active & unmet ( ).
  --------------------------------------------------------------------------------------------- ~
   Step     Total Energy     Delta E     MAX Force     RMS Force      MAX Disp      RMS Disp    ~
  --------------------------------------------------------------------------------------------- ~
    Convergence Criteria    1.00e-06 *    3.00e-04 *             o    1.20e-03 *             o  ~
  --------------------------------------------------------------------------------------------- ~
      1    -381.45483211   -3.81e+02      2.08e-02      3.54e-03 o    3.30e-01      5.40e-02 o  ~
  ---------------------------------------------------------------------------------------------

	Writing optimization data to binary file.
	Structure for next step:
	Cartesian Geometry (in Angstrom)
	    C    -0.0331406173   0.0434648542  -0.1795253580
	    C     0.0446119513   1.2526302468   0.5459692623
	    C     0.0663137121   1.2233296846   1.9358582133
	    C     0.0143167462  -0.0042326358   2.6072103120
	    C    -0.0673404060  -1.2052414812   1.8914276719
	    C    -0.1023141368  -1.1878313458   0.5007453481
	    C    -0.0427555301   0.0439868691  -1.6406406553
	    H     0.0408767608   2.2077367020   0.0272793934
	    H     0.1105933484   2.1522499669   2.4966689575
	    H     0.0316537656  -0.0242675433   3.6929804032
	    H    -0.1007673336  -2.1539676172   2.4179048803
	    H    -0.1403140714  -2.1193648901  -0.0586539479
	    N    -0.6721660488  -0.9325556600  -2.3335726516
	    N     0.6844395732   0.9271422935  -2.3119003197
	    H     0.6501572492   0.9872707148  -3.3248228714
	    H     1.3698987386   1.5000958127  -1.8321873529
	    H    -0.2115125084  -1.4327171197  -3.0872693723
	    H    -1.5409911929  -1.3682148517  -1.9519999129
			--------------------------
			 OPTKING Finished Execution 
			--------------------------

    Structure for next step:
    Molecular point group: c1
    Full point group: C1

    Geometry (in Angstrom), charge = 1, multiplicity = 1:

    C           -0.033140617296     0.043464854204    -0.179525358033
    C            0.044611951297     1.252630246846     0.545969262254
    C            0.066313712108     1.223329684615     1.935858213311
    C            0.014316746164    -0.004232635785     2.607210311967
    C           -0.067340405992    -1.205241481213     1.891427671917
    C           -0.102314136842    -1.187831345769     0.500745348145
    C           -0.042755530116     0.043986869131    -1.640640655286
    H            0.040876760818     2.207736702010     0.027279393404
    H            0.110593348379     2.152249966858     2.496668957459
    H            0.031653765629    -0.024267543328     3.692980403224
    H           -0.100767333621    -2.153967617231     2.417904880350
    H           -0.140314071352    -2.119364890117    -0.058653947866
    N           -0.672166048826    -0.932555659973    -2.333572651636
    N            0.684439573179     0.927142293535    -2.311900319724
    H            0.650157249198     0.987270714847    -3.324822871393
    H            1.369898738616     1.500095812712    -1.832187352904
    H           -0.211512508400    -1.432717119655    -3.087269372298
    H           -1.540991192946    -1.368214851687    -1.951999912891

gradient() will perform analytic gradient computation.

*** tstart() called on green.prib.upf.edu
*** at Sat Sep 29 20:25:16 2018

   => Loading Basis Set <=

    Name: 6-31G*
    Role: ORBITAL
    Keyword: BASIS
    atoms 1-7         entry C          line   111 file /shared/joao/test_parameterize/miniconda3/share/psi4/basis/6-31gs.gbs 
    atoms 8-12, 15-18 entry H          line    44 file /shared/joao/test_parameterize/miniconda3/share/psi4/basis/6-31gs.gbs 
    atoms 13-14       entry N          line   128 file /shared/joao/test_parameterize/miniconda3/share/psi4/basis/6-31gs.gbs 


         ---------------------------------------------------------
                                   SCF
            by Justin Turney, Rob Parrish, Andy Simmonett
                             and Daniel Smith
                              RKS Reference
                        4 Threads,   2861 MiB Core
         ---------------------------------------------------------

  ==> Geometry <==

    Molecular point group: c1
    Full point group: C1

    Geometry (in Angstrom), charge = 1, multiplicity = 1:

       Center              X                  Y                   Z               Mass       
    ------------   -----------------  -----------------  -----------------  -----------------
         C           -0.033140617296     0.043464854204    -0.179525358033    12.000000000000
         C            0.044611951297     1.252630246846     0.545969262254    12.000000000000
         C            0.066313712108     1.223329684615     1.935858213311    12.000000000000
         C            0.014316746164    -0.004232635785     2.607210311967    12.000000000000
         C           -0.067340405992    -1.205241481213     1.891427671917    12.000000000000
         C           -0.102314136842    -1.187831345769     0.500745348145    12.000000000000
         C           -0.042755530116     0.043986869131    -1.640640655286    12.000000000000
         H            0.040876760818     2.207736702010     0.027279393404     1.007825032070
         H            0.110593348379     2.152249966858     2.496668957459     1.007825032070
         H            0.031653765629    -0.024267543328     3.692980403224     1.007825032070
         H           -0.100767333621    -2.153967617231     2.417904880350     1.007825032070
         H           -0.140314071352    -2.119364890117    -0.058653947866     1.007825032070
         N           -0.672166048826    -0.932555659973    -2.333572651636    14.003074004780
         N            0.684439573179     0.927142293535    -2.311900319724    14.003074004780
         H            0.650157249198     0.987270714847    -3.324822871393     1.007825032070
         H            1.369898738616     1.500095812712    -1.832187352904     1.007825032070
         H           -0.211512508400    -1.432717119655    -3.087269372298     1.007825032070
         H           -1.540991192946    -1.368214851687    -1.951999912891     1.007825032070

  Running in c1 symmetry.

  Rotational constants: A =      0.12097  B =      0.03968  C =      0.03110 [cm^-1]
  Rotational constants: A =   3626.57023  B =   1189.70175  C =    932.28096 [MHz]
  Nuclear repulsion =  416.119879791312883

  Charge       = 1
  Multiplicity = 1
  Electrons    = 64
  Nalpha       = 32
  Nbeta        = 32

  ==> Algorithm <==

  SCF Algorithm Type is DF.
  DIIS enabled.
  MOM disabled.
  Fractional occupation disabled.
  Guess Type is READ.
  Energy threshold   = 1.00e-08
  Density threshold  = 1.00e-08
  Integral threshold = 0.00e+00

  ==> Primary Basis <==

  Basis Set: 6-31G*
    Blend: 6-31G*
    Number of shells: 72
    Number of basis function: 153
    Number of Cartesian functions: 153
    Spherical Harmonics?: false
    Max angular momentum: 2

  ==> DFT Potential <==

   => Composite Functional: B3LYP-D3ZERO <= 

    B3LYP-d3zero Hyb-GGA Exchange-Correlation Functional

    P. J. Stephens, F. J. Devlin, C. F. Chabalowski, and M. J. Frisch, J. Phys. Chem. 98, 11623 (1994)

    Deriv               =              1
    GGA                 =           TRUE
    Meta                =          FALSE

    Exchange Hybrid     =           TRUE
    MP2 Hybrid          =          FALSE

   => Exchange Functionals <=

    0.0800   Slater exchange
    0.7200         Becke 88

   => Exact (HF) Exchange <=

    0.2000               HF 

   => Correlation Functionals <=

    0.1900   Vosko, Wilk & Nusair (VWN5_RPA)
    0.8100   Lee, Yang & Parr

   => Molecular Quadrature <=

    Radial Scheme       =       TREUTLER
    Pruning Scheme      =           FLAT
    Nuclear Scheme      =       TREUTLER

    BS radius alpha     =              1
    Pruning alpha       =              1
    Radial Points       =             75
    Spherical Points    =            302
    Total Points        =         397020
    Total Blocks        =           3005
    Max Points          =            256
    Max Functions       =            149

   => -D3ZERO: Empirical Dispersion <=

    Grimme's -D3 (zero-damping) Dispersion Correction
    Grimme S.; Antony J.; Ehrlich S.; Krieg H. (2010), J. Chem. Phys., 132: 154104

        S6 =   1.000000E+00
        S8 =   1.703000E+00
       SR6 =   1.261000E+00
       SR8 =   1.000000E+00
    ALPHA6 =   1.400000E+01

   => Loading Basis Set <=

    Name: (6-31G* AUX)
    Role: JKFIT
    Keyword: DF_BASIS_SCF
    atoms 1-7         entry C          line   121 file /shared/joao/test_parameterize/miniconda3/share/psi4/basis/cc-pvdz-jkfit.gbs 
    atoms 8-12, 15-18 entry H          line    51 file /shared/joao/test_parameterize/miniconda3/share/psi4/basis/cc-pvdz-jkfit.gbs 
    atoms 13-14       entry N          line   171 file /shared/joao/test_parameterize/miniconda3/share/psi4/basis/cc-pvdz-jkfit.gbs 

  Reading orbitals from file 180, no projection.

  ==> Pre-Iterations <==

   -------------------------------------------------------
    Irrep   Nso     Nmo     Nalpha   Nbeta   Ndocc  Nsocc
   -------------------------------------------------------
     A        153     153       0       0       0       0
   -------------------------------------------------------
    Total     153     153      32      32      32       0
   -------------------------------------------------------

  ==> Integral Setup <==

  ==> DiskDFJK: Density-Fitted J/K Matrices <==

    J tasked:                  Yes
    K tasked:                  Yes
    wK tasked:                  No
    OpenMP threads:              4
    Integrals threads:           4
    Memory (MB):              2002
    Algorithm:                Core
    Integral Cache:           NONE
    Schwarz Cutoff:          1E-12
    Fitting Condition:       1E-12

   => Auxiliary Basis Set <=

  Basis Set: (6-31G* AUX)
    Blend: CC-PVDZ-JKFIT
    Number of shells: 297
    Number of basis function: 954
    Number of Cartesian functions: 954
    Spherical Harmonics?: false
    Max angular momentum: 3

  Minimum eigenvalue in the overlap matrix is 4.9103434358E-04.
  Using Symmetric Orthogonalization.

  SCF Guess: Orbitals guess was supplied from a previous computation.

  ==> Iterations <==

                           Total Energy        Delta E     RMS |[F,P]|

   @DF-RKS iter   0:  -381.41442832738568   -3.81414e+02   2.24855e-03 
   @DF-RKS iter   1:  -381.45994838550337   -4.55201e-02   3.53775e-04 
   @DF-RKS iter   2:  -381.45968801585639    2.60370e-04   5.12646e-04 DIIS
   @DF-RKS iter   3:  -381.46042720565015   -7.39190e-04   8.97433e-05 DIIS
   @DF-RKS iter   4:  -381.46044465313980   -1.74475e-05   4.75256e-05 DIIS
   @DF-RKS iter   5:  -381.46045086822835   -6.21509e-06   1.23911e-05 DIIS
   @DF-RKS iter   6:  -381.46045128011713   -4.11889e-07   5.00540e-06 DIIS
   @DF-RKS iter   7:  -381.46045135227860   -7.21615e-08   1.37460e-06 DIIS
   @DF-RKS iter   8:  -381.46045135744600   -5.16741e-09   4.18689e-07 DIIS
   @DF-RKS iter   9:  -381.46045135798704   -5.41036e-10   1.31587e-07 DIIS
   @DF-RKS iter  10:  -381.46045135803240   -4.53610e-11   5.25633e-08 DIIS
   @DF-RKS iter  11:  -381.46045135804064   -8.24230e-12   1.62649e-08 DIIS
   @DF-RKS iter  12:  -381.46045135804189   -1.25056e-12   3.44060e-09 DIIS

  ==> Post-Iterations <==

    Orbital Energies [Eh]
    ---------------------

    Doubly Occupied:                                                      

       1A    -14.571539     2A    -14.555612     3A    -10.495042  
       4A    -10.373113     5A    -10.358570     6A    -10.358122  
       7A    -10.347543     8A    -10.342837     9A    -10.342391  
      10A     -1.176301    11A     -1.080906    12A     -1.014912  
      13A     -0.926039    14A     -0.903795    15A     -0.840991  
      16A     -0.779219    17A     -0.769548    18A     -0.738202  
      19A     -0.727829    20A     -0.688837    21A     -0.670864  
      22A     -0.628084    23A     -0.609584    24A     -0.583520  
      25A     -0.579644    26A     -0.563532    27A     -0.518909  
      28A     -0.507537    29A     -0.499459    30A     -0.466309  
      31A     -0.414887    32A     -0.407597  

    Virtual:                                                              

      33A     -0.232535    34A     -0.157779    35A     -0.131592  
      36A     -0.102906    37A     -0.073371    38A     -0.053221  
      39A     -0.038332    40A     -0.027059    41A      0.005934  
      42A      0.011640    43A      0.020637    44A      0.052375  
      45A      0.059555    46A      0.087100    47A      0.127327  
      48A      0.133874    49A      0.155708    50A      0.158245  
      51A      0.207841    52A      0.236553    53A      0.297604  
      54A      0.353329    55A      0.360700    56A      0.379099  
      57A      0.390014    58A      0.397432    59A      0.417766  
      60A      0.420056    61A      0.440035    62A      0.447790  
      63A      0.452864    64A      0.469375    65A      0.472978  
      66A      0.477786    67A      0.487798    68A      0.517042  
      69A      0.523101    70A      0.532325    71A      0.555448  
      72A      0.583556    73A      0.611257    74A      0.654796  
      75A      0.672901    76A      0.683371    77A      0.697898  
      78A      0.698341    79A      0.711263    80A      0.713772  
      81A      0.724025    82A      0.757941    83A      0.772442  
      84A      0.778252    85A      0.806265    86A      0.815678  
      87A      0.854987    88A      0.930349    89A      0.942108  
      90A      0.978691    91A      0.992538    92A      1.023354  
      93A      1.063707    94A      1.078130    95A      1.116154  
      96A      1.141350    97A      1.219215    98A      1.274213  
      99A      1.275281   100A      1.304727   101A      1.315180  
     102A      1.340077   103A      1.353852   104A      1.361894  
     105A      1.448666   106A      1.474333   107A      1.553890  
     108A      1.582551   109A      1.625268   110A      1.657525  
     111A      1.663254   112A      1.736205   113A      1.748755  
     114A      1.799432   115A      1.811720   116A      1.827732  
     117A      1.893542   118A      1.908434   119A      1.947294  
     120A      1.974942   121A      1.985077   122A      1.998423  
     123A      2.024987   124A      2.040303   125A      2.119135  
     126A      2.130507   127A      2.151968   128A      2.190369  
     129A      2.231858   130A      2.320637   131A      2.343264  
     132A      2.368260   133A      2.443668   134A      2.450768  
     135A      2.483873   136A      2.505038   137A      2.542073  
     138A      2.584586   139A      2.596700   140A      2.626479  
     141A      2.732176   142A      2.840292   143A      2.981624  
     144A      3.253261   145A      3.628392   146A      3.655077  
     147A      3.908873   148A      3.943473   149A      3.961690  
     150A      4.044644   151A      4.170474   152A      4.254027  
     153A      4.544361  

    Final Occupation by Irrep:
              A 
    DOCC [    32 ]

  Energy converged.

  @DF-RKS Final Energy:  -381.46045135804189

   => Energetics <=

    Nuclear Repulsion Energy =            416.1198797913128828
    One-Electron Energy =               -1327.5456114029880155
    Two-Electron Energy =                 574.3606030266340667
    DFT Exchange-Correlation Energy =     -44.3833073330007934
    Empirical Dispersion Energy =          -0.0120154400000000
    VV10 Nonlocal Energy =                  0.0000000000000000
    Total Energy =                       -381.4604513580418939



Properties will be evaluated at   0.000000,   0.000000,   0.000000 [a0]

Properties computed using the SCF density matrix

  Nuclear Dipole Moment: [e a0]
     X:    -0.8057      Y:     1.3371      Z:    -0.3253

  Electronic Dipole Moment: [e a0]
     X:     1.0168      Y:    -1.4155      Z:    -1.7038

  Dipole Moment: [e a0]
     X:     0.2111      Y:    -0.0784      Z:    -2.0291     Total:     2.0416

  Dipole Moment: [D]
     X:     0.5366      Y:    -0.1992      Z:    -5.1575     Total:     5.1891


*** tstop() called on green.prib.upf.edu at Sat Sep 29 20:25:40 2018
Module time:
	user time   =      90.31 seconds =       1.51 minutes
	system time =       0.71 seconds =       0.01 minutes
	total time  =         24 seconds =       0.40 minutes
Total time:
	user time   =     226.73 seconds =       3.78 minutes
	system time =       1.43 seconds =       0.02 minutes
	total time  =         61 seconds =       1.02 minutes

*** tstart() called on green.prib.upf.edu
*** at Sat Sep 29 20:25:40 2018


         ------------------------------------------------------------
                                   SCF GRAD                          
                          Rob Parrish, Justin Turney,                
                       Andy Simmonett, and Alex Sokolov              
         ------------------------------------------------------------

  ==> Geometry <==

    Molecular point group: c1
    Full point group: C1

    Geometry (in Angstrom), charge = 1, multiplicity = 1:

       Center              X                  Y                   Z               Mass       
    ------------   -----------------  -----------------  -----------------  -----------------
         C           -0.033140617296     0.043464854204    -0.179525358033    12.000000000000
         C            0.044611951297     1.252630246846     0.545969262254    12.000000000000
         C            0.066313712108     1.223329684615     1.935858213311    12.000000000000
         C            0.014316746164    -0.004232635785     2.607210311967    12.000000000000
         C           -0.067340405992    -1.205241481213     1.891427671917    12.000000000000
         C           -0.102314136842    -1.187831345769     0.500745348145    12.000000000000
         C           -0.042755530116     0.043986869131    -1.640640655286    12.000000000000
         H            0.040876760818     2.207736702010     0.027279393404     1.007825032070
         H            0.110593348379     2.152249966858     2.496668957459     1.007825032070
         H            0.031653765629    -0.024267543328     3.692980403224     1.007825032070
         H           -0.100767333621    -2.153967617231     2.417904880350     1.007825032070
         H           -0.140314071352    -2.119364890117    -0.058653947866     1.007825032070
         N           -0.672166048826    -0.932555659973    -2.333572651636    14.003074004780
         N            0.684439573179     0.927142293535    -2.311900319724    14.003074004780
         H            0.650157249198     0.987270714847    -3.324822871393     1.007825032070
         H            1.369898738616     1.500095812712    -1.832187352904     1.007825032070
         H           -0.211512508400    -1.432717119655    -3.087269372298     1.007825032070
         H           -1.540991192946    -1.368214851687    -1.951999912891     1.007825032070

  Nuclear repulsion =  416.119879791312883

  ==> Basis Set <==

  Basis Set: 6-31G*
    Blend: 6-31G*
    Number of shells: 72
    Number of basis function: 153
    Number of Cartesian functions: 153
    Spherical Harmonics?: false
    Max angular momentum: 2

  ==> DFJKGrad: Density-Fitted SCF Gradients <==

    Gradient:                    1
    J tasked:                  Yes
    K tasked:                  Yes
    wK tasked:                  No
    OpenMP threads:              4
    Integrals threads:           4
    Memory (MB):              2002
    Schwarz Cutoff:          0E+00
    Fitting Condition:       1E-12

   => Auxiliary Basis Set <=

  Basis Set: (6-31G* AUX)
    Blend: CC-PVDZ-JKFIT
    Number of shells: 297
    Number of basis function: 954
    Number of Cartesian functions: 954
    Spherical Harmonics?: false
    Max angular momentum: 3

  ==> DFT Potential <==

   => Composite Functional: B3LYP-D3ZERO <= 

    B3LYP-d3zero Hyb-GGA Exchange-Correlation Functional

    P. J. Stephens, F. J. Devlin, C. F. Chabalowski, and M. J. Frisch, J. Phys. Chem. 98, 11623 (1994)

    Deriv               =              1
    GGA                 =           TRUE
    Meta                =          FALSE

    Exchange Hybrid     =           TRUE
    MP2 Hybrid          =          FALSE

   => Exchange Functionals <=

    0.0800   Slater exchange
    0.7200         Becke 88

   => Exact (HF) Exchange <=

    0.2000               HF 

   => Correlation Functionals <=

    0.1900   Vosko, Wilk & Nusair (VWN5_RPA)
    0.8100   Lee, Yang & Parr

   => Molecular Quadrature <=

    Radial Scheme       =       TREUTLER
    Pruning Scheme      =           FLAT
    Nuclear Scheme      =       TREUTLER

    BS radius alpha     =              1
    Pruning alpha       =              1
    Radial Points       =             75
    Spherical Points    =            302
    Total Points        =         397020
    Total Blocks        =           3005
    Max Points          =            256
    Max Functions       =            149


  -Total Gradient:
     Atom            X                  Y                   Z
    ------   -----------------  -----------------  -----------------
       1        0.009688035267    -0.006870344691     0.001696325195
       2       -0.000197942113     0.000725554726     0.000015343814
       3       -0.000470398582     0.000152780033     0.000828288702
       4        0.000217190280     0.000976349086     0.000535433163
       5        0.000011034991    -0.000321981298    -0.000256507279
       6        0.000347217126     0.000604505939    -0.001387840697
       7       -0.006554168339     0.013752220389    -0.000966379112
       8        0.000173814399     0.000312379186     0.000320970765
       9       -0.000004013841     0.000573564983     0.000294769316
      10       -0.000055008471     0.000143990839     0.000231367602
      11       -0.000097679047    -0.000361979686    -0.000122628916
      12       -0.000185214093    -0.001101544072    -0.001157258788
      13        0.019796920557     0.006221943584    -0.012067099434
      14       -0.003269668126     0.000212447795     0.002270077354
      15        0.000821315517    -0.000211585264    -0.000986425768
      16        0.000932266186     0.000242154254     0.000539366840
      17        0.004417889489    -0.007552349743     0.005298155381
      18       -0.025568960677    -0.007504867874     0.004897428535


*** tstop() called on green.prib.upf.edu at Sat Sep 29 20:25:47 2018
Module time:
	user time   =      27.39 seconds =       0.46 minutes
	system time =       0.22 seconds =       0.00 minutes
	total time  =          7 seconds =       0.12 minutes
Total time:
	user time   =     254.18 seconds =       4.24 minutes
	system time =       1.65 seconds =       0.03 minutes
	total time  =         68 seconds =       1.13 minutes

			-----------------------------------------
			 OPTKING 2.0: for geometry optimizations 
			  - R.A. King,  Bethel University        
			-----------------------------------------
	At level 1: Red. Int., RFO, no backsteps, dynamic trust

	Previous internal coordinate definitions found.
	---Fragment 1 Geometry and Gradient---
	 C          -0.0626266906        0.0821366709       -0.3392537606
	 C           0.0843043702        2.3671281123        1.0317323826
	 C           0.1253147547        2.3117580742        3.6582418553
	 C           0.0270547294       -0.0079985225        4.9269134605
	 C          -0.1272549250       -2.2775763235        3.5742803001
	 C          -0.1933456982       -2.2446759356        0.9462715703
	 C          -0.0807962426        0.0831231361       -3.1003615210
	 H           0.0772458831        4.1720177403        0.0515505826
	 H           0.2089911406        4.0671630069        4.7180205741
	 H           0.0598169481       -0.0458590108        6.9787215762
	 H          -0.1904226637       -4.0704088957        4.5691780392
	 H          -0.2651551674       -4.0050192180       -0.1108398981
	 N          -1.2702097481       -1.7622748010       -4.4098132228
	 N           1.2934033478        1.7520450210       -4.3688584508
	 H           1.2286191443        1.8656712701       -6.2830046673
	 H           2.5887334458        2.8347702591       -3.4623323211
	 H          -0.3997007146       -2.7074429820       -5.8340936121
	 H          -2.9120513279       -2.5855513606       -3.6887452468
	             0.0096880353       -0.0068703447        0.0016963252
	            -0.0001979421        0.0007255547        0.0000153438
	            -0.0004703986        0.0001527800        0.0008282887
	             0.0002171903        0.0009763491        0.0005354332
	             0.0000110350       -0.0003219813       -0.0002565073
	             0.0003472171        0.0006045059       -0.0013878407
	            -0.0065541683        0.0137522204       -0.0009663791
	             0.0001738144        0.0003123792        0.0003209708
	            -0.0000040138        0.0005735650        0.0002947693
	            -0.0000550085        0.0001439908        0.0002313676
	            -0.0000976790       -0.0003619797       -0.0001226289
	            -0.0001852141       -0.0011015441       -0.0011572588
	             0.0197969206        0.0062219436       -0.0120670994
	            -0.0032696681        0.0002124478        0.0022700774
	             0.0008213155       -0.0002115853       -0.0009864258
	             0.0009322662        0.0002421543        0.0005393668
	             0.0044178895       -0.0075523497        0.0052981554
	            -0.0255689607       -0.0075048679        0.0048974285

	---Fragment 1 Intrafragment Coordinates---
	 - Coordinate -           - BOHR/RAD -       - ANG/DEG -
	 R(1,2)           =         2.668778	       1.412257
	 R(1,6)           =         2.661526	       1.408419
	 R(1,7)           =         2.761168	       1.461147
	 R(2,3)           =         2.627413	       1.390367
	 R(2,8)           =         2.053882	       1.086868
	 R(3,4)           =         2.645837	       1.400117
	 R(3,9)           =         2.052213	       1.085984
	 R(4,5)           =         2.646585	       1.400512
	 R(4,10)          =         2.052419	       1.086093
	 R(5,6)           =         2.629046	       1.391231
	 R(5,11)          =         2.051356	       1.085531
	 R(6,12)          =         2.054617	       1.087256
	 R(7,13)          =         2.556338	       1.352756
	 R(7,14)          =         2.506553	       1.326411
	 R(13,17)         =         1.918255	       1.015097
	 R(13,18)         =         1.973162	       1.044152
	 R(14,15)         =         1.918610	       1.015285
	 R(14,16)         =         1.916237	       1.014029
	 B(1,2,3)         =         2.090188	     119.758960
	 B(1,2,8)         =         2.102551	     120.467321
	 B(1,6,5)         =         2.085777	     119.506244
	 B(1,6,12)        =         2.096978	     120.148009
	 B(1,7,13)        =         2.111839	     120.999466
	 B(1,7,14)        =         2.097506	     120.178225
	 B(2,1,6)         =         2.097976	     120.205173
	 B(2,1,7)         =         2.110356	     120.914491
	 B(2,3,4)         =         2.091199	     119.816870
	 B(2,3,9)         =         2.093057	     119.923314
	 B(3,2,8)         =         2.089371	     119.712116
	 B(3,4,5)         =         2.104777	     120.594823
	 B(3,4,10)        =         2.088556	     119.665470
	 B(4,3,9)         =         2.098848	     120.255133
	 B(4,5,6)         =         2.096265	     120.107163
	 B(4,5,11)        =         2.098323	     120.225032
	 B(5,4,10)        =         2.089835	     119.738739
	 B(5,6,12)        =         2.099552	     120.295466
	 B(6,1,7)         =         2.074853	     118.880329
	 B(6,5,11)        =         2.088593	     119.667571
	 B(7,13,17)       =         2.123367	     121.659949
	 B(7,13,18)       =         2.095738	     120.076944
	 B(7,14,15)       =         2.124469	     121.723122
	 B(7,14,16)       =         2.102957	     120.490553
	 B(13,7,14)       =         2.067477	     118.457685
	 B(15,14,16)      =         2.050299	     117.473486
	 B(17,13,18)      =         2.030133	     116.318056
	 D(1,2,3,4)       =         0.002750	       0.157552
	 D(1,2,3,9)       =        -3.125139	    -179.057290
	 D(1,6,5,4)       =         0.017879	       1.024374
	 D(1,6,5,11)      =        -3.120646	    -178.799866
	*D(1,7,13,17)     =        -2.268928	    -129.999986
	 D(1,7,13,18)     =         0.585474	      33.545172
	 D(1,7,14,15)     =        -3.072759	    -176.056123
	 D(1,7,14,16)     =         0.183786	      10.530149
	 D(2,1,6,5)       =        -0.021615	      -1.238466
	 D(2,1,6,12)      =        -3.118336	    -178.667489
	 D(2,1,7,13)      =        -2.632771	    -150.846683
	 D(2,1,7,14)      =         0.631679	      36.192530
	 D(2,3,4,5)       =        -0.006513	      -0.373159
	 D(2,3,4,10)      =         3.141342	     179.985645
	 D(3,2,1,6)       =         0.011301	       0.647514
	 D(3,2,1,7)       =        -3.129772	    -179.322722
	 D(3,4,5,6)       =        -0.003927	      -0.225002
	 D(3,4,5,11)      =         3.134581	     179.598251
	 D(4,3,2,8)       =         3.094765	     177.316976
	 D(4,5,6,12)      =         3.114532	     178.449538
	 D(5,4,3,9)       =         3.121330	     178.839044
	 D(5,6,1,7)       =         3.119468	     178.732372
	 D(6,1,2,8)       =        -3.080334	    -176.490114
	 D(6,1,7,13)      =         0.509334	      29.182693
	 D(6,1,7,14)      =        -2.509401	    -143.778093
	 D(6,5,4,10)      =         3.131399	     179.415933
	 D(7,1,2,8)       =         0.061779	       3.539650
	 D(7,1,6,12)      =         0.022748	       1.303348
	 D(8,2,3,9)       =        -0.033124	      -1.897866
	 D(9,3,4,10)      =        -0.014000	      -0.802153
	 D(10,4,5,11)     =        -0.013279	      -0.760814
	 D(11,5,6,12)     =        -0.023993	      -1.374702
	 D(13,7,14,15)    =         0.188602	      10.806109
	 D(13,7,14,16)    =        -2.838038	    -162.607620
	 D(14,7,13,17)    =         0.751872	      43.079106
	 D(14,7,13,18)    =        -2.676912	    -153.375736

	Current energy   :      -381.4604513580

	Energy change for the previous step:
		Projected    :        -0.0089853835
		Actual       :        -0.0056192521

	Performing BFGS update.
	Previous computed or guess Hessian on step 1.
	Steps to be used in Hessian update: 1
	Taking RFO optimization step.
	Going to follow RFO solution 1.
	Using RFO vector 1.
	Norm of target step-size    0.39237
	Projected energy change by RFO approximation:        -0.0055920645

	Back-transformation to cartesian coordinates...
	Could not converge backtransformation.
	Using first guess instead.

	Back-transformation to cartesian coordinates to adjust frozen coordinates...
	Successfully converged to displaced geometry.

	--- Internal Coordinate Step in ANG or DEG, aJ/ANG or AJ/DEG ---
	 ---------------------------------------------------------------------------
	   Coordinate                Previous        Force       Change         New 
	   ----------                --------       ------       ------       ------
	    1 R(1,2)          =      1.412257    -0.014982    -0.001140     1.411116
	    2 R(1,6)          =      1.408419     0.009713     0.001894     1.410313
	    3 R(1,7)          =      1.461147    -0.008835    -0.002447     1.458700
	    4 R(2,3)          =      1.390367    -0.007130    -0.001119     1.389248
	    5 R(2,8)          =      1.086868    -0.000993     0.000071     1.086939
	    6 R(3,4)          =      1.400117    -0.001505     0.000272     1.400389
	    7 R(3,9)          =      1.085984    -0.005301    -0.000505     1.085479
	    8 R(4,5)          =      1.400512    -0.014668    -0.001341     1.399172
	    9 R(4,10)         =      1.086093    -0.001884    -0.000221     1.085873
	   10 R(5,6)          =      1.391231    -0.005155    -0.000652     1.390579
	   11 R(5,11)         =      1.085531    -0.002142    -0.000209     1.085321
	   12 R(6,12)         =      1.087256    -0.012728    -0.002005     1.085251
	   13 R(7,13)         =      1.352756    -0.065621    -0.002873     1.349882
	   14 R(7,14)         =      1.326411     0.013125     0.001084     1.327495
	   15 R(13,17)        =      1.015097    -0.014754    -0.001383     1.013714
	   16 R(13,18)        =      1.044152    -0.215833     0.000763     1.044916
	   17 R(14,15)        =      1.015285    -0.007769    -0.000155     1.015130
	   18 R(14,16)        =      1.014029    -0.008425    -0.000731     1.013297
	   19 B(1,2,3)        =    119.758960     0.000008     0.040586   119.799546
	   20 B(1,2,8)        =    120.467321    -0.000038    -0.165222   120.302098
	   21 B(1,6,5)        =    119.506244     0.000041     0.119504   119.625748
	   22 B(1,6,12)       =    120.148009     0.000013     0.027147   120.175155
	   23 B(1,7,13)       =    120.999466     0.000268     1.086738   122.086204
	   24 B(1,7,14)       =    120.178225     0.000034     0.225013   120.403238
	   25 B(2,1,6)        =    120.205173    -0.000056    -0.146774   120.058398
	   26 B(2,1,7)        =    120.914491    -0.000168    -0.391755   120.522736
	   27 B(2,3,4)        =    119.816870     0.000037     0.053309   119.870179
	   28 B(2,3,9)        =    119.923314    -0.000015    -0.004264   119.919050
	   29 B(3,2,8)        =    119.712116     0.000031     0.139090   119.851206
	   30 B(3,4,5)        =    120.594823    -0.000003     0.013399   120.608221
	   31 B(3,4,10)       =    119.665470     0.000013     0.031909   119.697379
	   32 B(4,3,9)        =    120.255133    -0.000022    -0.050671   120.204462
	   33 B(4,5,6)        =    120.107163    -0.000027    -0.080942   120.026221
	   34 B(4,5,11)       =    120.225032    -0.000009    -0.051130   120.173901
	   35 B(5,4,10)       =    119.738739    -0.000010    -0.044571   119.694168
	   36 B(5,6,12)       =    120.295466    -0.000054    -0.161339   120.134127
	   37 B(6,1,7)        =    118.880329     0.000224     0.530627   119.410956
	   38 B(6,5,11)       =    119.667571     0.000036     0.130721   119.798292
	   39 B(7,13,17)      =    121.659949     0.000087    -0.315498   121.344451
	   40 B(7,13,18)      =    120.076944    -0.000248    -3.719135   116.357809
	   41 B(7,14,15)      =    121.723122    -0.000040    -0.299128   121.423994
	   42 B(7,14,16)      =    120.490553     0.000034     0.325324   120.815877
	   43 B(13,7,14)      =    118.457685    -0.000294    -1.119211   117.338474
	   44 B(15,14,16)     =    117.473486     0.000013     0.137046   117.610532
	   45 B(17,13,18)     =    116.318056     0.000044    -1.657993   114.660063
	   46 D(1,2,3,4)      =      0.157552    -0.000003    -0.377933    -0.220381
	   47 D(1,2,3,9)      =   -179.057290    -0.000002    -0.251292  -179.308582
	   48 D(1,6,5,4)      =      1.024374    -0.000001    -0.078828     0.945546
	   49 D(1,6,5,11)     =   -178.799866     0.000001     0.202744  -178.597122
	   50 *D(1,7,13,17)   =   -129.999986     0.000000    -0.000000  -129.999986
	   51 D(1,7,13,18)    =     33.545172    -0.000110   -15.658221    17.886951
	   52 D(1,7,14,15)    =   -176.056123     0.000023     2.753351  -173.302772
	   53 D(1,7,14,16)    =     10.530149     0.000006     0.719482    11.249631
	   54 D(2,1,6,5)      =     -1.238466    -0.000000    -0.102212    -1.340677
	   55 D(2,1,6,12)     =   -178.667489     0.000003     0.253792  -178.413697
	   56 D(2,1,7,13)     =   -150.846683    -0.000001    -0.849174  -151.695857
	   57 D(2,1,7,14)     =     36.192530    -0.000015    -2.992744    33.199787
	   58 D(2,3,4,5)      =     -0.373159     0.000001     0.197230    -0.175929
	   59 D(2,3,4,10)     =    179.985645     0.000000     0.014355   180.000000
	   60 D(3,2,1,6)      =      0.647514     0.000002     0.330683     0.978197
	   61 D(3,2,1,7)      =   -179.322722     0.000008     1.329977  -177.992745
	   62 D(3,4,5,6)      =     -0.225002     0.000000     0.033730    -0.191271
	   63 D(3,4,5,11)     =    179.598251    -0.000002    -0.248587   179.349664
	   64 D(4,3,2,8)      =    177.316976    -0.000000    -0.026803   177.290173
	   65 D(4,5,6,12)     =    178.449538    -0.000003    -0.429753   178.019785
	   66 D(5,4,3,9)      =    178.839044     0.000000     0.070596   178.909640
	   67 D(5,6,1,7)      =    178.732372    -0.000006    -1.090656   177.641716
	   68 D(6,1,2,8)      =   -176.490114    -0.000001    -0.030864  -176.520978
	   69 D(6,1,7,13)     =     29.182693     0.000005     0.143886    29.326579
	   70 D(6,1,7,14)     =   -143.778093    -0.000009    -1.999683  -145.777777
	   71 D(6,5,4,10)     =    179.415933     0.000002     0.217187   179.633121
	   72 D(7,1,2,8)      =      3.539650     0.000005     0.968430     4.508080
	   73 D(7,1,6,12)     =      1.303348    -0.000003    -0.734653     0.568695
	   74 D(8,2,3,9)      =     -1.897866     0.000000     0.099838    -1.798028
	   75 D(9,3,4,10)     =     -0.802153    -0.000001    -0.112594    -0.914747
	   76 D(10,4,5,11)    =     -0.760814    -0.000000    -0.065130    -0.825944
	   77 D(11,5,6,12)    =     -1.374702    -0.000001    -0.148181    -1.522884
	   78 D(13,7,14,15)   =     10.806109     0.000000     0.559964    11.366073
	   79 D(13,7,14,16)   =   -162.607620    -0.000017    -1.473905  -164.081525
	   80 D(14,7,13,17)   =     43.079106     0.000019     2.167917    45.247023
	   81 D(14,7,13,18)   =   -153.375736    -0.000091   -13.490304  -166.866040
	 ---------------------------------------------------------------------------
	Successfully symmetrized geometry.

  ==> Convergence Check <==

  Measures of convergence in internal coordinates in au.
  Criteria marked as inactive (o), active & met (*), and active & unmet ( ).
  ---------------------------------------------------------------------------------------------
   Step     Total Energy     Delta E     MAX Force     RMS Force      MAX Disp      RMS Disp   
  ---------------------------------------------------------------------------------------------
    Convergence Criteria    1.00e-06 *    3.00e-04 *             o    1.20e-03 *             o
  ---------------------------------------------------------------------------------------------
      2    -381.46045136   -5.62e-03      2.62e-02      3.33e-03 o    2.73e-01      4.26e-02 o  ~
  ---------------------------------------------------------------------------------------------

	Writing optimization data to binary file.
	Structure for next step:
	Cartesian Geometry (in Angstrom)
	    C    -0.0511477004   0.0373251181  -0.1840868023
	    C     0.0550471780   1.2453931923   0.5374000929
	    C     0.0890628399   1.2195560241   1.9259912982
	    C     0.0131983807  -0.0040396964   2.6028573125
	    C    -0.1005512584  -1.2047098202   1.8935377724
	    C    -0.1432498788  -1.1904641097   0.5036871838
	    C    -0.0443282561   0.0425171119  -1.6427612132
	    H     0.0694457146   2.1976239810   0.0134862140
	    H     0.1593931165   2.1484348399   2.4832187829
	    H     0.0400416072  -0.0209701624   3.6882660148
	    H    -0.1482181439  -2.1498319079   2.4249460658
	    H    -0.1990894517  -2.1226122634  -0.0492617407
	    N    -0.6717897908  -0.9088986034  -2.3661436117
	    N     0.6695185258   0.9425455820  -2.3080539302
	    H     0.6081187598   1.0253737262  -3.3179342169
	    H     1.3464407643   1.5251302329  -1.8293649111
	    H    -0.1984441623  -1.3981206777  -3.1172910959
	    H    -1.3918882444  -1.4747385676  -1.8630212153
			--------------------------
			 OPTKING Finished Execution 
			--------------------------

    Structure for next step:
    Molecular point group: c1
    Full point group: C1

    Geometry (in Angstrom), charge = 1, multiplicity = 1:

    C           -0.051147700374     0.037325118082    -0.184086802319
    C            0.055047177977     1.245393192318     0.537400092932
    C            0.089062839874     1.219556024115     1.925991298170
    C            0.013198380689    -0.004039696367     2.602857312499
    C           -0.100551258360    -1.204709820224     1.893537772447
    C           -0.143249878793    -1.190464109689     0.503687183833
    C           -0.044328256129     0.042517111907    -1.642761213216
    H            0.069445714571     2.197623981040     0.013486213998
    H            0.159393116513     2.148434839906     2.483218782914
    H            0.040041607195    -0.020970162380     3.688266014796
    H           -0.148218143943    -2.149831907893     2.424946065831
    H           -0.199089451730    -2.122612263375    -0.049261740692
    N           -0.671789790753    -0.908898603355    -2.366143611713
    N            0.669518525838     0.942545582008    -2.308053930234
    H            0.608118759821     1.025373726240    -3.317934216871
    H            1.346440764323     1.525130232931    -1.829364911129
    H           -0.198444162299    -1.398120677692    -3.117291095922
    H           -1.391888244420    -1.474738567571    -1.863021215322

gradient() will perform analytic gradient computation.

*** tstart() called on green.prib.upf.edu
*** at Sat Sep 29 20:25:48 2018

   => Loading Basis Set <=

    Name: 6-31G*
    Role: ORBITAL
    Keyword: BASIS
    atoms 1-7         entry C          line   111 file /shared/joao/test_parameterize/miniconda3/share/psi4/basis/6-31gs.gbs 
    atoms 8-12, 15-18 entry H          line    44 file /shared/joao/test_parameterize/miniconda3/share/psi4/basis/6-31gs.gbs 
    atoms 13-14       entry N          line   128 file /shared/joao/test_parameterize/miniconda3/share/psi4/basis/6-31gs.gbs 


         ---------------------------------------------------------
                                   SCF
[...]
	            -0.0000035932        0.0000016561       -0.0000030043
	             0.0000018354       -0.0000031733       -0.0000017516
	            -0.0000094307        0.0000002494       -0.0000006187
	             0.0000017101       -0.0000043292       -0.0000073272
	            -0.0005623029        0.0077381046       -0.0092696442
	            -0.0000131934        0.0001050848       -0.0000125060
	            -0.0000009710       -0.0000110972        0.0000067103
	            -0.0000003839       -0.0000243768       -0.0000105186
	             0.0028672520       -0.0073553612        0.0067029599
	            -0.0000242080       -0.0000594626        0.0000519818

	---Fragment 1 Intrafragment Coordinates---
	 - Coordinate -           - BOHR/RAD -       - ANG/DEG -
	 R(1,2)           =         2.665034	       1.410275
	 R(1,6)           =         2.663385	       1.409403
	 R(1,7)           =         2.758176	       1.459564
	 R(2,3)           =         2.626058	       1.389650
	 R(2,8)           =         2.053284	       1.086551
	 R(3,4)           =         2.644599	       1.399461
	 R(3,9)           =         2.050528	       1.085093
	 R(4,5)           =         2.643145	       1.398692
	 R(4,10)          =         2.051722	       1.085725
	 R(5,6)           =         2.627602	       1.390467
	 R(5,11)          =         2.050528	       1.085092
	 R(6,12)          =         2.052300	       1.086030
	 R(7,13)          =         2.546256	       1.347421
	 R(7,14)          =         2.510144	       1.328311
	 R(13,17)         =         1.918549	       1.015253
	 R(13,18)         =         1.915631	       1.013708
	 R(14,15)         =         1.916310	       1.014068
	 R(14,16)         =         1.912442	       1.012021
	 B(1,2,3)         =         2.091335	     119.824694
	 B(1,2,8)         =         2.100169	     120.330839
	 B(1,6,5)         =         2.089732	     119.732834
	 B(1,6,12)        =         2.104233	     120.563680
	 B(1,7,13)        =         2.127185	     121.878739
	 B(1,7,14)        =         2.099137	     120.271683
	 B(2,1,6)         =         2.093620	     119.955597
	 B(2,1,7)         =         2.099434	     120.288695
	 B(2,3,4)         =         2.093218	     119.932529
	 B(2,3,9)         =         2.092121	     119.869685
	 B(3,2,8)         =         2.090421	     119.772276
	 B(3,4,5)         =         2.103573	     120.525837
	 B(3,4,10)        =         2.089901	     119.742500
	 B(4,3,9)         =         2.097753	     120.192369
	 B(4,5,6)         =         2.094794	     120.022863
	 B(4,5,11)        =         2.097847	     120.197804
	 B(5,4,10)        =         2.089707	     119.731406
	 B(5,6,12)        =         2.087891	     119.627322
	 B(6,1,7)         =         2.090035	     119.750188
	 B(6,5,11)        =         2.090513	     119.777597
	 B(7,13,17)       =         2.092782	     119.907571
	 B(7,13,18)       =         2.031169	     116.377418
	 B(7,14,15)       =         2.121940	     121.578192
	 B(7,14,16)       =         2.107917	     120.774770
	 B(13,7,14)       =         2.055374	     117.764260
	 B(15,14,16)      =         2.053246	     117.642328
	 B(17,13,18)      =         1.973767	     113.088506
	 D(1,2,3,4)       =         0.001527	       0.087479
	 D(1,2,3,9)       =        -3.125319	    -179.067580
	 D(1,6,5,4)       =         0.012730	       0.729370
	 D(1,6,5,11)      =        -3.120514	    -178.792296
	*D(1,7,13,17)     =        -2.268928	    -129.999986
	 D(1,7,13,18)     =         0.213040	      12.206292
	 D(1,7,14,15)     =        -3.004618	    -172.151907
	 D(1,7,14,16)     =         0.151080	       8.656240
	 D(2,1,6,5)       =        -0.015789	      -0.904658
	 D(2,1,6,12)      =        -3.101790	    -177.719465
	 D(2,1,7,13)      =        -2.587083	    -148.228938
	 D(2,1,7,14)      =         0.614452	      35.205484
	 D(2,3,4,5)       =        -0.004632	      -0.265392
	 D(2,3,4,10)      =         3.140188	     179.919496
	 D(3,2,1,6)       =         0.008645	       0.495339
	 D(3,2,1,7)       =        -3.117994	    -178.647900
	 D(3,4,5,6)       =        -0.002571	      -0.147311
	 D(3,4,5,11)      =         3.130638	     179.372327
	 D(4,3,2,8)       =         3.089380	     177.008438
	 D(4,5,6,12)      =         3.099255	     177.574236
	 D(5,4,3,9)       =         3.122166	     178.886911
	 D(5,6,1,7)       =         3.110931	     178.243222
	 D(6,1,2,8)       =        -3.078904	    -176.408188
	 D(6,1,7,13)      =         0.569432	      32.626062
	 D(6,1,7,14)      =        -2.512218	    -143.939516
	 D(6,5,4,10)      =         3.135795	     179.667822
	 D(7,1,2,8)       =         0.077642	       4.448573
	 D(7,1,6,12)      =         0.024931	       1.428414
	 D(8,2,3,9)       =        -0.037466	      -2.146620
	 D(9,3,4,10)      =        -0.016200	      -0.928201
	 D(10,4,5,11)     =        -0.014182	      -0.812540
	 D(11,5,6,12)     =        -0.033989	      -1.947431
	 D(13,7,14,15)    =         0.194496	      11.143782
	 D(13,7,14,16)    =        -2.932992	    -168.048071
	 D(14,7,13,17)    =         0.814162	      46.648075
	 D(14,7,13,18)    =        -2.987055	    -171.145647

	Current energy   :      -381.4638278915

	Energy change for the previous step:
		Projected    :        -0.0000018274
		Actual       :        -0.0000008704

	Performing BFGS update.
	Previous computed or guess Hessian on step 1.
	Steps to be used in Hessian update: 6 5
	Taking RFO optimization step.
	Going to follow RFO solution 1.
	Rejecting RFO root 1 because normalization gives large value.
	Rejecting RFO root 2 because normalization gives large value.
	Rejecting RFO root 3 because normalization gives large value.
	Using RFO vector 4.
	Norm of target step-size    0.00238
	Projected energy change by RFO approximation:        -0.0000003915

	Back-transformation to cartesian coordinates...
	Could not converge backtransformation.
	Using first guess instead.

	Back-transformation to cartesian coordinates to adjust frozen coordinates...
	Successfully converged to displaced geometry.

	--- Internal Coordinate Step in ANG or DEG, aJ/ANG or AJ/DEG ---
	 ---------------------------------------------------------------------------
	   Coordinate                Previous        Force       Change         New 
	   ----------                --------       ------       ------       ------
	    1 R(1,2)          =      1.410275    -0.000006     0.000003     1.410278
	    2 R(1,6)          =      1.409403    -0.000000     0.000030     1.409433
	    3 R(1,7)          =      1.459564     0.000889     0.000123     1.459687
	    4 R(2,3)          =      1.389650     0.000116     0.000001     1.389651
	    5 R(2,8)          =      1.086551    -0.000014    -0.000003     1.086548
	    6 R(3,4)          =      1.399461    -0.000106    -0.000012     1.399450
	    7 R(3,9)          =      1.085093    -0.000005    -0.000004     1.085089
	    8 R(4,5)          =      1.398692    -0.000051    -0.000016     1.398676
	    9 R(4,10)         =      1.085725     0.000001    -0.000001     1.085724
	   10 R(5,6)          =      1.390467     0.000071    -0.000006     1.390462
	   11 R(5,11)         =      1.085092    -0.000004    -0.000003     1.085089
	   12 R(6,12)         =      1.086030    -0.000053    -0.000029     1.086001
	   13 R(7,13)         =      1.347421     0.000211     0.000039     1.347459
	   14 R(7,14)         =      1.328311    -0.000352     0.000035     1.328346
	   15 R(13,17)        =      1.015253     0.000006    -0.000051     1.015202
	   16 R(13,18)        =      1.013708    -0.000635     0.000036     1.013744
	   17 R(14,15)        =      1.014068     0.000074     0.000008     1.014075
	   18 R(14,16)        =      1.012021     0.000160     0.000033     1.012054
	   19 B(1,2,3)        =    119.824694     0.000001     0.003376   119.828071
	   20 B(1,2,8)        =    120.330839     0.000001     0.002276   120.333115
	   21 B(1,6,5)        =    119.732834    -0.000000    -0.000507   119.732327
	   22 B(1,6,12)       =    120.563680     0.000000    -0.001603   120.562077
	   23 B(1,7,13)       =    121.878739     0.000001     0.007084   121.885823
	   24 B(1,7,14)       =    120.271683     0.000000    -0.001976   120.269706
	   25 B(2,1,6)        =    119.955597    -0.000001    -0.003316   119.952281
	   26 B(2,1,7)        =    120.288695    -0.000000    -0.002746   120.285950
	   27 B(2,3,4)        =    119.932529    -0.000000    -0.002317   119.930212
	   28 B(2,3,9)        =    119.869685     0.000000     0.003183   119.872868
	   29 B(3,2,8)        =    119.772276    -0.000001    -0.004478   119.767799
	   30 B(3,4,5)        =    120.525837     0.000000     0.001078   120.526915
	   31 B(3,4,10)       =    119.742500    -0.000000    -0.001515   119.740985
	   32 B(4,3,9)        =    120.192369     0.000000    -0.000986   120.191383
	   33 B(4,5,6)        =    120.022863     0.000000     0.001235   120.024098
	   34 B(4,5,11)       =    120.197804    -0.000000    -0.001502   120.196302
	   35 B(5,4,10)       =    119.731406     0.000000     0.000437   119.731843
	   36 B(5,6,12)       =    119.627322    -0.000000     0.001126   119.628448
	   37 B(6,1,7)        =    119.750188     0.000001     0.006291   119.756479
	   38 B(6,5,11)       =    119.777597    -0.000000     0.000223   119.777820
	   39 B(7,13,17)      =    119.907571     0.000001     0.011870   119.919441
	   40 B(7,13,18)      =    116.377418     0.000001    -0.027795   116.349623
	   41 B(7,14,15)      =    121.578192     0.000001    -0.004317   121.573875
	   42 B(7,14,16)      =    120.774770    -0.000000     0.008168   120.782938
	   43 B(13,7,14)      =    117.764260    -0.000001    -0.005019   117.759241
	   44 B(15,14,16)     =    117.642328    -0.000001    -0.004081   117.638247
	   45 B(17,13,18)     =    113.088506    -0.000000     0.011273   113.099779
	   46 D(1,2,3,4)      =      0.087479    -0.000000    -0.031662     0.055816
	   47 D(1,2,3,9)      =   -179.067580    -0.000000    -0.022317  -179.089897
	   48 D(1,6,5,4)      =      0.729370     0.000000     0.018969     0.748340
	   49 D(1,6,5,11)     =   -178.792296     0.000000     0.024956  -178.767341
	   50 *D(1,7,13,17)   =   -129.999986    -0.000000     0.000000  -129.999986
	   51 D(1,7,13,18)    =     12.206292     0.000001    -0.003664    12.202629
	   52 D(1,7,14,15)    =   -172.151907    -0.000000     0.027892  -172.124015
	   53 D(1,7,14,16)    =      8.656240    -0.000001     0.047491     8.703731
	   54 D(2,1,6,5)      =     -0.904658    -0.000000    -0.043480    -0.948138
	   55 D(2,1,6,12)     =   -177.719465    -0.000000    -0.023028  -177.742493
	   56 D(2,1,7,13)     =   -148.228938    -0.000000     0.024167  -148.204771
	   57 D(2,1,7,14)     =     35.205484     0.000001     0.022564    35.228048
	   58 D(2,3,4,5)      =     -0.265392     0.000000     0.007106    -0.258286
	   59 D(2,3,4,10)     =    179.919496     0.000000     0.006936   179.926432
	   60 D(3,2,1,6)      =      0.495339     0.000000     0.049905     0.545245
	   61 D(3,2,1,7)      =   -178.647900     0.000000     0.031811  -178.616088
	   62 D(3,4,5,6)      =     -0.147311    -0.000000    -0.000702    -0.148012
	   63 D(3,4,5,11)     =    179.372327    -0.000000    -0.006705   179.365622
	   64 D(4,3,2,8)      =    177.008438    -0.000000    -0.006466   177.001972
	   65 D(4,5,6,12)     =    177.574236    -0.000000    -0.001377   177.572859
	   66 D(5,4,3,9)      =    178.886911     0.000000    -0.002234   178.884677
	   67 D(5,6,1,7)      =    178.243222    -0.000000    -0.025559   178.217662
	   68 D(6,1,2,8)      =   -176.408188     0.000000     0.024775  -176.383413
	   69 D(6,1,7,13)     =     32.626062    -0.000000     0.006191    32.632253
	   70 D(6,1,7,14)     =   -143.939516     0.000000     0.004587  -143.934929
	   71 D(6,5,4,10)     =    179.667822     0.000000    -0.000535   179.667287
	   72 D(7,1,2,8)      =      4.448573    -0.000000     0.006681     4.455254
	   73 D(7,1,6,12)     =      1.428414     0.000000    -0.005107     1.423307
	   74 D(8,2,3,9)      =     -2.146620     0.000000     0.002879    -2.143741
	   75 D(9,3,4,10)     =     -0.928201    -0.000000    -0.002404    -0.930605
	   76 D(10,4,5,11)    =     -0.812540    -0.000000    -0.006538    -0.819078
	   77 D(11,5,6,12)    =     -1.947431     0.000000     0.004609    -1.942821
	   78 D(13,7,14,15)   =     11.143782     0.000000     0.025948    11.169730
	   79 D(13,7,14,16)   =   -168.048071     0.000000     0.045547  -168.002524
	   80 D(14,7,13,17)   =     46.648075    -0.000001     0.001652    46.649727
	   81 D(14,7,13,18)   =   -171.145647     0.000000    -0.002011  -171.147658
	 ---------------------------------------------------------------------------
	Successfully symmetrized geometry.

  ==> Convergence Check <==

  Measures of convergence in internal coordinates in au.
  Criteria marked as inactive (o), active & met (*), and active & unmet ( ).
  ---------------------------------------------------------------------------------------------
   Step     Total Energy     Delta E     MAX Force     RMS Force      MAX Disp      RMS Disp   
  ---------------------------------------------------------------------------------------------
    Convergence Criteria    1.00e-06 *    3.00e-04 *             o    1.20e-03 *             o
  ---------------------------------------------------------------------------------------------
      7    -381.46382789   -8.70e-07 *    1.08e-04 *    1.93e-05 o    8.71e-04 *    2.65e-04 o  ~
  ---------------------------------------------------------------------------------------------


  **** Optimization is complete! (in 7 steps) ****

  ==> Optimization Summary <==

  Measures of convergence in internal coordinates in au.
  --------------------------------------------------------------------------------------------------------------- ~
   Step         Total Energy             Delta E       MAX Force       RMS Force        MAX Disp        RMS Disp  ~
  --------------------------------------------------------------------------------------------------------------- ~
      1    -381.454832105917   -381.454832105917      0.02082694      0.00354358      0.32956630      0.05397472  ~
      2    -381.460451358042     -0.005619252124      0.02619737      0.00333146      0.27328752      0.04256383  ~
      3    -381.462713414972     -0.002262056930      0.02545849      0.00293868      0.10213199      0.01957405  ~
      4    -381.463782379888     -0.001068964916      0.00217527      0.00038606      0.02878711      0.00562838  ~
      5    -381.463819701949     -0.000037322061      0.00082824      0.00015663      0.01383549      0.00333755  ~
      6    -381.463827021070     -0.000007319121      0.00037415      0.00006430      0.00335538      0.00092501  ~
      7    -381.463827891457     -0.000000870387      0.00010790      0.00001927      0.00087101      0.00026454  ~
  --------------------------------------------------------------------------------------------------------------- ~

	Writing optimization data to binary file.
	Final energy is   -381.4638278914567
	Final (previous) structure:
	Cartesian Geometry (in Angstrom)
	    C    -0.0431692264   0.0296811468  -0.1871214023
	    C     0.0528822168   1.2393054586   0.5315293073
	    C     0.0768069515   1.2178057542   1.9208069143
	    C     0.0074343752  -0.0029317548   2.6016002676
	    C    -0.0916730329  -1.2058736960   1.8948839823
	    C    -0.1250761377  -1.1954199835   0.5048572818
	    C    -0.0394501967   0.0382587582  -1.6466551220
	    H     0.0577014347   2.1905708783   0.0064915720
	    H     0.1354120916   2.1490023325   2.4747609357
	    H     0.0276894945  -0.0162257790   3.6870544161
	    H    -0.1348841746  -2.1500485900   2.4278869748
	    H    -0.1622162924  -2.1350918856  -0.0383733669
	    N    -0.7163034797  -0.8787121095  -2.3653875750
	    N     0.6968102476   0.9233421798  -2.3091938073
	    H     0.6261822815   1.0256857417  -3.3156085596
	    H     1.3599197800   1.5130532511  -1.8226630345
	    H    -0.2494001724  -1.3797408527  -3.1148603451
	    H    -1.3771061606  -1.4531468501  -1.8545364391
	Saving final (previous) structure.
	Removing binary optimization data file.
			--------------------------
			 OPTKING Finished Execution 
			--------------------------

    Final optimized geometry and variables:
    Molecular point group: c1
    Full point group: C1

    Geometry (in Angstrom), charge = 1, multiplicity = 1:

    C           -0.043169226441     0.029681146838    -0.187121402321
    C            0.052882216750     1.239305458605     0.531529307319
    C            0.076806951465     1.217805754160     1.920806914311
    C            0.007434375160    -0.002931754760     2.601600267609
    C           -0.091673032877    -1.205873695957     1.894883982323
    C           -0.125076137686    -1.195419983455     0.504857281820
    C           -0.039450196712     0.038258758241    -1.646655122050
    H            0.057701434735     2.190570878311     0.006491571967
    H            0.135412091648     2.149002332542     2.474760935680
    H            0.027689494459    -0.016225779013     3.687054416082
    H           -0.134884174614    -2.150048590045     2.427886974818
    H           -0.162216292367    -2.135091885630    -0.038373366918
    N           -0.716303479676    -0.878712109507    -2.365387575011
    N            0.696810247646     0.923342179756    -2.309193807323
    H            0.626182281521     1.025685741652    -3.315608559629
    H            1.359919779997     1.513053251096    -1.822663034508
    H           -0.249400172417    -1.379740852727    -3.114860345115
    H           -1.377106160589    -1.453146850107    -1.854536439056

	Removing binary optimization data file.
	Cleaning optimization helper files.


Properties will be evaluated at   0.000000,   0.000000,   0.000000 [a0]
OEProp: No title given, name of density matrix used for the following properties is 'SCF density'
  Nuclear Dipole Moment: [e a0]
     X:    -1.5621      Y:     1.4767      Z:    -1.0441

  Electronic Dipole Moment: [e a0]
     X:     1.8788      Y:    -1.5818      Z:    -0.8741

  Dipole Moment: [e a0]
     X:     0.3167      Y:    -0.1051      Z:    -1.9182     Total:     1.9470

  Dipole Moment: [D]
     X:     0.8049      Y:    -0.2671      Z:    -4.8756     Total:     4.9488

  Quadrupole Moment: [D A]
    XX:   -50.3067     YY:   -36.1867     ZZ:   -16.3869
    XY:     5.9567     XZ:    -2.8838     YZ:     1.0411

  Traceless Quadrupole Moment: [D A]
    XX:   -16.0133     YY:    -1.8933     ZZ:    17.9065
    XY:     5.9567     XZ:    -2.8838     YZ:     1.0411

  Mulliken Charges: (a.u.)
   Center  Symbol    Alpha    Beta     Spin     Total
       1     C     2.94944  2.94944  0.00000  0.10112
       2     C     3.08184  3.08184  0.00000 -0.16368
       3     C     3.06219  3.06219  0.00000 -0.12439
       4     C     3.05040  3.05040  0.00000 -0.10079
       5     C     3.06225  3.06225  0.00000 -0.12449
       6     C     3.07994  3.07994  0.00000 -0.15988
       7     C     2.74394  2.74394  0.00000  0.51212
       8     H     0.41270  0.41270  0.00000  0.17459
       9     H     0.40412  0.40412  0.00000  0.19175
      10     H     0.40229  0.40229  0.00000  0.19541
      11     H     0.40432  0.40432  0.00000  0.19137
      12     H     0.41690  0.41690  0.00000  0.16619
      13     N     3.86337  3.86337  0.00000 -0.72673
      14     N     3.85281  3.85281  0.00000 -0.70562
      15     H     0.30210  0.30210  0.00000  0.39579
      16     H     0.30052  0.30052  0.00000  0.39896
      17     H     0.30489  0.30489  0.00000  0.39022
      18     H     0.30597  0.30597  0.00000  0.38806

   Total alpha = 32.00000, Total beta = 32.00000, Total charge =  1.00000


    Psi4 stopped on: Saturday, 29 September 2018 08:28PM
    Psi4 wall time for execution: 0:03:23.52

*** Psi4 exiting successfully. Buy a developer a beer!
