
    -----------------------------------------------------------------------
          Psi4: An Open-Source Ab Initio Electronic Structure Package
                               Psi4 1.2.1 release

                         Git: Rev {HEAD} 406f4de 


    R. M. Parrish, L. A. Burns, D. G. A. Smith, A. C. Simmonett,
    A. E. DePrince III, E. G. Hohenstein, U. Bozkaya, A. Yu. Sokolov,
    R. Di Remigio, R. M. Richard, J. F. Gonthier, A. M. James,
    H. R. McAlexander, A. Kumar, M. Saitow, X. Wang, B. P. Pritchard,
    P. Verma, H. F. Schaefer III, K. Patkowski, R. A. King, E. F. Valeev,
    F. A. Evangelista, J. M. Turney, T. D. Crawford, and C. D. Sherrill,
    J. Chem. Theory Comput. 13(7) pp 3185--3197 (2017).
    (doi: 10.1021/acs.jctc.7b00174)


                         Additional Contributions by
    P. Kraus, H. Kruse, M. H. Lechner, M. C. Schieber, and R. A. Shaw

    -----------------------------------------------------------------------


    Psi4 started on: Saturday, 29 September 2018 08:24PM

    Process ID: 23274
    Host:       oliva.prib.upf.edu
    PSIDATADIR: /shared/joao/test_parameterize/miniconda3/share/psi4
    Memory:     500.0 MiB
    Threads:    1
    
  ==> Input File <==

--------------------------------------------------------------------------
set_num_threads(4)
set_memory('3000 MB')

set { scf_mem_safety_factor 0.7 }

set { reference rks }
set { basis 6-31G* }

molecule MOL {
    1 1
    noreorient
    nocom
    symmetry c1
    C   -0.000000  -0.000000  -0.177864
    C    0.036678   1.219374   0.524165
    C    0.031765   1.213120   1.915444
    C    0.000000   0.000000   2.610107
    C   -0.031765  -1.213120   1.915444
    C   -0.036678  -1.219375   0.524165
    C   -0.000000   0.000000  -1.644734
    H    0.018170   2.164705  -0.010854
    H    0.042402   2.152895   2.457886
    H    0.000000   0.000000   3.695756
    H   -0.042402  -2.152895   2.457886
    H   -0.018170  -2.164705  -0.010853
    N   -0.712590  -0.905950  -2.308461
    N    0.712590   0.905950  -2.308460
    H    0.673432   1.006470  -3.315997
    H    1.377190   1.485970  -1.813316
    H   -0.250347  -1.546853  -2.940013
    H   -1.707257  -1.036195  -2.165490
}

set optking { frozen_dihedral = (" 1 7 13 17 ") }

set optking { dynamic_level = 1 
 geom_maxiter = 250
 print_trajectory_xyz_file = True }

energy, wfn = optimize('B3LYP-D3', return_wfn=True)

import os
os.chdir(os.environ['HTMD_PSI4_WORKDIR'])

oeprop(wfn, 'DIPOLE', 'QUADRUPOLE', 'MULLIKEN_CHARGES')

with open('psi4out.xyz', 'w') as f:
    f.write('18 ' )
    f.write('%.12f\n' % energy)
    f.write(MOL.save_string_xyz())
--------------------------------------------------------------------------
  Threads set to 4 by Python driver.

  Memory set to   2.794 GiB by Python driver.
gradient() will perform analytic gradient computation.

*** tstart() called on oliva.prib.upf.edu
*** at Sat Sep 29 20:24:38 2018

   => Loading Basis Set <=

    Name: 6-31G*
    Role: ORBITAL
    Keyword: BASIS
    atoms 1-7         entry C          line   111 file /shared/joao/test_parameterize/miniconda3/share/psi4/basis/6-31gs.gbs 
    atoms 8-12, 15-18 entry H          line    44 file /shared/joao/test_parameterize/miniconda3/share/psi4/basis/6-31gs.gbs 
    atoms 13-14       entry N          line   128 file /shared/joao/test_parameterize/miniconda3/share/psi4/basis/6-31gs.gbs 


         ---------------------------------------------------------
                                   SCF
            by Justin Turney, Rob Parrish, Andy Simmonett
                             and Daniel Smith
                              RKS Reference
                        4 Threads,   2861 MiB Core
         ---------------------------------------------------------

  ==> Geometry <==

    Molecular point group: c1
    Full point group: C1

    Geometry (in Angstrom), charge = 1, multiplicity = 1:

       Center              X                  Y                   Z               Mass       
    ------------   -----------------  -----------------  -----------------  -----------------
         C            0.000000000000     0.000000000000    -0.177864000000    12.000000000000
         C            0.036678000000     1.219374000000     0.524165000000    12.000000000000
         C            0.031765000000     1.213120000000     1.915444000000    12.000000000000
         C            0.000000000000     0.000000000000     2.610107000000    12.000000000000
         C           -0.031765000000    -1.213120000000     1.915444000000    12.000000000000
         C           -0.036678000000    -1.219375000000     0.524165000000    12.000000000000
         C            0.000000000000     0.000000000000    -1.644734000000    12.000000000000
         H            0.018170000000     2.164705000000    -0.010854000000     1.007825032070
         H            0.042402000000     2.152895000000     2.457886000000     1.007825032070
         H            0.000000000000     0.000000000000     3.695756000000     1.007825032070
         H           -0.042402000000    -2.152895000000     2.457886000000     1.007825032070
         H           -0.018170000000    -2.164705000000    -0.010853000000     1.007825032070
         N           -0.712590000000    -0.905950000000    -2.308461000000    14.003074004780
         N            0.712590000000     0.905950000000    -2.308460000000    14.003074004780
         H            0.673432000000     1.006470000000    -3.315997000000     1.007825032070
         H            1.377190000000     1.485970000000    -1.813316000000     1.007825032070
         H           -0.250347000000    -1.546853000000    -2.940013000000     1.007825032070
         H           -1.707257000000    -1.036195000000    -2.165490000000     1.007825032070

  Running in c1 symmetry.

  Rotational constants: A =      0.12113  B =      0.03958  C =      0.03135 [cm^-1]
  Rotational constants: A =   3631.44975  B =   1186.64547  C =    939.70451 [MHz]
  Nuclear repulsion =  416.671526870578361

  Charge       = 1
  Multiplicity = 1
  Electrons    = 64
  Nalpha       = 32
  Nbeta        = 32

  ==> Algorithm <==

  SCF Algorithm Type is DF.
  DIIS enabled.
  MOM disabled.
  Fractional occupation disabled.
  Guess Type is SAD.
  Energy threshold   = 1.00e-08
  Density threshold  = 1.00e-08
  Integral threshold = 0.00e+00

  ==> Primary Basis <==

  Basis Set: 6-31G*
    Blend: 6-31G*
    Number of shells: 72
    Number of basis function: 153
    Number of Cartesian functions: 153
    Spherical Harmonics?: false
    Max angular momentum: 2

  ==> DFT Potential <==

   => Composite Functional: B3LYP-D3ZERO <= 

    B3LYP-d3zero Hyb-GGA Exchange-Correlation Functional

    P. J. Stephens, F. J. Devlin, C. F. Chabalowski, and M. J. Frisch, J. Phys. Chem. 98, 11623 (1994)

    Deriv               =              1
    GGA                 =           TRUE
    Meta                =          FALSE

    Exchange Hybrid     =           TRUE
    MP2 Hybrid          =          FALSE

   => Exchange Functionals <=

    0.0800   Slater exchange
    0.7200         Becke 88

   => Exact (HF) Exchange <=

    0.2000               HF 

   => Correlation Functionals <=

    0.1900   Vosko, Wilk & Nusair (VWN5_RPA)
    0.8100   Lee, Yang & Parr

   => Molecular Quadrature <=

    Radial Scheme       =       TREUTLER
    Pruning Scheme      =           FLAT
    Nuclear Scheme      =       TREUTLER

    BS radius alpha     =              1
    Pruning alpha       =              1
    Radial Points       =             75
    Spherical Points    =            302
    Total Points        =         397094
    Total Blocks        =           3014
    Max Points          =            256
    Max Functions       =            149

   => -D3ZERO: Empirical Dispersion <=

    Grimme's -D3 (zero-damping) Dispersion Correction
    Grimme S.; Antony J.; Ehrlich S.; Krieg H. (2010), J. Chem. Phys., 132: 154104

        S6 =   1.000000E+00
        S8 =   1.703000E+00
       SR6 =   1.261000E+00
       SR8 =   1.000000E+00
    ALPHA6 =   1.400000E+01

   => Loading Basis Set <=

    Name: (6-31G* AUX)
    Role: JKFIT
    Keyword: DF_BASIS_SCF
    atoms 1-7         entry C          line   121 file /shared/joao/test_parameterize/miniconda3/share/psi4/basis/cc-pvdz-jkfit.gbs 
    atoms 8-12, 15-18 entry H          line    51 file /shared/joao/test_parameterize/miniconda3/share/psi4/basis/cc-pvdz-jkfit.gbs 
    atoms 13-14       entry N          line   171 file /shared/joao/test_parameterize/miniconda3/share/psi4/basis/cc-pvdz-jkfit.gbs 

  ==> Pre-Iterations <==

   -------------------------------------------------------
    Irrep   Nso     Nmo     Nalpha   Nbeta   Ndocc  Nsocc
   -------------------------------------------------------
     A        153     153       0       0       0       0
   -------------------------------------------------------
    Total     153     153      32      32      32       0
   -------------------------------------------------------

  ==> Integral Setup <==

  ==> DiskDFJK: Density-Fitted J/K Matrices <==

    J tasked:                  Yes
    K tasked:                  Yes
    wK tasked:                  No
    OpenMP threads:              4
    Integrals threads:           4
    Memory (MB):              2002
    Algorithm:                Core
    Integral Cache:           NONE
    Schwarz Cutoff:          1E-12
    Fitting Condition:       1E-12

   => Auxiliary Basis Set <=

  Basis Set: (6-31G* AUX)
    Blend: CC-PVDZ-JKFIT
    Number of shells: 297
    Number of basis function: 954
    Number of Cartesian functions: 954
    Spherical Harmonics?: false
    Max angular momentum: 3

  Minimum eigenvalue in the overlap matrix is 4.8724752109E-04.
  Using Symmetric Orthogonalization.

  SCF Guess: Superposition of Atomic Densities via on-the-fly atomic UHF.

  ==> Iterations <==

                           Total Energy        Delta E     RMS |[F,P]|

   @DF-RKS iter   0:  -379.61211799578138   -3.79612e+02   6.81745e-02 
   @DF-RKS iter   1:  -381.00482007680608   -1.39270e+00   1.21326e-02 
   @DF-RKS iter   2:  -380.84377429827339    1.61046e-01   9.90804e-03 DIIS
   @DF-RKS iter   3:  -381.42791331959330   -5.84139e-01   2.59473e-03 DIIS
   @DF-RKS iter   4:  -381.44486906798454   -1.69557e-02   9.02658e-04 DIIS
   @DF-RKS iter   5:  -381.44680296381881   -1.93390e-03   3.43020e-04 DIIS
   @DF-RKS iter   6:  -381.44710867313688   -3.05709e-04   7.27768e-05 DIIS
   @DF-RKS iter   7:  -381.44713755850728   -2.88854e-05   3.01053e-05 DIIS
   @DF-RKS iter   8:  -381.44714015439638   -2.59589e-06   7.14206e-06 DIIS
   @DF-RKS iter   9:  -381.44714030164005   -1.47244e-07   3.43535e-06 DIIS
   @DF-RKS iter  10:  -381.44714033694964   -3.53096e-08   6.67963e-07 DIIS
   @DF-RKS iter  11:  -381.44714033803126   -1.08162e-09   3.06267e-07 DIIS
   @DF-RKS iter  12:  -381.44714033831735   -2.86093e-10   9.17825e-08 DIIS
   @DF-RKS iter  13:  -381.44714033834646   -2.91038e-11   2.00497e-08 DIIS
   @DF-RKS iter  14:  -381.44714033834748   -1.02318e-12   6.95871e-09 DIIS

  ==> Post-Iterations <==

    Orbital Energies [Eh]
    ---------------------

    Doubly Occupied:                                                      

       1A    -14.577004     2A    -14.539518     3A    -10.494681  
       4A    -10.370205     5A    -10.357084     6A    -10.356266  
       7A    -10.346679     8A    -10.341499     9A    -10.340807  
      10A     -1.177944    11A     -1.084259    12A     -1.014174  
      13A     -0.924676    14A     -0.902482    15A     -0.841632  
      16A     -0.778706    17A     -0.767239    18A     -0.740254  
      19A     -0.724953    20A     -0.705742    21A     -0.670404  
      22A     -0.627237    23A     -0.607139    24A     -0.583061  
      25A     -0.577328    26A     -0.554778    27A     -0.518675  
      28A     -0.506595    29A     -0.498137    30A     -0.457503  
      31A     -0.414797    32A     -0.406077  

    Virtual:                                                              

      33A     -0.240744    34A     -0.155776    35A     -0.137321  
      36A     -0.098003    37A     -0.071560    38A     -0.048570  
      39A     -0.037305    40A     -0.010926    41A      0.006713  
      42A      0.009127    43A      0.022212    44A      0.054404  
      45A      0.060935    46A      0.092748    47A      0.134169  
      48A      0.139169    49A      0.156510    50A      0.158496  
      51A      0.209121    52A      0.241160    53A      0.298966  
      54A      0.354338    55A      0.359958    56A      0.381661  
      57A      0.394603    58A      0.398391    59A      0.417444  
      60A      0.422038    61A      0.442008    62A      0.449101  
      63A      0.453025    64A      0.470435    65A      0.473013  
      66A      0.483006    67A      0.489079    68A      0.512803  
      69A      0.527017    70A      0.537938    71A      0.554019  
      72A      0.582026    73A      0.618795    74A      0.641737  
      75A      0.670383    76A      0.686096    77A      0.698297  
      78A      0.701845    79A      0.709382    80A      0.722428  
      81A      0.733785    82A      0.737284    83A      0.770862  
      84A      0.777483    85A      0.808717    86A      0.819706  
      87A      0.854586    88A      0.915036    89A      0.949182  
      90A      0.970675    91A      0.995270    92A      1.016946  
      93A      1.050431    94A      1.072905    95A      1.130912  
      96A      1.142101    97A      1.243023    98A      1.275712  
      99A      1.277634   100A      1.309539   101A      1.319122  
     102A      1.341572   103A      1.359379   104A      1.382576  
     105A      1.438668   106A      1.493259   107A      1.543700  
     108A      1.569209   109A      1.627497   110A      1.663391  
     111A      1.701010   112A      1.730793   113A      1.747703  
     114A      1.782457   115A      1.809034   116A      1.827374  
     117A      1.893741   118A      1.939675   119A      1.966674  
     120A      1.974212   121A      1.992161   122A      2.000955  
     123A      2.023060   124A      2.032883   125A      2.121270  
     126A      2.130823   127A      2.153963   128A      2.193941  
     129A      2.235381   130A      2.353465   131A      2.362687  
     132A      2.390506   133A      2.448503   134A      2.457073  
     135A      2.487244   136A      2.511825   137A      2.553114  
     138A      2.584942   139A      2.598709   140A      2.627352  
     141A      2.735707   142A      2.843338   143A      2.980924  
     144A      3.257324   145A      3.625624   146A      3.684015  
     147A      3.913036   148A      3.945682   149A      3.963184  
     150A      4.044615   151A      4.173127   152A      4.252575  
     153A      4.545678  

    Final Occupation by Irrep:
              A 
    DOCC [    32 ]

  Energy converged.

  @DF-RKS Final Energy:  -381.44714033834748

   => Energetics <=

    Nuclear Repulsion Energy =            416.6715268705783615
    One-Electron Energy =               -1328.6727213656374715
    Two-Electron Energy =                 574.9743235529269896
    DFT Exchange-Correlation Energy =     -44.4083642862154520
    Empirical Dispersion Energy =          -0.0119051100000000
    VV10 Nonlocal Energy =                  0.0000000000000000
    Total Energy =                       -381.4471403383474808



Properties will be evaluated at   0.000000,   0.000000,   0.000000 [a0]

Properties computed using the SCF density matrix

  Nuclear Dipole Moment: [e a0]
     X:     0.1758      Y:    -0.1712      Z:     0.0698

  Electronic Dipole Moment: [e a0]
     X:    -0.0075      Y:     0.2223      Z:    -2.1351

  Dipole Moment: [e a0]
     X:     0.1683      Y:     0.0511      Z:    -2.0653     Total:     2.0728

  Dipole Moment: [D]
     X:     0.4278      Y:     0.1298      Z:    -5.2495     Total:     5.2685


*** tstop() called on oliva.prib.upf.edu at Sat Sep 29 20:25:10 2018
Module time:
	user time   =     108.15 seconds =       1.80 minutes
	system time =       0.90 seconds =       0.01 minutes
	total time  =         32 seconds =       0.53 minutes
Total time:
	user time   =     108.15 seconds =       1.80 minutes
	system time =       0.90 seconds =       0.01 minutes
	total time  =         32 seconds =       0.53 minutes

*** tstart() called on oliva.prib.upf.edu
*** at Sat Sep 29 20:25:10 2018


         ------------------------------------------------------------
                                   SCF GRAD                          
                          Rob Parrish, Justin Turney,                
                       Andy Simmonett, and Alex Sokolov              
         ------------------------------------------------------------

  ==> Geometry <==

    Molecular point group: c1
    Full point group: C1

    Geometry (in Angstrom), charge = 1, multiplicity = 1:

       Center              X                  Y                   Z               Mass       
    ------------   -----------------  -----------------  -----------------  -----------------
         C            0.000000000000     0.000000000000    -0.177864000000    12.000000000000
         C            0.036678000000     1.219374000000     0.524165000000    12.000000000000
         C            0.031765000000     1.213120000000     1.915444000000    12.000000000000
         C            0.000000000000     0.000000000000     2.610107000000    12.000000000000
         C           -0.031765000000    -1.213120000000     1.915444000000    12.000000000000
         C           -0.036678000000    -1.219375000000     0.524165000000    12.000000000000
         C            0.000000000000     0.000000000000    -1.644734000000    12.000000000000
         H            0.018170000000     2.164705000000    -0.010854000000     1.007825032070
         H            0.042402000000     2.152895000000     2.457886000000     1.007825032070
         H            0.000000000000     0.000000000000     3.695756000000     1.007825032070
         H           -0.042402000000    -2.152895000000     2.457886000000     1.007825032070
         H           -0.018170000000    -2.164705000000    -0.010853000000     1.007825032070
         N           -0.712590000000    -0.905950000000    -2.308461000000    14.003074004780
         N            0.712590000000     0.905950000000    -2.308460000000    14.003074004780
         H            0.673432000000     1.006470000000    -3.315997000000     1.007825032070
         H            1.377190000000     1.485970000000    -1.813316000000     1.007825032070
         H           -0.250347000000    -1.546853000000    -2.940013000000     1.007825032070
         H           -1.707257000000    -1.036195000000    -2.165490000000     1.007825032070

  Nuclear repulsion =  416.671526870578361

  ==> Basis Set <==

  Basis Set: 6-31G*
    Blend: 6-31G*
    Number of shells: 72
    Number of basis function: 153
    Number of Cartesian functions: 153
    Spherical Harmonics?: false
    Max angular momentum: 2

  ==> DFJKGrad: Density-Fitted SCF Gradients <==

    Gradient:                    1
    J tasked:                  Yes
    K tasked:                  Yes
    wK tasked:                  No
    OpenMP threads:              4
    Integrals threads:           4
    Memory (MB):              2002
    Schwarz Cutoff:          0E+00
    Fitting Condition:       1E-12

   => Auxiliary Basis Set <=

  Basis Set: (6-31G* AUX)
    Blend: CC-PVDZ-JKFIT
    Number of shells: 297
    Number of basis function: 954
    Number of Cartesian functions: 954
    Spherical Harmonics?: false
    Max angular momentum: 3

  ==> DFT Potential <==

   => Composite Functional: B3LYP-D3ZERO <= 

    B3LYP-d3zero Hyb-GGA Exchange-Correlation Functional

    P. J. Stephens, F. J. Devlin, C. F. Chabalowski, and M. J. Frisch, J. Phys. Chem. 98, 11623 (1994)

    Deriv               =              1
    GGA                 =           TRUE
    Meta                =          FALSE

    Exchange Hybrid     =           TRUE
    MP2 Hybrid          =          FALSE

   => Exchange Functionals <=

    0.0800   Slater exchange
    0.7200         Becke 88

   => Exact (HF) Exchange <=

    0.2000               HF 

   => Correlation Functionals <=

    0.1900   Vosko, Wilk & Nusair (VWN5_RPA)
    0.8100   Lee, Yang & Parr

   => Molecular Quadrature <=

    Radial Scheme       =       TREUTLER
    Pruning Scheme      =           FLAT
    Nuclear Scheme      =       TREUTLER

    BS radius alpha     =              1
    Pruning alpha       =              1
    Radial Points       =             75
    Spherical Points    =            302
    Total Points        =         397094
    Total Blocks        =           3014
    Max Points          =            256
    Max Functions       =            149


  -Total Gradient:
     Atom            X                  Y                   Z
    ------   -----------------  -----------------  -----------------
       1        0.005053314028    -0.010467304509     0.008007693998
       2       -0.000985717317    -0.001507553206    -0.005886328710
       3       -0.000586602847    -0.002784615834     0.001719680890
       4        0.000092924473     0.000558008966    -0.000161610882
       5       -0.000995419847     0.000427427868     0.001201709549
       6        0.001231447890     0.003623170950    -0.000719280224
       7       -0.008637403471    -0.020964893324    -0.024897971780
       8        0.000456906201    -0.000127577018     0.000108397134
       9        0.000142297387     0.000042903063    -0.000268399969
      10        0.000215870819    -0.000071641579    -0.000097128845
      11       -0.000098056618    -0.000000484439     0.000016815660
      12        0.001847774990    -0.001407832949     0.000918145998
      13        0.007273217134     0.021461140260     0.022710717889
      14       -0.003854408893     0.009062450435    -0.003987652337
      15        0.002843724718     0.001979334242     0.001506217667
      16       -0.003377219630    -0.000245889743    -0.000527639194
      17        0.004012696617    -0.006531131762     0.012422673977
      18       -0.004633757861     0.006948679453    -0.012071278435


*** tstop() called on oliva.prib.upf.edu at Sat Sep 29 20:25:17 2018
Module time:
	user time   =      27.99 seconds =       0.47 minutes
	system time =       0.31 seconds =       0.01 minutes
	total time  =          7 seconds =       0.12 minutes
Total time:
	user time   =     136.19 seconds =       2.27 minutes
	system time =       1.22 seconds =       0.02 minutes
	total time  =         39 seconds =       0.65 minutes

			-----------------------------------------
			 OPTKING 2.0: for geometry optimizations 
			  - R.A. King,  Bethel University        
			-----------------------------------------
	At level 1: Red. Int., RFO, no backsteps, dynamic trust

	Internal coordinates to be generated automatically.
	Detected frag 1 with atoms:  1 2 3 4 5 6 7 8 9 10 11 12 13 14 15 16 17 18
	---Fragment 1 Bond Connectivity---
	 1 : 2 6 7
	 2 : 1 3 8
	 3 : 2 4 9
	 4 : 3 5 10
	 5 : 4 6 11
	 6 : 1 5 12
	 7 : 1 13 14
	 8 : 2
	 9 : 3
	 10 : 4
	 11 : 5
	 12 : 6
	 13 : 7 17 18
	 14 : 7 15 16
	 15 : 14
	 16 : 14
	 17 : 13
	 18 : 13

	Assuming in current code that numbering for constraints corresponds to unified fragment.
	Frozen dihedral atom list: 
	     1     7    13    17
	---Fragment 1 Geometry and Gradient---
	 C           0.0000000000        0.0000000000       -0.3361142489
	 C           0.0693113751        2.3042829136        0.9905282984
	 C           0.0600271506        2.2924645663        3.6196645829
	 C           0.0000000000        0.0000000000        4.9323874075
	 C          -0.0600271506       -2.2924645663        3.6196645829
	 C          -0.0693113751       -2.3042848033        0.9905282984
	 C           0.0000000000        0.0000000000       -3.1080968214
	 H           0.0343363238        4.0906996085       -0.0205110874
	 H           0.0801281675        4.0683819429        4.6447314059
	 H           0.0000000000        0.0000000000        6.9839666940
	 H          -0.0801281675       -4.0683819429        4.6447314059
	 H          -0.0343363238       -4.0906996085       -0.0205091977
	 N          -1.3465999450       -1.7119973901       -4.3623590784
	 N           1.3465999450        1.7119973901       -4.3623571887
	 H           1.2726020491        1.9019526610       -6.2663261875
	 H           2.6025119329        2.8080763417       -3.4266706324
	 H          -0.4730872682       -2.9231285378       -5.5558193971
	 H          -3.2262481685       -1.9581247703       -4.0921830435
	             0.0050533140       -0.0104673045        0.0080076940
	            -0.0009857173       -0.0015075532       -0.0058863287
	            -0.0005866028       -0.0027846158        0.0017196809
	             0.0000929245        0.0005580090       -0.0001616109
	            -0.0009954198        0.0004274279        0.0012017095
	             0.0012314479        0.0036231710       -0.0007192802
	            -0.0086374035       -0.0209648933       -0.0248979718
	             0.0004569062       -0.0001275770        0.0001083971
	             0.0001422974        0.0000429031       -0.0002684000
	             0.0002158708       -0.0000716416       -0.0000971288
	            -0.0000980566       -0.0000004844        0.0000168157
	             0.0018477750       -0.0014078329        0.0009181460
	             0.0072732171        0.0214611403        0.0227107179
	            -0.0038544089        0.0090624504       -0.0039876523
	             0.0028437247        0.0019793342        0.0015062177
	            -0.0033772196       -0.0002458897       -0.0005276392
	             0.0040126966       -0.0065311318        0.0124226740
	            -0.0046337579        0.0069486795       -0.0120712784

	Previous optimization step data not found.  Starting new optimization.

	---Fragment 1 Intrafragment Coordinates---
	 - Coordinate -           - BOHR/RAD -       - ANG/DEG -
	 R(1,2)           =         2.659794	       1.407502
	 R(1,6)           =         2.659796	       1.407503
	 R(1,7)           =         2.771983	       1.466870
	 R(2,3)           =         2.629179	       1.391302
	 R(2,8)           =         2.052976	       1.086388
	 R(3,4)           =         2.642393	       1.398294
	 R(3,9)           =         2.050622	       1.085142
	 R(4,5)           =         2.642393	       1.398294
	 R(4,10)          =         2.051579	       1.085649
	 R(5,6)           =         2.629179	       1.391302
	 R(5,11)          =         2.050622	       1.085142
	 R(6,12)          =         2.052973	       1.086386
	 R(7,13)          =         2.513452	       1.330061
	 R(7,14)          =         2.513451	       1.330061
	 R(13,17)         =         1.911599	       1.011575
	 R(13,18)         =         1.914850	       1.013295
	 R(14,15)         =         1.914852	       1.013296
	 R(14,16)         =         1.911600	       1.011575
	 B(1,2,3)         =         2.088380	     119.655376
	 B(1,2,8)         =         2.103396	     120.515689
	 B(1,6,5)         =         2.088379	     119.655315
	 B(1,6,12)        =         2.103396	     120.515729
	 B(1,7,13)        =         2.093264	     119.935172
	 B(1,7,14)        =         2.093263	     119.935135
	 B(2,1,6)         =         2.097220	     120.161857
	 B(2,1,7)         =         2.092983	     119.919082
	 B(2,3,4)         =         2.095279	     120.050636
	 B(2,3,9)         =         2.089719	     119.732108
	 B(3,2,8)         =         2.090149	     119.756722
	 B(3,4,5)         =         2.101793	     120.423859
	 B(3,4,10)        =         2.090696	     119.788070
	 B(4,3,9)         =         2.098135	     120.214297
	 B(4,5,6)         =         2.095280	     120.050677
	 B(4,5,11)        =         2.098135	     120.214297
	 B(5,4,10)        =         2.090696	     119.788070
	 B(5,6,12)        =         2.090149	     119.756743
	 B(6,1,7)         =         2.092982	     119.919061
	 B(6,5,11)        =         2.089719	     119.732067
	 B(7,13,17)       =         2.092411	     119.886293
	 B(7,13,18)       =         2.144860	     122.891444
	 B(7,14,15)       =         2.144860	     122.891405
	 B(7,14,16)       =         2.092412	     119.886393
	 B(13,7,14)       =         2.096659	     120.129694
	 B(15,14,16)      =         2.043399	     117.078146
	 B(17,13,18)      =         2.043400	     117.078201
	 D(1,2,3,4)       =         0.007799	       0.446825
	 D(1,2,3,9)       =        -3.122896	    -178.928735
	 D(1,6,5,4)       =         0.007799	       0.446822
	 D(1,6,5,11)      =        -3.122896	    -178.928737
	*D(1,7,13,17)     =        -2.094395	    -119.999999
	 D(1,7,13,18)     =         0.968780	      55.507012
	 D(1,7,14,15)     =        -3.032165	    -173.730230
	 D(1,7,14,16)     =         0.187844	      10.762681
	 D(2,1,6,5)       =        -0.003906	      -0.223802
	 D(2,1,6,12)      =        -3.091437	    -177.126283
	 D(2,1,7,13)      =        -2.505167	    -143.535494
	 D(2,1,7,14)      =         0.636426	      36.464506
	 D(2,3,4,5)       =        -0.003942	      -0.225875
	 D(2,3,4,10)      =         3.137650	     179.774125
	 D(3,2,1,6)       =        -0.003906	      -0.223806
	 D(3,2,1,7)       =         3.137687	     179.776196
	 D(3,4,5,6)       =        -0.003942	      -0.225874
	 D(3,4,5,11)      =         3.126699	     179.146646
	 D(4,3,2,8)       =         3.095744	     177.373058
	 D(4,5,6,12)      =         3.095744	     177.373055
	 D(5,4,3,9)       =         3.126699	     179.146646
	 D(5,6,1,7)       =         3.137687	     179.776197
	 D(6,1,2,8)       =        -3.091437	    -177.126287
	 D(6,1,7,13)      =         0.636426	      36.464508
	 D(6,1,7,14)      =        -2.505167	    -143.535492
	 D(6,5,4,10)      =         3.137650	     179.774126
	 D(7,1,2,8)       =         0.050156	       2.873714
	 D(7,1,6,12)      =         0.050156	       2.873716
	 D(8,2,3,9)       =        -0.034950	      -2.002503
	 D(9,3,4,10)      =        -0.014894	      -0.853354
	 D(10,4,5,11)     =        -0.014894	      -0.853354
	 D(11,5,6,12)     =        -0.034950	      -2.002504
	 D(13,7,14,15)    =         0.109428	       6.269770
	 D(13,7,14,16)    =        -2.953748	    -169.237319
	 D(14,7,13,17)    =         1.047198	      60.000001
	 D(14,7,13,18)    =        -2.172813	    -124.492988

	Current energy   :      -381.4471403383

	Generating empirical Hessian (Schlegel '84) for each fragment.
	Taking RFO optimization step.
	Going to follow RFO solution 1.
	Using RFO vector 1.

	Determining step-restricting scale parameter for RS-RFO.
	Maximum step size allowed    0.50000

	 Iter      |step|        alpha        rfo_root  
	------------------------------------------------
	    0     0.57969       1.00000           1
	    1     0.51412       1.44039           1
	    2     0.50058       1.55492           1
	    3     0.50000       1.56007           1
	------------------------------------------------
	Norm of target step-size    0.50000
	Projected energy change by RFO approximation:        -0.0083407348

	Back-transformation to cartesian coordinates...
	Could not converge backtransformation.
	Using first guess instead.

	Back-transformation to cartesian coordinates to adjust frozen coordinates...
	Successfully converged to displaced geometry.

	--- Internal Coordinate Step in ANG or DEG, aJ/ANG or AJ/DEG ---
	 ---------------------------------------------------------------------------
	   Coordinate                Previous        Force       Change         New 
	   ----------                --------       ------       ------       ------
	    1 R(1,2)          =      1.407502     0.035539     0.005913     1.413415
	    2 R(1,6)          =      1.407503     0.005470     0.001467     1.408970
	    3 R(1,7)          =      1.466870    -0.039899    -0.006706     1.460164
	    4 R(2,3)          =      1.391302    -0.013109    -0.001288     1.390014
	    5 R(2,8)          =      1.086388     0.001420     0.000550     1.086938
	    6 R(3,4)          =      1.398294     0.012609     0.002137     1.400431
	    7 R(3,9)          =      1.085142     0.000786     0.000884     1.086027
	    8 R(4,5)          =      1.398294     0.011224     0.002586     1.400880
	    9 R(4,10)         =      1.085649     0.000798     0.000436     1.086085
	   10 R(5,6)          =      1.391302    -0.006762    -0.000419     1.390883
	   11 R(5,11)         =      1.085142    -0.000082     0.000439     1.085582
	   12 R(6,12)         =      1.086386    -0.006625     0.000862     1.087249
	   13 R(7,13)         =      1.330061     0.246969     0.030856     1.360917
	   14 R(7,14)         =      1.330061    -0.053594    -0.005449     1.324612
	   15 R(13,17)        =      1.011575     0.014706     0.004075     1.015650
	   16 R(13,18)        =      1.013295    -0.016084     0.029749     1.043044
	   17 R(14,15)        =      1.013296     0.011631     0.002767     1.016063
	   18 R(14,16)        =      1.011575     0.021563     0.003105     1.014680
	   19 B(1,2,3)        =    119.655376     0.000032     0.134743   119.790120
	   20 B(1,2,8)        =    120.515689    -0.000020    -0.061235   120.454455
	   21 B(1,6,5)        =    119.655315    -0.000031    -0.150915   119.504399
	   22 B(1,6,12)       =    120.515729    -0.000097    -0.384109   120.131620
	   23 B(1,7,13)       =    119.935172     0.000604     1.521940   121.457112
	   24 B(1,7,14)       =    119.935135     0.000019     0.048166   119.983300
	   25 B(2,1,6)        =    120.161857    -0.000013     0.010508   120.172365
	   26 B(2,1,7)        =    119.919082     0.000414     1.142293   121.061375
	   27 B(2,3,4)        =    120.050636    -0.000079    -0.272612   119.778024
	   28 B(2,3,9)        =    119.732108     0.000059     0.220075   119.952182
	   29 B(3,2,8)        =    119.756722    -0.000012    -0.067534   119.689188
	   30 B(3,4,5)        =    120.423859     0.000069     0.205426   120.629286
	   31 B(3,4,10)       =    119.788070    -0.000040    -0.140975   119.647096
	   32 B(4,3,9)        =    120.214297     0.000019     0.051050   120.265347
	   33 B(4,5,6)        =    120.050677     0.000022     0.063122   120.113799
	   34 B(4,5,11)       =    120.214297    -0.000010     0.012429   120.226726
	   35 B(5,4,10)       =    119.788070    -0.000029    -0.065637   119.722433
	   36 B(5,6,12)       =    119.756743     0.000130     0.558726   120.315469
	   37 B(6,1,7)        =    119.919061    -0.000401    -1.152802   118.766260
	   38 B(6,5,11)       =    119.732067    -0.000012    -0.072662   119.659405
	   39 B(7,13,17)      =    119.886293     0.000479     1.628519   121.514812
	   40 B(7,13,18)      =    122.891444    -0.000497    -2.774086   120.117358
	   41 B(7,14,15)      =    122.891405    -0.000359    -1.529392   121.362013
	   42 B(7,14,16)      =    119.886393     0.000210     0.849933   120.736325
	   43 B(13,7,14)      =    120.129694    -0.000623    -1.901689   118.228005
	   44 B(15,14,16)     =    117.078146     0.000142     0.527305   117.605451
	   45 B(17,13,18)     =    117.078201    -0.000027    -0.700331   116.377871
	   46 D(1,2,3,4)      =      0.446825    -0.000002    -0.170994     0.275831
	   47 D(1,2,3,9)      =   -178.928735    -0.000000    -0.030424  -178.959160
	   48 D(1,6,5,4)      =      0.446822     0.000008     0.665789     1.112611
	   49 D(1,6,5,11)     =   -178.928737     0.000002     0.137513  -178.791225
	   50 *D(1,7,13,17)   =   -119.999999    -0.000000     0.000000  -119.999999
	   51 D(1,7,13,18)    =     55.507012    -0.000161   -12.136199    43.370813
	   52 D(1,7,14,15)    =   -173.730230    -0.000029    -2.660136  -176.390365
	   53 D(1,7,14,16)    =     10.762681    -0.000006    -0.752292    10.010389
	   54 D(2,1,6,5)      =     -0.223802    -0.000012    -1.045496    -1.269297
	   55 D(2,1,6,12)     =   -177.126283    -0.000019    -1.618167  -178.744449
	   56 D(2,1,7,13)     =   -143.535494    -0.000074    -7.544226  -151.079720
	   57 D(2,1,7,14)     =     36.464506     0.000002    -0.814384    35.650122
	   58 D(2,3,4,5)      =     -0.225875    -0.000002    -0.209355    -0.435231
	   59 D(2,3,4,10)     =    179.774125     0.000002     0.187828   179.961953
	   60 D(3,2,1,6)      =     -0.223806     0.000009     0.798402     0.574596
	   61 D(3,2,1,7)      =    179.776196     0.000008     0.790523   180.566719
	   62 D(3,4,5,6)      =     -0.225874    -0.000001    -0.041679    -0.267553
	   63 D(3,4,5,11)     =    179.146646     0.000005     0.489086   179.635732
	   64 D(4,3,2,8)      =    177.373058    -0.000001    -0.043018   177.330040
	   65 D(4,5,6,12)     =    177.373055     0.000013     1.209980   178.583035
	   66 D(5,4,3,9)      =    179.146646    -0.000004    -0.349315   178.797332
	   67 D(5,6,1,7)      =    179.776197    -0.000011    -1.037797   178.738400
	   68 D(6,1,2,8)      =   -177.126287     0.000007     0.669565  -176.456722
	   69 D(6,1,7,13)     =     36.464508    -0.000075    -7.551996    28.912512
	   70 D(6,1,7,14)     =   -143.535492     0.000001    -0.822154  -144.357647
	   71 D(6,5,4,10)     =    179.774126    -0.000005    -0.439160   179.334966
	   72 D(7,1,2,8)      =      2.873714     0.000007     0.661686     3.535401
	   73 D(7,1,6,12)     =      2.873716    -0.000018    -1.610467     1.263249
	   74 D(8,2,3,9)      =     -2.002503     0.000001     0.097552    -1.904951
	   75 D(9,3,4,10)     =     -0.853354     0.000000     0.047869    -0.805485
	   76 D(10,4,5,11)    =     -0.853354     0.000001     0.091605    -0.761749
	   77 D(11,5,6,12)    =     -2.002504     0.000007     0.681704    -1.320800
	   78 D(13,7,14,15)   =      6.269770     0.000046     3.854576    10.124347
	   79 D(13,7,14,16)   =   -169.237319     0.000070     5.762420  -163.474899
	   80 D(14,7,13,17)   =     60.000001    -0.000076    -6.615509    53.384492
	   81 D(14,7,13,18)   =   -124.492988    -0.000237   -18.751709  -143.244697
	 ---------------------------------------------------------------------------
	Successfully symmetrized geometry.

  ==> Convergence Check <==

  Measures of convergence in internal coordinates in au.
  Criteria marked as inactive (o), active & met (*), and active & unmet ( ).
  --------------------------------------------------------------------------------------------- ~
   Step     Total Energy     Delta E     MAX Force     RMS Force      MAX Disp      RMS Disp    ~
  --------------------------------------------------------------------------------------------- ~
    Convergence Criteria    1.00e-06 *    3.00e-04 *             o    1.20e-03 *             o  ~
  --------------------------------------------------------------------------------------------- ~
      1    -381.44714034   -3.81e+02      3.00e-02      4.55e-03 o    3.27e-01      5.39e-02 o  ~
  ---------------------------------------------------------------------------------------------

	Writing optimization data to binary file.
	Structure for next step:
	Cartesian Geometry (in Angstrom)
	    C    -0.0295337438   0.0436576347  -0.1791535859
	    C     0.0508060658   1.2534092580   0.5473378494
	    C     0.0696542467   1.2245255145   1.9369239833
	    C     0.0147515205  -0.0034911798   2.6078689783
	    C    -0.0682437274  -1.2048112823   1.8920436214
	    C    -0.1025832194  -1.1877290492   0.5016897422
	    C    -0.0388497654   0.0409150980  -1.6392857618
	    H     0.0495083426   2.2086250269   0.0286898834
	    H     0.1142609137   2.1533073361   2.4980196281
	    H     0.0302356820  -0.0236146039   3.6936569046
	    H    -0.1045011392  -2.1534025564   2.4186814020
	    H    -0.1437909847  -2.1190961021  -0.0577446299
	    N    -0.6671968494  -0.9394589705  -2.3436595784
	    N     0.6825956625   0.9283531257  -2.3075416466
	    H     0.6498222470   0.9805994474  -3.3217307802
	    H     1.3586858321   1.5137513424  -1.8281810701
	    H    -0.1609026521  -1.5350149504  -2.9921379224
	    H    -1.6117004315  -1.2711340888  -2.0506660175
			--------------------------
			 OPTKING Finished Execution 
			--------------------------

    Structure for next step:
    Molecular point group: c1
    Full point group: C1

    Geometry (in Angstrom), charge = 1, multiplicity = 1:

    C           -0.029533743794     0.043657634733    -0.179153585853
    C            0.050806065823     1.253409257963     0.547337849388
    C            0.069654246749     1.224525514538     1.936923983287
    C            0.014751520472    -0.003491179805     2.607868978274
    C           -0.068243727442    -1.204811282348     1.892043621439
    C           -0.102583219418    -1.187729049245     0.501689742222
    C           -0.038849765415     0.040915097988    -1.639285761768
    H            0.049508342649     2.208625026860     0.028689883396
    H            0.114260913653     2.153307336080     2.498019628131
    H            0.030235682020    -0.023614603941     3.693656904585
    H           -0.104501139185    -2.153402556370     2.418681401990
    H           -0.143790984687    -2.119096102135    -0.057744629896
    N           -0.667196849434    -0.939458970532    -2.343659578360
    N            0.682595662472     0.928353125678    -2.307541646617
    H            0.649822247014     0.980599447435    -3.321730780218
    H            1.358685832105     1.513751342364    -1.828181070110
    H           -0.160902652118    -1.535014950426    -2.992137922438
    H           -1.611700431463    -1.271134088837    -2.050666017453

gradient() will perform analytic gradient computation.

*** tstart() called on oliva.prib.upf.edu
*** at Sat Sep 29 20:25:18 2018

   => Loading Basis Set <=

    Name: 6-31G*
    Role: ORBITAL
    Keyword: BASIS
    atoms 1-7         entry C          line   111 file /shared/joao/test_parameterize/miniconda3/share/psi4/basis/6-31gs.gbs 
    atoms 8-12, 15-18 entry H          line    44 file /shared/joao/test_parameterize/miniconda3/share/psi4/basis/6-31gs.gbs 
    atoms 13-14       entry N          line   128 file /shared/joao/test_parameterize/miniconda3/share/psi4/basis/6-31gs.gbs 


         ---------------------------------------------------------
                                   SCF
            by Justin Turney, Rob Parrish, Andy Simmonett
                             and Daniel Smith
                              RKS Reference
                        4 Threads,   2861 MiB Core
         ---------------------------------------------------------

  ==> Geometry <==

    Molecular point group: c1
    Full point group: C1

    Geometry (in Angstrom), charge = 1, multiplicity = 1:

       Center              X                  Y                   Z               Mass       
    ------------   -----------------  -----------------  -----------------  -----------------
         C           -0.029533743794     0.043657634733    -0.179153585853    12.000000000000
         C            0.050806065823     1.253409257963     0.547337849388    12.000000000000
         C            0.069654246749     1.224525514538     1.936923983287    12.000000000000
         C            0.014751520472    -0.003491179805     2.607868978274    12.000000000000
         C           -0.068243727442    -1.204811282348     1.892043621439    12.000000000000
         C           -0.102583219418    -1.187729049245     0.501689742222    12.000000000000
         C           -0.038849765415     0.040915097988    -1.639285761768    12.000000000000
         H            0.049508342649     2.208625026860     0.028689883396     1.007825032070
         H            0.114260913653     2.153307336080     2.498019628131     1.007825032070
         H            0.030235682020    -0.023614603941     3.693656904585     1.007825032070
         H           -0.104501139185    -2.153402556370     2.418681401990     1.007825032070
         H           -0.143790984687    -2.119096102135    -0.057744629896     1.007825032070
         N           -0.667196849434    -0.939458970532    -2.343659578360    14.003074004780
         N            0.682595662472     0.928353125678    -2.307541646617    14.003074004780
         H            0.649822247014     0.980599447435    -3.321730780218     1.007825032070
         H            1.358685832105     1.513751342364    -1.828181070110     1.007825032070
         H           -0.160902652118    -1.535014950426    -2.992137922438     1.007825032070
         H           -1.611700431463    -1.271134088837    -2.050666017453     1.007825032070

  Running in c1 symmetry.

  Rotational constants: A =      0.12064  B =      0.03965  C =      0.03106 [cm^-1]
  Rotational constants: A =   3616.79409  B =   1188.80746  C =    931.21609 [MHz]
  Nuclear repulsion =  415.840070108730231

  Charge       = 1
  Multiplicity = 1
  Electrons    = 64
  Nalpha       = 32
  Nbeta        = 32

  ==> Algorithm <==

  SCF Algorithm Type is DF.
  DIIS enabled.
  MOM disabled.
  Fractional occupation disabled.
  Guess Type is READ.
  Energy threshold   = 1.00e-08
  Density threshold  = 1.00e-08
  Integral threshold = 0.00e+00

  ==> Primary Basis <==

  Basis Set: 6-31G*
    Blend: 6-31G*
    Number of shells: 72
    Number of basis function: 153
    Number of Cartesian functions: 153
    Spherical Harmonics?: false
    Max angular momentum: 2

  ==> DFT Potential <==

   => Composite Functional: B3LYP-D3ZERO <= 

    B3LYP-d3zero Hyb-GGA Exchange-Correlation Functional

    P. J. Stephens, F. J. Devlin, C. F. Chabalowski, and M. J. Frisch, J. Phys. Chem. 98, 11623 (1994)

    Deriv               =              1
    GGA                 =           TRUE
    Meta                =          FALSE

    Exchange Hybrid     =           TRUE
    MP2 Hybrid          =          FALSE

   => Exchange Functionals <=

    0.0800   Slater exchange
    0.7200         Becke 88

   => Exact (HF) Exchange <=

    0.2000               HF 

   => Correlation Functionals <=

    0.1900   Vosko, Wilk & Nusair (VWN5_RPA)
    0.8100   Lee, Yang & Parr

   => Molecular Quadrature <=

    Radial Scheme       =       TREUTLER
    Pruning Scheme      =           FLAT
    Nuclear Scheme      =       TREUTLER

    BS radius alpha     =              1
    Pruning alpha       =              1
    Radial Points       =             75
    Spherical Points    =            302
    Total Points        =         397055
    Total Blocks        =           3008
    Max Points          =            256
    Max Functions       =            149

   => -D3ZERO: Empirical Dispersion <=

    Grimme's -D3 (zero-damping) Dispersion Correction
    Grimme S.; Antony J.; Ehrlich S.; Krieg H. (2010), J. Chem. Phys., 132: 154104

        S6 =   1.000000E+00
        S8 =   1.703000E+00
       SR6 =   1.261000E+00
       SR8 =   1.000000E+00
    ALPHA6 =   1.400000E+01

   => Loading Basis Set <=

    Name: (6-31G* AUX)
    Role: JKFIT
    Keyword: DF_BASIS_SCF
    atoms 1-7         entry C          line   121 file /shared/joao/test_parameterize/miniconda3/share/psi4/basis/cc-pvdz-jkfit.gbs 
    atoms 8-12, 15-18 entry H          line    51 file /shared/joao/test_parameterize/miniconda3/share/psi4/basis/cc-pvdz-jkfit.gbs 
    atoms 13-14       entry N          line   171 file /shared/joao/test_parameterize/miniconda3/share/psi4/basis/cc-pvdz-jkfit.gbs 

  Reading orbitals from file 180, no projection.

  ==> Pre-Iterations <==

   -------------------------------------------------------
    Irrep   Nso     Nmo     Nalpha   Nbeta   Ndocc  Nsocc
   -------------------------------------------------------
     A        153     153       0       0       0       0
   -------------------------------------------------------
    Total     153     153      32      32      32       0
   -------------------------------------------------------

  ==> Integral Setup <==

  ==> DiskDFJK: Density-Fitted J/K Matrices <==

    J tasked:                  Yes
    K tasked:                  Yes
    wK tasked:                  No
    OpenMP threads:              4
    Integrals threads:           4
    Memory (MB):              2002
    Algorithm:                Core
    Integral Cache:           NONE
    Schwarz Cutoff:          1E-12
    Fitting Condition:       1E-12

   => Auxiliary Basis Set <=

  Basis Set: (6-31G* AUX)
    Blend: CC-PVDZ-JKFIT
    Number of shells: 297
    Number of basis function: 954
    Number of Cartesian functions: 954
    Spherical Harmonics?: false
    Max angular momentum: 3

  Minimum eigenvalue in the overlap matrix is 4.9194686082E-04.
  Using Symmetric Orthogonalization.

  SCF Guess: Orbitals guess was supplied from a previous computation.

  ==> Iterations <==

                           Total Energy        Delta E     RMS |[F,P]|

   @DF-RKS iter   0:  -381.40586241581423   -3.81406e+02   2.35914e-03 
   @DF-RKS iter   1:  -381.45438550115676   -4.85231e-02   3.59711e-04 
   @DF-RKS iter   2:  -381.45422551919012    1.59982e-04   4.81311e-04 DIIS
   @DF-RKS iter   3:  -381.45486455050701   -6.39031e-04   1.01487e-04 DIIS
   @DF-RKS iter   4:  -381.45488746189864   -2.29114e-05   4.92129e-05 DIIS
   @DF-RKS iter   5:  -381.45489438116124   -6.91926e-06   1.31370e-05 DIIS
   @DF-RKS iter   6:  -381.45489484873571   -4.67574e-07   5.03242e-06 DIIS
   @DF-RKS iter   7:  -381.45489492209254   -7.33568e-08   1.42884e-06 DIIS
   @DF-RKS iter   8:  -381.45489492762295   -5.53041e-09   4.95653e-07 DIIS
   @DF-RKS iter   9:  -381.45489492840574   -7.82791e-10   1.44912e-07 DIIS
   @DF-RKS iter  10:  -381.45489492846178   -5.60476e-11   6.04343e-08 DIIS
   @DF-RKS iter  11:  -381.45489492847224   -1.04592e-11   1.89109e-08 DIIS
   @DF-RKS iter  12:  -381.45489492847400   -1.76215e-12   4.51879e-09 DIIS

  ==> Post-Iterations <==

    Orbital Energies [Eh]
    ---------------------

    Doubly Occupied:                                                      

       1A    -14.574440     2A    -14.547923     3A    -10.495093  
       4A    -10.373001     5A    -10.359424     6A    -10.358297  
       7A    -10.348710     8A    -10.343508     9A    -10.342678  
      10A     -1.174502    11A     -1.077307    12A     -1.015048  
      13A     -0.925868    14A     -0.904217    15A     -0.840221  
      16A     -0.778318    17A     -0.768513    18A     -0.737411  
      19A     -0.724629    20A     -0.690942    21A     -0.670701  
      22A     -0.628591    23A     -0.608139    24A     -0.583814  
      25A     -0.579537    26A     -0.559838    27A     -0.518601  
      28A     -0.508164    29A     -0.499737    30A     -0.461359  
      31A     -0.415568    32A     -0.408050  

    Virtual:                                                              

      33A     -0.237958    34A     -0.157561    35A     -0.134228  
      36A     -0.101175    37A     -0.074366    38A     -0.050907  
      39A     -0.038360    40A     -0.020453    41A      0.005493  
      42A      0.008836    43A      0.020794    44A      0.052151  
      45A      0.058999    46A      0.087386    47A      0.126259  
      48A      0.132060    49A      0.155420    50A      0.159107  
      51A      0.209994    52A      0.235215    53A      0.297519  
      54A      0.352909    55A      0.363411    56A      0.379102  
      57A      0.391590    58A      0.397237    59A      0.416091  
      60A      0.419568    61A      0.439579    62A      0.447611  
      63A      0.453096    64A      0.468890    65A      0.472335  
      66A      0.479410    67A      0.488195    68A      0.518499  
      69A      0.521997    70A      0.532682    71A      0.554371  
      72A      0.579689    73A      0.614532    74A      0.653097  
      75A      0.674523    76A      0.684662    77A      0.697954  
      78A      0.701027    79A      0.713236    80A      0.714057  
      81A      0.725009    82A      0.754024    83A      0.771923  
      84A      0.775422    85A      0.805896    86A      0.816361  
      87A      0.856050    88A      0.911189    89A      0.941411  
      90A      0.976575    91A      0.988289    92A      1.020763  
      93A      1.058465    94A      1.076225    95A      1.127218  
      96A      1.139607    97A      1.225911    98A      1.272744  
      99A      1.275671   100A      1.305181   101A      1.316396  
     102A      1.339342   103A      1.353386   104A      1.362721  
     105A      1.446242   106A      1.470644   107A      1.555995  
     108A      1.576444   109A      1.627036   110A      1.657430  
     111A      1.676843   112A      1.735222   113A      1.748538  
     114A      1.796813   115A      1.807981   116A      1.820842  
     117A      1.892180   118A      1.918790   119A      1.948139  
     120A      1.975639   121A      1.980888   122A      1.998053  
     123A      2.024676   124A      2.032386   125A      2.115917  
     126A      2.130588   127A      2.152628   128A      2.185140  
     129A      2.232475   130A      2.333732   131A      2.336674  
     132A      2.372656   133A      2.443172   134A      2.451530  
     135A      2.481847   136A      2.503049   137A      2.540814  
     138A      2.583582   139A      2.595268   140A      2.624938  
     141A      2.731735   142A      2.829206   143A      2.982372  
     144A      3.251673   145A      3.623733   146A      3.661742  
     147A      3.908300   148A      3.942564   149A      3.961334  
     150A      4.042739   151A      4.169660   152A      4.252991  
     153A      4.543829  

    Final Occupation by Irrep:
              A 
    DOCC [    32 ]

  Energy converged.

  @DF-RKS Final Energy:  -381.45489492847400

   => Energetics <=

    Nuclear Repulsion Energy =            415.8400701087302309
    One-Electron Energy =               -1327.0151811205655576
    Two-Electron Energy =                 574.1125273737212638
    DFT Exchange-Correlation Energy =     -44.3803247003599566
    Empirical Dispersion Energy =          -0.0119865900000000
    VV10 Nonlocal Energy =                  0.0000000000000000
    Total Energy =                       -381.4548949284739479



Properties will be evaluated at   0.000000,   0.000000,   0.000000 [a0]

Properties computed using the SCF density matrix

  Nuclear Dipole Moment: [e a0]
     X:    -0.6323      Y:     1.2758      Z:    -0.3123

  Electronic Dipole Moment: [e a0]
     X:     0.8576      Y:    -1.3107      Z:    -1.6533

  Dipole Moment: [e a0]
     X:     0.2253      Y:    -0.0348      Z:    -1.9657     Total:     1.9788

  Dipole Moment: [D]
     X:     0.5726      Y:    -0.0886      Z:    -4.9962     Total:     5.0297


*** tstop() called on oliva.prib.upf.edu at Sat Sep 29 20:25:43 2018
Module time:
	user time   =      92.39 seconds =       1.54 minutes
	system time =       0.64 seconds =       0.01 minutes
	total time  =         25 seconds =       0.42 minutes
Total time:
	user time   =     229.50 seconds =       3.83 minutes
	system time =       1.90 seconds =       0.03 minutes
	total time  =         65 seconds =       1.08 minutes

*** tstart() called on oliva.prib.upf.edu
*** at Sat Sep 29 20:25:43 2018


         ------------------------------------------------------------
                                   SCF GRAD                          
                          Rob Parrish, Justin Turney,                
                       Andy Simmonett, and Alex Sokolov              
         ------------------------------------------------------------

  ==> Geometry <==

    Molecular point group: c1
    Full point group: C1

    Geometry (in Angstrom), charge = 1, multiplicity = 1:

       Center              X                  Y                   Z               Mass       
    ------------   -----------------  -----------------  -----------------  -----------------
         C           -0.029533743794     0.043657634733    -0.179153585853    12.000000000000
         C            0.050806065823     1.253409257963     0.547337849388    12.000000000000
         C            0.069654246749     1.224525514538     1.936923983287    12.000000000000
         C            0.014751520472    -0.003491179805     2.607868978274    12.000000000000
         C           -0.068243727442    -1.204811282348     1.892043621439    12.000000000000
         C           -0.102583219418    -1.187729049245     0.501689742222    12.000000000000
         C           -0.038849765415     0.040915097988    -1.639285761768    12.000000000000
         H            0.049508342649     2.208625026860     0.028689883396     1.007825032070
         H            0.114260913653     2.153307336080     2.498019628131     1.007825032070
         H            0.030235682020    -0.023614603941     3.693656904585     1.007825032070
         H           -0.104501139185    -2.153402556370     2.418681401990     1.007825032070
         H           -0.143790984687    -2.119096102135    -0.057744629896     1.007825032070
         N           -0.667196849434    -0.939458970532    -2.343659578360    14.003074004780
         N            0.682595662472     0.928353125678    -2.307541646617    14.003074004780
         H            0.649822247014     0.980599447435    -3.321730780218     1.007825032070
         H            1.358685832105     1.513751342364    -1.828181070110     1.007825032070
         H           -0.160902652118    -1.535014950426    -2.992137922438     1.007825032070
         H           -1.611700431463    -1.271134088837    -2.050666017453     1.007825032070

  Nuclear repulsion =  415.840070108730231

  ==> Basis Set <==

  Basis Set: 6-31G*
    Blend: 6-31G*
    Number of shells: 72
    Number of basis function: 153
    Number of Cartesian functions: 153
    Spherical Harmonics?: false
    Max angular momentum: 2

  ==> DFJKGrad: Density-Fitted SCF Gradients <==

    Gradient:                    1
    J tasked:                  Yes
    K tasked:                  Yes
    wK tasked:                  No
    OpenMP threads:              4
    Integrals threads:           4
    Memory (MB):              2002
    Schwarz Cutoff:          0E+00
    Fitting Condition:       1E-12

   => Auxiliary Basis Set <=

  Basis Set: (6-31G* AUX)
    Blend: CC-PVDZ-JKFIT
    Number of shells: 297
    Number of basis function: 954
    Number of Cartesian functions: 954
    Spherical Harmonics?: false
    Max angular momentum: 3

  ==> DFT Potential <==

   => Composite Functional: B3LYP-D3ZERO <= 

    B3LYP-d3zero Hyb-GGA Exchange-Correlation Functional

    P. J. Stephens, F. J. Devlin, C. F. Chabalowski, and M. J. Frisch, J. Phys. Chem. 98, 11623 (1994)

    Deriv               =              1
    GGA                 =           TRUE
    Meta                =          FALSE

    Exchange Hybrid     =           TRUE
    MP2 Hybrid          =          FALSE

   => Exchange Functionals <=

    0.0800   Slater exchange
    0.7200         Becke 88

   => Exact (HF) Exchange <=

    0.2000               HF 

   => Correlation Functionals <=

    0.1900   Vosko, Wilk & Nusair (VWN5_RPA)
    0.8100   Lee, Yang & Parr

   => Molecular Quadrature <=

    Radial Scheme       =       TREUTLER
    Pruning Scheme      =           FLAT
    Nuclear Scheme      =       TREUTLER

    BS radius alpha     =              1
    Pruning alpha       =              1
    Radial Points       =             75
    Spherical Points    =            302
    Total Points        =         397055
    Total Blocks        =           3008
    Max Points          =            256
    Max Functions       =            149


  -Total Gradient:
     Atom            X                  Y                   Z
    ------   -----------------  -----------------  -----------------
       1        0.010726605245    -0.007234397591     0.002505641610
       2       -0.000234646950     0.000814114771    -0.000257367390
       3       -0.000671026878     0.000033414133     0.001079308359
       4        0.000265087626     0.001232312794     0.000564739979
       5       -0.000162367021    -0.000451173256    -0.000428708427
       6        0.000624448858     0.000881294775    -0.001289104603
       7       -0.006085232885     0.012083009579    -0.003004373999
       8        0.000308377927     0.000284243695     0.000280999856
       9       -0.000000436259     0.000612402492     0.000293147015
      10       -0.000015089557     0.000135942148     0.000200653012
      11       -0.000127840422    -0.000419013833    -0.000147419482
      12        0.000279917222    -0.001451741164    -0.000830801610
      13        0.021237803524     0.002901185743    -0.007996291369
      14       -0.004194057334     0.001668123470     0.003117034219
      15        0.001043696205    -0.000076944369    -0.001255001821
      16        0.000556853773     0.000534880667     0.000639558385
      17        0.003590979764    -0.008716632404     0.006762798711
      18       -0.027139725222    -0.002833150284    -0.000253315041


*** tstop() called on oliva.prib.upf.edu at Sat Sep 29 20:25:50 2018
Module time:
	user time   =      27.06 seconds =       0.45 minutes
	system time =       0.27 seconds =       0.00 minutes
	total time  =          7 seconds =       0.12 minutes
Total time:
	user time   =     256.62 seconds =       4.28 minutes
	system time =       2.18 seconds =       0.04 minutes
	total time  =         72 seconds =       1.20 minutes

			-----------------------------------------
			 OPTKING 2.0: for geometry optimizations 
			  - R.A. King,  Bethel University        
			-----------------------------------------
	At level 1: Red. Int., RFO, no backsteps, dynamic trust

	Previous internal coordinate definitions found.
	---Fragment 1 Geometry and Gradient---
	 C          -0.0558106875        0.0825009733       -0.3385512130
	 C           0.0960095503        2.3686002300        1.0343186375
	 C           0.1316274503        2.3140178652        3.6602558686
	 C           0.0278763337       -0.0065973737        4.9281581594
	 C          -0.1289619552       -2.2767633654        3.5754442760
	 C          -0.1938541905       -2.2444826231        0.9480562165
	 C          -0.0734154170        0.0773183299       -3.0978011433
	 H           0.0935572089        4.1736964310        0.0542160224
	 H           0.2159218345        4.0691611451        4.7205729717
	 H           0.0571371585       -0.0446251342        6.9799999785
	 H          -0.1974785336       -4.0693410854        4.5706454525
	 H          -0.2717255814       -4.0045112823       -0.1091215361
	 N          -1.2608193222       -1.7753201674       -4.4288747518
	 N           1.2899188616        1.7543331621       -4.3606217523
	 H           1.2279860819        1.8530644017       -6.2771614618
	 H           2.5675441233        2.8605754704       -3.4547615438
	 H          -0.3040619466       -2.9007578662       -5.6543212252
	 H          -3.0456724237       -2.4020953061       -3.8751971630
	             0.0107266052       -0.0072343976        0.0025056416
	            -0.0002346469        0.0008141148       -0.0002573674
	            -0.0006710269        0.0000334141        0.0010793084
	             0.0002650876        0.0012323128        0.0005647400
	            -0.0001623670       -0.0004511733       -0.0004287084
	             0.0006244489        0.0008812948       -0.0012891046
	            -0.0060852329        0.0120830096       -0.0030043740
	             0.0003083779        0.0002842437        0.0002809999
	            -0.0000004363        0.0006124025        0.0002931470
	            -0.0000150896        0.0001359421        0.0002006530
	            -0.0001278404       -0.0004190138       -0.0001474195
	             0.0002799172       -0.0014517412       -0.0008308016
	             0.0212378035        0.0029011857       -0.0079962914
	            -0.0041940573        0.0016681235        0.0031170342
	             0.0010436962       -0.0000769444       -0.0012550018
	             0.0005568538        0.0005348807        0.0006395584
	             0.0035909798       -0.0087166324        0.0067627987
	            -0.0271397252       -0.0028331503       -0.0002533150

	---Fragment 1 Intrafragment Coordinates---
	 - Coordinate -           - BOHR/RAD -       - ANG/DEG -
	 R(1,2)           =         2.670968	       1.413415
	 R(1,6)           =         2.662568	       1.408970
	 R(1,7)           =         2.759311	       1.460164
	 R(2,3)           =         2.626746	       1.390014
	 R(2,8)           =         2.054015	       1.086938
	 R(3,4)           =         2.646431	       1.400431
	 R(3,9)           =         2.052293	       1.086027
	 R(4,5)           =         2.647279	       1.400880
	 R(4,10)          =         2.052403	       1.086085
	 R(5,6)           =         2.628388	       1.390883
	 R(5,11)          =         2.051452	       1.085582
	 R(6,12)          =         2.054602	       1.087249
	 R(7,13)          =         2.571761	       1.360917
	 R(7,14)          =         2.503153	       1.324612
	 R(13,17)         =         1.919300	       1.015650
	 R(13,18)         =         1.971067	       1.043044
	 R(14,15)         =         1.920080	       1.016063
	 R(14,16)         =         1.917467	       1.014680
	 B(1,2,3)         =         2.090732	     119.790120
	 B(1,2,8)         =         2.102327	     120.454455
	 B(1,6,5)         =         2.085745	     119.504399
	 B(1,6,12)        =         2.096692	     120.131620
	 B(1,7,13)        =         2.119827	     121.457112
	 B(1,7,14)        =         2.094104	     119.983300
	 B(2,1,6)         =         2.097403	     120.172365
	 B(2,1,7)         =         2.112920	     121.061375
	 B(2,3,4)         =         2.090521	     119.778024
	 B(2,3,9)         =         2.093561	     119.952182
	 B(3,2,8)         =         2.088970	     119.689188
	 B(3,4,5)         =         2.105378	     120.629286
	 B(3,4,10)        =         2.088236	     119.647096
	 B(4,3,9)         =         2.099026	     120.265347
	 B(4,5,6)         =         2.096381	     120.113799
	 B(4,5,11)        =         2.098352	     120.226726
	 B(5,4,10)        =         2.089551	     119.722433
	 B(5,6,12)        =         2.099901	     120.315469
	 B(6,1,7)         =         2.072862	     118.766260
	 B(6,5,11)        =         2.088451	     119.659405
	 B(7,13,17)       =         2.120834	     121.514812
	 B(7,13,18)       =         2.096443	     120.117358
	 B(7,14,15)       =         2.118167	     121.362013
	 B(7,14,16)       =         2.107246	     120.736325
	 B(13,7,14)       =         2.063468	     118.228005
	 B(15,14,16)      =         2.052602	     117.605451
	 B(17,13,18)      =         2.031177	     116.377871
	 D(1,2,3,4)       =         0.004814	       0.275831
	 D(1,2,3,9)       =        -3.123427	    -178.959160
	 D(1,6,5,4)       =         0.019419	       1.112611
	 D(1,6,5,11)      =        -3.120496	    -178.791225
	*D(1,7,13,17)     =        -2.094395	    -119.999999
	 D(1,7,13,18)     =         0.756963	      43.370813
	 D(1,7,14,15)     =        -3.078593	    -176.390365
	 D(1,7,14,16)     =         0.174714	      10.010389
	 D(2,1,6,5)       =        -0.022153	      -1.269297
	 D(2,1,6,12)      =        -3.119679	    -178.744449
	 D(2,1,7,13)      =        -2.636839	    -151.079720
	 D(2,1,7,14)      =         0.622212	      35.650122
	 D(2,3,4,5)       =        -0.007596	      -0.435231
	 D(2,3,4,10)      =         3.140929	     179.961953
	 D(3,2,1,6)       =         0.010029	       0.574596
	 D(3,2,1,7)       =        -3.131702	    -179.433281
	 D(3,4,5,6)       =        -0.004670	      -0.267553
	 D(3,4,5,11)      =         3.135235	     179.635732
	 D(4,3,2,8)       =         3.094993	     177.330040
	 D(4,5,6,12)      =         3.116862	     178.583035
	 D(5,4,3,9)       =         3.120602	     178.797332
	 D(5,6,1,7)       =         3.119574	     178.738400
	 D(6,1,2,8)       =        -3.079751	    -176.456722
	 D(6,1,7,13)      =         0.504619	      28.912512
	 D(6,1,7,14)      =        -2.519516	    -144.357647
	 D(6,5,4,10)      =         3.129986	     179.334966
	 D(7,1,2,8)       =         0.061704	       3.535401
	 D(7,1,6,12)      =         0.022048	       1.263249
	 D(8,2,3,9)       =        -0.033248	      -1.904951
	 D(9,3,4,10)      =        -0.014058	      -0.805485
	 D(10,4,5,11)     =        -0.013295	      -0.761749
	 D(11,5,6,12)     =        -0.023052	      -1.320800
	 D(13,7,14,15)    =         0.176703	      10.124347
	 D(13,7,14,16)    =        -2.853175	    -163.474899
	 D(14,7,13,17)    =         0.931735	      53.384492
	 D(14,7,13,18)    =        -2.500092	    -143.244697

	Current energy   :      -381.4548949285

	Energy change for the previous step:
		Projected    :        -0.0083407348
		Actual       :        -0.0077545901
	Energy ratio indicates good step: Trust radius increased to 1.000e+00.


	Performing BFGS update.
	Previous computed or guess Hessian on step 1.
	Steps to be used in Hessian update: 1
	Taking RFO optimization step.
	Going to follow RFO solution 1.
	Using RFO vector 1.
	Norm of target step-size    0.52223
	Projected energy change by RFO approximation:        -0.0038174486

	Back-transformation to cartesian coordinates...
	Could not converge backtransformation.
	Using first guess instead.

	Back-transformation to cartesian coordinates to adjust frozen coordinates...
	Successfully converged to displaced geometry.

	--- Internal Coordinate Step in ANG or DEG, aJ/ANG or AJ/DEG ---
	 ---------------------------------------------------------------------------
	   Coordinate                Previous        Force       Change         New 
	   ----------                --------       ------       ------       ------
	    1 R(1,2)          =      1.413415    -0.015122    -0.000511     1.412905
	    2 R(1,6)          =      1.408970     0.007547     0.002253     1.411223
	    3 R(1,7)          =      1.460164    -0.016824    -0.004807     1.455357
	    4 R(2,3)          =      1.390014    -0.008339    -0.001441     1.388573
	    5 R(2,8)          =      1.086938    -0.000948     0.000245     1.087183
	    6 R(3,4)          =      1.400431    -0.000061     0.000910     1.401341
	    7 R(3,9)          =      1.086027    -0.005568    -0.000207     1.085819
	    8 R(4,5)          =      1.400880    -0.015846    -0.000931     1.399948
	    9 R(4,10)         =      1.086085    -0.001639    -0.000116     1.085968
	   10 R(5,6)          =      1.390883    -0.004330    -0.000567     1.390316
	   11 R(5,11)         =      1.085582    -0.002465    -0.000053     1.085528
	   12 R(6,12)         =      1.087249    -0.013674    -0.001656     1.085592
	   13 R(7,13)         =      1.360917    -0.066452     0.000201     1.361119
	   14 R(7,14)         =      1.324612     0.010320     0.000263     1.324874
	   15 R(13,17)        =      1.015650    -0.021273    -0.001426     1.014224
	   16 R(13,18)        =      1.043044    -0.209318     0.027569     1.070613
	   17 R(14,15)        =      1.016063    -0.010004    -0.000427     1.015636
	   18 R(14,16)        =      1.014680    -0.008088    -0.000431     1.014249
	   19 B(1,2,3)        =    119.790120    -0.000000     0.028571   119.818690
	   20 B(1,2,8)        =    120.454455    -0.000031    -0.141830   120.312624
	   21 B(1,6,5)        =    119.504399     0.000043     0.107344   119.611743
	   22 B(1,6,12)       =    120.131620    -0.000023    -0.144117   119.987503
	   23 B(1,7,13)       =    121.457112     0.000228     1.131403   122.588515
	   24 B(1,7,14)       =    119.983300     0.000189     0.711022   120.694322
	   25 B(2,1,6)        =    120.172365    -0.000046    -0.123856   120.048509
	   26 B(2,1,7)        =    121.061375    -0.000102    -0.150201   120.911174
	   27 B(2,3,4)        =    119.778024     0.000040     0.037166   119.815190
	   28 B(2,3,9)        =    119.952182    -0.000015     0.015628   119.967810
	   29 B(3,2,8)        =    119.689188     0.000032     0.133600   119.822788
	   30 B(3,4,5)        =    120.629286    -0.000003     0.047218   120.676504
	   31 B(3,4,10)       =    119.647096     0.000012     0.005926   119.653021
	   32 B(4,3,9)        =    120.265347    -0.000025    -0.055686   120.209661
	   33 B(4,5,6)        =    120.113799    -0.000033    -0.105720   120.008079
	   34 B(4,5,11)       =    120.226726    -0.000010    -0.046440   120.180286
	   35 B(5,4,10)       =    119.722433    -0.000009    -0.052978   119.669455
	   36 B(5,6,12)       =    120.315469    -0.000019     0.033097   120.348566
	   37 B(6,1,7)        =    118.766260     0.000148     0.269068   119.035328
	   38 B(6,5,11)       =    119.659405     0.000043     0.151736   119.811141
	   39 B(7,13,17)      =    121.514812     0.000085    -0.442205   121.072607
	   40 B(7,13,18)      =    120.117358    -0.000293    -4.878502   115.238856
	   41 B(7,14,15)      =    121.362013    -0.000067    -0.598834   120.763180
	   42 B(7,14,16)      =    120.736325     0.000049     0.485946   121.222272
	   43 B(13,7,14)      =    118.228005    -0.000415    -1.807901   116.420104
	   44 B(15,14,16)     =    117.605451     0.000022     0.231925   117.837376
	   45 B(17,13,18)     =    116.377871     0.000048    -2.392402   113.985469
	   46 D(1,2,3,4)      =      0.275831    -0.000004    -0.602093    -0.326262
	   47 D(1,2,3,9)      =   -178.959160    -0.000003    -0.383790  -179.342950
	   48 D(1,6,5,4)      =      1.112611     0.000000     0.083528     1.196138
	   49 D(1,6,5,11)     =   -178.791225     0.000002     0.242717  -178.548508
	   50 *D(1,7,13,17)   =   -119.999999     0.000000    -0.000000  -119.999999
	   51 D(1,7,13,18)    =     43.370813    -0.000148   -19.397104    23.973709
	   52 D(1,7,14,15)    =   -176.390365     0.000016     1.953951  -174.436414
	   53 D(1,7,14,16)    =     10.010389     0.000004     0.495531    10.505920
	   54 D(2,1,6,5)      =     -1.269297    -0.000004    -0.535281    -1.804578
	   55 D(2,1,6,12)     =   -178.744449    -0.000003    -0.442320  -179.186769
	   56 D(2,1,7,13)     =   -151.079720    -0.000018    -3.149925  -154.229645
	   57 D(2,1,7,14)     =     35.650122    -0.000015    -3.393875    32.256247
	   58 D(2,3,4,5)      =     -0.435231     0.000001     0.150632    -0.284599
	   59 D(2,3,4,10)     =    179.961953     0.000001     0.122082   180.084035
	   60 D(3,2,1,6)      =      0.574596     0.000005     0.795583     1.370179
	   61 D(3,2,1,7)      =   -179.433281     0.000010     1.623889  -177.809392
	   62 D(3,4,5,6)      =     -0.267553     0.000001     0.111566    -0.155987
	   63 D(3,4,5,11)     =    179.635732    -0.000000    -0.048024   179.587708
	   64 D(4,3,2,8)      =    177.330040    -0.000001    -0.112248   177.217792
	   65 D(4,5,6,12)     =    178.583035    -0.000000    -0.014319   178.568716
	   66 D(5,4,3,9)      =    178.797332    -0.000001    -0.067650   178.729682
	   67 D(5,6,1,7)      =    178.738400    -0.000008    -1.348059   177.390342
	   68 D(6,1,2,8)      =   -176.456722     0.000002     0.295040  -176.161682
	   69 D(6,1,7,13)     =     28.912512    -0.000013    -2.329910    26.582602
	   70 D(6,1,7,14)     =   -144.357647    -0.000010    -2.573860  -146.931506
	   71 D(6,5,4,10)     =    179.334966     0.000001     0.140353   179.475319
	   72 D(7,1,2,8)      =      3.535401     0.000007     1.123346     4.658747
	   73 D(7,1,6,12)     =      1.263249    -0.000007    -1.255098     0.008151
	   74 D(8,2,3,9)      =     -1.904951     0.000000     0.106055    -1.798896
	   75 D(9,3,4,10)     =     -0.805485    -0.000001    -0.096200    -0.901685
	   76 D(10,4,5,11)    =     -0.761749    -0.000000    -0.019237    -0.780986
	   77 D(11,5,6,12)    =     -1.320800     0.000001     0.144870    -1.175931
	   78 D(13,7,14,15)   =     10.124347     0.000010     1.539819    11.664166
	   79 D(13,7,14,16)   =   -163.474899    -0.000002     0.081399  -163.393500
	   80 D(14,7,13,17)   =     53.384492     0.000005     0.388869    53.773361
	   81 D(14,7,13,18)   =   -143.244697    -0.000143   -19.008235  -162.252931
	 ---------------------------------------------------------------------------
	Successfully symmetrized geometry.

  ==> Convergence Check <==

  Measures of convergence in internal coordinates in au.
  Criteria marked as inactive (o), active & met (*), and active & unmet ( ).
  ---------------------------------------------------------------------------------------------
   Step     Total Energy     Delta E     MAX Force     RMS Force      MAX Disp      RMS Disp   
  ---------------------------------------------------------------------------------------------
    Convergence Criteria    1.00e-06 *    3.00e-04 *             o    1.20e-03 *             o
  ---------------------------------------------------------------------------------------------
      2    -381.45489493   -7.75e-03      2.54e-02      3.43e-03 o    3.39e-01      5.59e-02 o  ~
  ---------------------------------------------------------------------------------------------

	Writing optimization data to binary file.
	Structure for next step:
	Cartesian Geometry (in Angstrom)
	    C    -0.0536981351   0.0503860409  -0.1861485378
	    C     0.0661259359   1.2543887053   0.5434538959
	    C     0.1033694332   1.2200733753   1.9311035708
	    C     0.0150045139  -0.0079713581   2.6003230238
	    C    -0.1167174550  -1.2037193692   1.8842982158
	    C    -0.1643317713  -1.1806140944   0.4949900787
	    C    -0.0474789342   0.0543262962  -1.6414873684
	    H     0.0889848610   2.2099513579   0.0254337017
	    H     0.1846526781   2.1447070115   2.4945296070
	    H     0.0430238567  -0.0316269243   3.6856721187
	    H    -0.1777667982  -2.1511145564   2.4106883493
	    H    -0.2430587944  -2.1063127521  -0.0666104017
	    N    -0.6450987111  -0.9205592942  -2.3797910992
	    N     0.6580015981   0.9529615621  -2.3123405718
	    H     0.5977693706   1.0104956628  -3.3245548726
	    H     1.3277799833   1.5527214772  -1.8428874782
	    H    -0.1099971785  -1.4893242011  -3.0269569509
	    H    -1.4335464528  -1.4493779395  -1.8849042809
			--------------------------
			 OPTKING Finished Execution 
			--------------------------

    Structure for next step:
    Molecular point group: c1
    Full point group: C1

    Geometry (in Angstrom), charge = 1, multiplicity = 1:

    C           -0.053698135101     0.050386040947    -0.186148537791
    C            0.066125935885     1.254388705285     0.543453895903
    C            0.103369433153     1.220073375335     1.931103570820
    C            0.015004513869    -0.007971358074     2.600323023819
    C           -0.116717455034    -1.203719369247     1.884298215756
    C           -0.164331771293    -1.180614094413     0.494990078699
    C           -0.047478934248     0.054326296219    -1.641487368423
    H            0.088984860986     2.209951357850     0.025433701690
    H            0.184652678069     2.144707011541     2.494529606962
    H            0.043023856741    -0.031626924272     3.685672118674
    H           -0.177766798198    -2.151114556449     2.410688349279
    H           -0.243058794406    -2.106312752086    -0.066610401738
    N           -0.645098711087    -0.920559294173    -2.379791099166
    N            0.658001598089     0.952961562092    -2.312340571836
    H            0.597769370637     1.010495662850    -3.324554872569
    H            1.327779983278     1.552721477161    -1.842887478247
    H           -0.109997178515    -1.489324201058    -3.026956950903
    H           -1.433546452827    -1.449377939509    -1.884904280929

gradient() will perform analytic gradient computation.

*** tstart() called on oliva.prib.upf.edu
*** at Sat Sep 29 20:25:51 2018

   => Loading Basis Set <=

    Name: 6-31G*
    Role: ORBITAL
    Keyword: BASIS
    atoms 1-7         entry C          line   111 file /shared/joao/test_parameterize/miniconda3/share/psi4/basis/6-31gs.gbs 
    atoms 8-12, 15-18 entry H          line    44 file /shared/joao/test_parameterize/miniconda3/share/psi4/basis/6-31gs.gbs 
    atoms 13-14       entry N          line   128 file /shared/joao/test_parameterize/miniconda3/share/psi4/basis/6-31gs.gbs 


[...]
	            -0.0000002721       -0.0000018932       -0.0000050594
	             0.0000013107       -0.0000128554        0.0000007859
	             0.0017415083        0.0082313564       -0.0117073088
	            -0.0000481533        0.0000206968       -0.0000265384
	            -0.0000063780        0.0000163231        0.0000059596
	            -0.0000248583        0.0000090825        0.0000082345
	             0.0016254193       -0.0081693302        0.0087327918
	             0.0000952575        0.0000330800       -0.0001344804

	---Fragment 1 Intrafragment Coordinates---
	 - Coordinate -           - BOHR/RAD -       - ANG/DEG -
	 R(1,2)           =         2.666673	       1.411143
	 R(1,6)           =         2.664460	       1.409971
	 R(1,7)           =         2.754630	       1.457688
	 R(2,3)           =         2.625231	       1.389212
	 R(2,8)           =         2.053382	       1.086603
	 R(3,4)           =         2.645185	       1.399771
	 R(3,9)           =         2.050503	       1.085079
	 R(4,5)           =         2.643412	       1.398834
	 R(4,10)          =         2.051754	       1.085742
	 R(5,6)           =         2.627104	       1.390204
	 R(5,11)          =         2.050497	       1.085076
	 R(6,12)          =         2.052020	       1.085882
	 R(7,13)          =         2.560926	       1.355184
	 R(7,14)          =         2.507354	       1.326835
	 R(13,17)         =         1.920297	       1.016177
	 R(13,18)         =         1.917048	       1.014458
	 R(14,15)         =         1.916948	       1.014405
	 R(14,16)         =         1.913058	       1.012347
	 B(1,2,3)         =         2.092080	     119.867342
	 B(1,2,8)         =         2.100158	     120.330182
	 B(1,6,5)         =         2.090175	     119.758178
	 B(1,6,12)        =         2.104004	     120.550545
	 B(1,7,13)        =         2.138091	     122.503563
	 B(1,7,14)        =         2.101626	     120.414302
	 B(2,1,6)         =         2.092513	     119.892164
	 B(2,1,7)         =         2.101548	     120.409852
	 B(2,3,4)         =         2.092783	     119.907655
	 B(2,3,9)         =         2.092615	     119.897988
	 B(3,2,8)         =         2.089697	     119.730835
	 B(3,4,5)         =         2.103960	     120.548033
	 B(3,4,10)        =         2.089650	     119.728134
	 B(4,3,9)         =         2.097677	     120.188044
	 B(4,5,6)         =         2.094700	     120.017483
	 B(4,5,11)        =         2.097808	     120.195544
	 B(5,4,10)        =         2.089566	     119.723336
	 B(5,6,12)        =         2.087707	     119.616822
	 B(6,1,7)         =         2.089014	     119.691679
	 B(6,5,11)        =         2.090653	     119.785608
	 B(7,13,17)       =         2.072696	     118.756741
	 B(7,13,18)       =         2.008554	     115.081694
	 B(7,14,15)       =         2.113781	     121.110726
	 B(7,14,16)       =         2.113582	     121.099310
	 B(13,7,14)       =         2.040922	     116.936231
	 B(15,14,16)      =         2.055782	     117.787636
	 B(17,13,18)      =         1.945056	     111.443482
	 D(1,2,3,4)       =        -0.000934	      -0.053487
	 D(1,2,3,9)       =        -3.126606	    -179.141307
	 D(1,6,5,4)       =         0.014701	       0.842286
	 D(1,6,5,11)      =        -3.119489	    -178.733582
	*D(1,7,13,17)     =        -2.094395	    -119.999999
	 D(1,7,13,18)     =         0.276292	      15.830352
	 D(1,7,14,15)     =        -3.011728	    -172.559321
	 D(1,7,14,16)     =         0.139768	       8.008100
	 D(2,1,6,5)       =        -0.020580	      -1.179143
	 D(2,1,6,12)      =        -3.107202	    -178.029537
	 D(2,1,7,13)      =        -2.622580	    -150.262769
	 D(2,1,7,14)      =         0.598020	      34.263998
	 D(2,3,4,5)       =        -0.005016	      -0.287404
	 D(2,3,4,10)      =         3.141064	     179.969730
	 D(3,2,1,6)       =         0.013686	       0.784127
	 D(3,2,1,7)       =        -3.111917	    -178.299689
	 D(3,4,5,6)       =        -0.001938	      -0.111055
	 D(3,4,5,11)      =         3.132221	     179.463059
	 D(4,3,2,8)       =         3.087124	     176.879182
	 D(4,5,6,12)      =         3.101839	     177.722304
	 D(5,4,3,9)       =         3.120609	     178.797741
	 D(5,6,1,7)       =         3.105138	     177.911294
	 D(6,1,2,8)       =        -3.074047	    -176.129920
	 D(6,1,7,13)      =         0.534971	      30.651581
	 D(6,1,7,14)      =        -2.527615	    -144.821653
	 D(6,5,4,10)      =         3.135167	     179.631823
	 D(7,1,2,8)       =         0.083536	       4.786264
	 D(7,1,6,12)      =         0.018516	       1.060900
	 D(8,2,3,9)       =        -0.038548	      -2.208638
	 D(9,3,4,10)      =        -0.016496	      -0.945125
	 D(10,4,5,11)     =        -0.013859	      -0.794063
	 D(11,5,6,12)     =        -0.032351	      -1.853565
	 D(13,7,14,15)    =         0.204596	      11.722472
	 D(13,7,14,16)    =        -2.927094	    -167.710107
	 D(14,7,13,17)    =         0.970777	      55.621409
	 D(14,7,13,18)    =        -2.941722	    -168.548240

	Current energy   :      -381.4605504762

	Energy change for the previous step:
		Projected    :        -0.0000008506
		Actual       :        -0.0000000818
	Energy ratio indicates iffy step: Trust radius decreased to 6.250e-02.


	Performing BFGS update.
	Previous computed or guess Hessian on step 1.
	Steps to be used in Hessian update: 7 6
	Taking RFO optimization step.
	Going to follow RFO solution 1.
	Rejecting RFO root 1 because normalization gives large value.
	Rejecting RFO root 2 because normalization gives large value.
	Using RFO vector 3.
	Norm of target step-size    0.00252
	Projected energy change by RFO approximation:        -0.0000002295

	Back-transformation to cartesian coordinates...
	Could not converge backtransformation.
	Using first guess instead.

	Back-transformation to cartesian coordinates to adjust frozen coordinates...
	Successfully converged to displaced geometry.

	--- Internal Coordinate Step in ANG or DEG, aJ/ANG or AJ/DEG ---
	 ---------------------------------------------------------------------------
	   Coordinate                Previous        Force       Change         New 
	   ----------                --------       ------       ------       ------
	    1 R(1,2)          =      1.411143    -0.000005    -0.000010     1.411133
	    2 R(1,6)          =      1.409971     0.000133     0.000015     1.409986
	    3 R(1,7)          =      1.457688     0.000012     0.000030     1.457718
	    4 R(2,3)          =      1.389212    -0.000052    -0.000002     1.389210
	    5 R(2,8)          =      1.086603    -0.000012     0.000002     1.086605
	    6 R(3,4)          =      1.399771     0.000043     0.000008     1.399780
	    7 R(3,9)          =      1.085079    -0.000009    -0.000000     1.085079
	    8 R(4,5)          =      1.398834    -0.000052    -0.000006     1.398828
	    9 R(4,10)         =      1.085742     0.000008     0.000002     1.085743
	   10 R(5,6)          =      1.390204    -0.000050    -0.000001     1.390202
	   11 R(5,11)         =      1.085076     0.000002     0.000002     1.085078
	   12 R(6,12)         =      1.085882    -0.000081    -0.000013     1.085869
	   13 R(7,13)         =      1.355184     0.000424     0.000044     1.355228
	   14 R(7,14)         =      1.326835     0.000079    -0.000014     1.326821
	   15 R(13,17)        =      1.016177    -0.000136    -0.000023     1.016155
	   16 R(13,18)        =      1.014458     0.001227     0.000128     1.014586
	   17 R(14,15)        =      1.014405     0.000043     0.000011     1.014416
	   18 R(14,16)        =      1.012347     0.000054     0.000016     1.012363
	   19 B(1,2,3)        =    119.867342    -0.000000    -0.001085   119.866257
	   20 B(1,2,8)        =    120.330182     0.000000     0.000952   120.331135
	   21 B(1,6,5)        =    119.758178    -0.000000    -0.001693   119.756485
	   22 B(1,6,12)       =    120.550545    -0.000001    -0.003276   120.547269
	   23 B(1,7,13)       =    122.503563     0.000002     0.007159   122.510722
	   24 B(1,7,14)       =    120.414302    -0.000001    -0.010210   120.404092
	   25 B(2,1,6)        =    119.892164    -0.000000     0.002333   119.894497
	   26 B(2,1,7)        =    120.409852     0.000001     0.002023   120.411876
	   27 B(2,3,4)        =    119.907655    -0.000000    -0.000687   119.906969
	   28 B(2,3,9)        =    119.897988     0.000000     0.000641   119.898629
	   29 B(3,2,8)        =    119.730835    -0.000000    -0.000342   119.730493
	   30 B(3,4,5)        =    120.548033     0.000000     0.001547   120.549581
	   31 B(3,4,10)       =    119.728134    -0.000000    -0.000215   119.727919
	   32 B(4,3,9)        =    120.188044    -0.000000     0.000036   120.188080
	   33 B(4,5,6)        =    120.017483    -0.000000    -0.000361   120.017122
	   34 B(4,5,11)       =    120.195544    -0.000000    -0.000567   120.194977
	   35 B(5,4,10)       =    119.723336    -0.000000    -0.001339   119.721998
	   36 B(5,6,12)       =    119.616822     0.000001     0.005453   119.622275
	   37 B(6,1,7)        =    119.691679    -0.000001    -0.004391   119.687288
	   38 B(6,5,11)       =    119.785608     0.000000     0.000927   119.786534
	   39 B(7,13,17)      =    118.756741    -0.000004     0.004386   118.761127
	   40 B(7,13,18)      =    115.081694    -0.000005    -0.032465   115.049230
	   41 B(7,14,15)      =    121.110726    -0.000001    -0.004009   121.106718
	   42 B(7,14,16)      =    121.099310     0.000001     0.003475   121.102785
	   43 B(13,7,14)      =    116.936231    -0.000002     0.003542   116.939774
	   44 B(15,14,16)     =    117.787636    -0.000000     0.000381   117.788016
	   45 B(17,13,18)     =    111.443482     0.000007     0.021111   111.464594
	   46 D(1,2,3,4)      =     -0.053487     0.000000     0.007746    -0.045741
	   47 D(1,2,3,9)      =   -179.141307     0.000000     0.008424  -179.132883
	   48 D(1,6,5,4)      =      0.842286    -0.000000    -0.002166     0.840120
	   49 D(1,6,5,11)     =   -178.733582    -0.000000    -0.001831  -178.735413
	   50 *D(1,7,13,17)   =   -119.999999     0.000000     0.000000  -119.999999
	   51 D(1,7,13,18)    =     15.830352     0.000000    -0.000268    15.830084
	   52 D(1,7,14,15)    =   -172.559321    -0.000001     0.002483  -172.556839
	   53 D(1,7,14,16)    =      8.008100    -0.000000     0.020770     8.028870
	   54 D(2,1,6,5)      =     -1.179143     0.000000     0.004263    -1.174880
	   55 D(2,1,6,12)     =   -178.029537    -0.000000    -0.006150  -178.035687
	   56 D(2,1,7,13)     =   -150.262769    -0.000001     0.068667  -150.194102
	   57 D(2,1,7,14)     =     34.263998     0.000001     0.060906    34.324904
	   58 D(2,3,4,5)      =     -0.287404    -0.000000    -0.005651    -0.293055
	   59 D(2,3,4,10)     =    179.969730    -0.000000    -0.004009   179.965721
	   60 D(3,2,1,6)      =      0.784127    -0.000000    -0.007076     0.777051
	   61 D(3,2,1,7)      =   -178.299689     0.000000    -0.004521  -178.304210
	   62 D(3,4,5,6)      =     -0.111055     0.000000     0.002821    -0.108234
	   63 D(3,4,5,11)     =    179.463059     0.000000     0.002490   179.465549
	   64 D(4,3,2,8)      =    176.879182    -0.000000    -0.002364   176.876818
	   65 D(4,5,6,12)     =    177.722304     0.000000     0.007876   177.730180
	   66 D(5,4,3,9)      =    178.797741    -0.000000    -0.006325   178.791416
	   67 D(5,6,1,7)      =    177.911294    -0.000000     0.001785   177.913079
	   68 D(6,1,2,8)      =   -176.129920     0.000000     0.003136  -176.126783
	   69 D(6,1,7,13)     =     30.651581    -0.000001     0.071156    30.722737
	   70 D(6,1,7,14)     =   -144.821653     0.000001     0.063395  -144.758258
	   71 D(6,5,4,10)     =    179.631823     0.000000     0.001182   179.633005
	   72 D(7,1,2,8)      =      4.786264     0.000000     0.005692     4.791955
	   73 D(7,1,6,12)     =      1.060900    -0.000000    -0.008629     1.052272
	   74 D(8,2,3,9)      =     -2.208638    -0.000000    -0.001686    -2.210324
	   75 D(9,3,4,10)     =     -0.945125    -0.000000    -0.004683    -0.949808
	   76 D(10,4,5,11)    =     -0.794063    -0.000000     0.000851    -0.793212
	   77 D(11,5,6,12)    =     -1.853565     0.000000     0.008212    -1.845353
	   78 D(13,7,14,15)   =     11.722472     0.000000    -0.005063    11.717409
	   79 D(13,7,14,16)   =   -167.710107     0.000001     0.013225  -167.696883
	   80 D(14,7,13,17)   =     55.621409    -0.000001     0.006910    55.628319
	   81 D(14,7,13,18)   =   -168.548240    -0.000001     0.006642  -168.541598
	 ---------------------------------------------------------------------------
	Successfully symmetrized geometry.

  ==> Convergence Check <==

  Measures of convergence in internal coordinates in au.
  Criteria marked as inactive (o), active & met (*), and active & unmet ( ).
  ---------------------------------------------------------------------------------------------
   Step     Total Energy     Delta E     MAX Force     RMS Force      MAX Disp      RMS Disp   
  ---------------------------------------------------------------------------------------------
    Convergence Criteria    1.00e-06 *    3.00e-04 *             o    1.20e-03 *             o
  ---------------------------------------------------------------------------------------------
      8    -381.46055048   -8.18e-08 *    1.49e-04 *    2.75e-05 o    1.24e-03      2.81e-04 o  ~
  ---------------------------------------------------------------------------------------------


  **** Optimization is complete! (in 8 steps) ****

  ==> Optimization Summary <==

  Measures of convergence in internal coordinates in au.
  --------------------------------------------------------------------------------------------------------------- ~
   Step         Total Energy             Delta E       MAX Force       RMS Force        MAX Disp        RMS Disp  ~
  --------------------------------------------------------------------------------------------------------------- ~
      1    -381.447140338347   -381.447140338347      0.02997657      0.00454607      0.32727906      0.05392245  ~
      2    -381.454894928474     -0.007754590127      0.02540664      0.00342982      0.33854333      0.05593168  ~
      3    -381.457437745281     -0.002542816807      0.04191289      0.00485279      0.10707742      0.02003451  ~
      4    -381.460316180964     -0.002878435682      0.01007631      0.00127289      0.04064439      0.01103077  ~
      5    -381.460532849712     -0.000216668749      0.00277595      0.00035250      0.01037729      0.00266448  ~
      6    -381.460549170030     -0.000016320317      0.00042730      0.00008696      0.00773289      0.00176097  ~
      7    -381.460550394404     -0.000001224374      0.00017703      0.00003902      0.00201316      0.00048188  ~
      8    -381.460550476204     -0.000000081800      0.00014888      0.00002747      0.00124190      0.00028053  ~
  --------------------------------------------------------------------------------------------------------------- ~

	Writing optimization data to binary file.
	Final energy is   -381.4605504762035
	Final (previous) structure:
	Cartesian Geometry (in Angstrom)
	    C    -0.0507409428   0.0369029789  -0.1902139734
	    C     0.0618775939   1.2432955211   0.5331516438
	    C     0.0917669184   1.2170949792   1.9217953206
	    C     0.0089802210  -0.0053065414   2.5987301191
	    C    -0.1099729683  -1.2046178147   1.8886328463
	    C    -0.1491835915  -1.1891551381   0.4990683737
	    C    -0.0460389862   0.0473967417  -1.6478561668
	    H     0.0750365080   2.1965436603   0.0117586307
	    H     0.1642935658   2.1454489169   2.4788373535
	    H     0.0331107459  -0.0224332229   3.6840683580
	    H    -0.1649640641  -2.1496822648   2.4189341533
	    H    -0.2042099463  -2.1263081979  -0.0466939831
	    N    -0.7017733879  -0.8817483663  -2.3848938110
	    N     0.6867632028   0.9327968169  -2.3108479526
	    H     0.6136951718   1.0242076949  -3.3184803978
	    H     1.3435878533   1.5337089857  -1.8288394281
	    H    -0.1685287438  -1.4627802260  -3.0257280603
	    H    -1.3906811503  -1.4259735235  -1.8766120260
	Saving final (previous) structure.
	Removing binary optimization data file.
			--------------------------
			 OPTKING Finished Execution 
			--------------------------

    Final optimized geometry and variables:
    Molecular point group: c1
    Full point group: C1

    Geometry (in Angstrom), charge = 1, multiplicity = 1:

    C           -0.050740942764     0.036902978903    -0.190213973362
    C            0.061877593908     1.243295521110     0.533151643848
    C            0.091766918433     1.217094979155     1.921795320636
    C            0.008980220986    -0.005306541417     2.598730119130
    C           -0.109972968297    -1.204617814717     1.888632846302
    C           -0.149183591463    -1.189155138060     0.499068373718
    C           -0.046038986155     0.047396741695    -1.647856166782
    H            0.075036508011     2.196543660283     0.011758630663
    H            0.164293565805     2.145448916940     2.478837353492
    H            0.033110745918    -0.022433222898     3.684068357989
    H           -0.164964064050    -2.149682264765     2.418934153338
    H           -0.204209946255    -2.126308197911    -0.046693983129
    N           -0.701773387888    -0.881748366293    -2.384893811025
    N            0.686763202846     0.932796816885    -2.310847952588
    H            0.613695171839     1.024207694873    -3.318480397817
    H            1.343587853305     1.533708985685    -1.828839428061
    H           -0.168528743848    -1.462780225988    -3.025728060342
    H           -1.390681150330    -1.425973523480    -1.876612026011

	Removing binary optimization data file.
	Cleaning optimization helper files.


Properties will be evaluated at   0.000000,   0.000000,   0.000000 [a0]
OEProp: No title given, name of density matrix used for the following properties is 'SCF density'
  Nuclear Dipole Moment: [e a0]
     X:    -1.8209      Y:     1.7834      Z:    -1.4232

  Electronic Dipole Moment: [e a0]
     X:     2.1874      Y:    -1.8700      Z:    -0.3773

  Dipole Moment: [e a0]
     X:     0.3665      Y:    -0.0866      Z:    -1.8004     Total:     1.8394

  Dipole Moment: [D]
     X:     0.9315      Y:    -0.2200      Z:    -4.5762     Total:     4.6752

  Quadrupole Moment: [D A]
    XX:   -50.2785     YY:   -35.8476     ZZ:   -17.6163
    XY:     5.8204     XZ:    -3.3607     YZ:     0.8570

  Traceless Quadrupole Moment: [D A]
    XX:   -15.6977     YY:    -1.2668     ZZ:    16.9645
    XY:     5.8204     XZ:    -3.3607     YZ:     0.8570

  Mulliken Charges: (a.u.)
   Center  Symbol    Alpha    Beta     Spin     Total
       1     C     2.94649  2.94649  0.00000  0.10701
       2     C     3.08216  3.08216  0.00000 -0.16432
       3     C     3.06207  3.06207  0.00000 -0.12415
       4     C     3.05009  3.05009  0.00000 -0.10018
       5     C     3.06215  3.06215  0.00000 -0.12430
       6     C     3.07944  3.07944  0.00000 -0.15888
       7     C     2.75213  2.75213  0.00000  0.49574
       8     H     0.41253  0.41253  0.00000  0.17495
       9     H     0.40373  0.40373  0.00000  0.19253
      10     H     0.40180  0.40180  0.00000  0.19639
      11     H     0.40393  0.40393  0.00000  0.19213
      12     H     0.41737  0.41737  0.00000  0.16525
      13     N     3.86398  3.86398  0.00000 -0.72796
      14     N     3.84812  3.84812  0.00000 -0.69623
      15     H     0.30069  0.30069  0.00000  0.39862
      16     H     0.30066  0.30066  0.00000  0.39869
      17     H     0.30446  0.30446  0.00000  0.39108
      18     H     0.30818  0.30818  0.00000  0.38363

   Total alpha = 32.00000, Total beta = 32.00000, Total charge =  1.00000


    Psi4 stopped on: Saturday, 29 September 2018 08:28PM
    Psi4 wall time for execution: 0:04:04.31

*** Psi4 exiting successfully. Buy a developer a beer!
