
    -----------------------------------------------------------------------
          Psi4: An Open-Source Ab Initio Electronic Structure Package
                               Psi4 1.2.1 release

                         Git: Rev {HEAD} 406f4de 


    R. M. Parrish, L. A. Burns, D. G. A. Smith, A. C. Simmonett,
    A. E. DePrince III, E. G. Hohenstein, U. Bozkaya, A. Yu. Sokolov,
    R. Di Remigio, R. M. Richard, J. F. Gonthier, A. M. James,
    H. R. McAlexander, A. Kumar, M. Saitow, X. Wang, B. P. Pritchard,
    P. Verma, H. F. Schaefer III, K. Patkowski, R. A. King, E. F. Valeev,
    F. A. Evangelista, J. M. Turney, T. D. Crawford, and C. D. Sherrill,
    J. Chem. Theory Comput. 13(7) pp 3185--3197 (2017).
    (doi: 10.1021/acs.jctc.7b00174)


                         Additional Contributions by
    P. Kraus, H. Kruse, M. H. Lechner, M. C. Schieber, and R. A. Shaw

    -----------------------------------------------------------------------


    Psi4 started on: Saturday, 29 September 2018 05:08PM

    Process ID: 12758
    Host:       loro.prib.upf.edu
    PSIDATADIR: /shared/joao/test_parameterize/miniconda3/share/psi4
    Memory:     500.0 MiB
    Threads:    1
    
  ==> Input File <==

--------------------------------------------------------------------------
set_num_threads(1)
set_memory('5348 MB')

set { scf_mem_safety_factor 0.7 }

set { reference rks }
set { basis cc-pVDZ }

molecule MOL {
    0 1
    noreorient
    nocom
    symmetry c1
    O    1.050400   0.042900  -0.048100
    C    2.474100   0.047400  -0.029000
    C    3.002600  -1.068900  -0.932000
    N    2.086730  -2.206749  -0.995091
    H    0.760400   0.728400   0.578000
    H    2.809900  -0.097900   1.003200
    H    2.817400   1.026800  -0.378600
    H    3.983388  -1.403032  -0.574021
    H    3.163171  -0.672697  -1.941107
    H    2.032562  -2.647740  -0.077444
    H    2.480283  -2.910382  -1.619805
}

set optking { frozen_dihedral = (" 1 2 3 4 ") }

energy, wfn = energy('B3LYP-D3', return_wfn=True)

import os
os.chdir(os.environ['HTMD_PSI4_WORKDIR'])

oeprop(wfn, 'DIPOLE', 'QUADRUPOLE', 'MULLIKEN_CHARGES')

with open('psi4out.xyz', 'w') as f:
    f.write('11 ' )
    f.write('%.12f\n' % energy)
    f.write(MOL.save_string_xyz())
--------------------------------------------------------------------------
  Threads set to 1 by Python driver.

  Memory set to   4.981 GiB by Python driver.

*** tstart() called on loro.prib.upf.edu
*** at Sat Sep 29 17:08:50 2018

   => Loading Basis Set <=

    Name: CC-PVDZ
    Role: ORBITAL
    Keyword: BASIS
    atoms 1    entry O          line   198 file /shared/joao/test_parameterize/miniconda3/share/psi4/basis/cc-pvdz.gbs 
    atoms 2-3  entry C          line   138 file /shared/joao/test_parameterize/miniconda3/share/psi4/basis/cc-pvdz.gbs 
    atoms 4    entry N          line   168 file /shared/joao/test_parameterize/miniconda3/share/psi4/basis/cc-pvdz.gbs 
    atoms 5-11 entry H          line    22 file /shared/joao/test_parameterize/miniconda3/share/psi4/basis/cc-pvdz.gbs 


         ---------------------------------------------------------
                                   SCF
            by Justin Turney, Rob Parrish, Andy Simmonett
                             and Daniel Smith
                              RKS Reference
                        1 Threads,   5100 MiB Core
         ---------------------------------------------------------

  ==> Geometry <==

    Molecular point group: c1
    Full point group: C1

    Geometry (in Angstrom), charge = 0, multiplicity = 1:

       Center              X                  Y                   Z               Mass       
    ------------   -----------------  -----------------  -----------------  -----------------
         O            1.050400000000     0.042900000000    -0.048100000000    15.994914619560
         C            2.474100000000     0.047400000000    -0.029000000000    12.000000000000
         C            3.002600000000    -1.068900000000    -0.932000000000    12.000000000000
         N            2.086730000000    -2.206749000000    -0.995091000000    14.003074004780
         H            0.760400000000     0.728400000000     0.578000000000     1.007825032070
         H            2.809900000000    -0.097900000000     1.003200000000     1.007825032070
         H            2.817400000000     1.026800000000    -0.378600000000     1.007825032070
         H            3.983388000000    -1.403032000000    -0.574021000000     1.007825032070
         H            3.163171000000    -0.672697000000    -1.941107000000     1.007825032070
         H            2.032562000000    -2.647740000000    -0.077444000000     1.007825032070
         H            2.480283000000    -2.910382000000    -1.619805000000     1.007825032070

  Running in c1 symmetry.

  Rotational constants: A =      0.28417  B =      0.04280  C =      0.03816 [cm^-1]
  Rotational constants: A =   8519.17669  B =   1283.10347  C =   1144.08905 [MHz]
  Nuclear repulsion =  133.622148179442576

  Charge       = 0
  Multiplicity = 1
  Electrons    = 34
  Nalpha       = 17
  Nbeta        = 17

  ==> Algorithm <==

  SCF Algorithm Type is DF.
  DIIS enabled.
  MOM disabled.
  Fractional occupation disabled.
  Guess Type is SAD.
  Energy threshold   = 1.00e-06
  Density threshold  = 1.00e-06
  Integral threshold = 0.00e+00

  ==> Primary Basis <==

  Basis Set: CC-PVDZ
    Blend: CC-PVDZ
    Number of shells: 45
    Number of basis function: 91
    Number of Cartesian functions: 95
    Spherical Harmonics?: true
    Max angular momentum: 2

  ==> DFT Potential <==

   => Composite Functional: B3LYP-D3ZERO <= 

    B3LYP-d3zero Hyb-GGA Exchange-Correlation Functional

    P. J. Stephens, F. J. Devlin, C. F. Chabalowski, and M. J. Frisch, J. Phys. Chem. 98, 11623 (1994)

    Deriv               =              1
    GGA                 =           TRUE
    Meta                =          FALSE

    Exchange Hybrid     =           TRUE
    MP2 Hybrid          =          FALSE

   => Exchange Functionals <=

    0.0800   Slater exchange
    0.7200         Becke 88

   => Exact (HF) Exchange <=

    0.2000               HF 

   => Correlation Functionals <=

    0.1900   Vosko, Wilk & Nusair (VWN5_RPA)
    0.8100   Lee, Yang & Parr

   => Molecular Quadrature <=

    Radial Scheme       =       TREUTLER
    Pruning Scheme      =           FLAT
    Nuclear Scheme      =       TREUTLER

    BS radius alpha     =              1
    Pruning alpha       =              1
    Radial Points       =             75
    Spherical Points    =            302
    Total Points        =         245120
    Total Blocks        =           1889
    Max Points          =            256
    Max Functions       =             91

   => -D3ZERO: Empirical Dispersion <=

    Grimme's -D3 (zero-damping) Dispersion Correction
    Grimme S.; Antony J.; Ehrlich S.; Krieg H. (2010), J. Chem. Phys., 132: 154104

        S6 =   1.000000E+00
        S8 =   1.703000E+00
       SR6 =   1.261000E+00
       SR8 =   1.000000E+00
    ALPHA6 =   1.400000E+01

   => Loading Basis Set <=

    Name: (CC-PVDZ AUX)
    Role: JKFIT
    Keyword: DF_BASIS_SCF
    atoms 1    entry O          line   221 file /shared/joao/test_parameterize/miniconda3/share/psi4/basis/cc-pvdz-jkfit.gbs 
    atoms 2-3  entry C          line   121 file /shared/joao/test_parameterize/miniconda3/share/psi4/basis/cc-pvdz-jkfit.gbs 
    atoms 4    entry N          line   171 file /shared/joao/test_parameterize/miniconda3/share/psi4/basis/cc-pvdz-jkfit.gbs 
    atoms 5-11 entry H          line    51 file /shared/joao/test_parameterize/miniconda3/share/psi4/basis/cc-pvdz-jkfit.gbs 

  ==> Pre-Iterations <==

   -------------------------------------------------------
    Irrep   Nso     Nmo     Nalpha   Nbeta   Ndocc  Nsocc
   -------------------------------------------------------
     A         91      91       0       0       0       0
   -------------------------------------------------------
    Total      91      91      17      17      17       0
   -------------------------------------------------------

  ==> Integral Setup <==

  DFHelper Memory: AOs need 0.036 [GiB]; user supplied 3.486 [GiB]. Using in-core AOs.

  ==> MemDFJK: Density-Fitted J/K Matrices <==

    J tasked:                   Yes
    K tasked:                   Yes
    wK tasked:                   No
    OpenMP threads:               1
    Memory (MB):               3570
    Algorithm:                 Core
    Schwarz Cutoff:           1E-12
    Mask sparsity (%):       0.0000
    Fitting Condition:        1E-12

   => Auxiliary Basis Set <=

  Basis Set: (CC-PVDZ AUX)
    Blend: CC-PVDZ-JKFIT
    Number of shells: 159
    Number of basis function: 441
    Number of Cartesian functions: 499
    Spherical Harmonics?: true
    Max angular momentum: 3

  Minimum eigenvalue in the overlap matrix is 4.6300154637E-03.
  Using Symmetric Orthogonalization.

  SCF Guess: Superposition of Atomic Densities via on-the-fly atomic UHF.

  ==> Iterations <==

                           Total Energy        Delta E     RMS |[F,P]|

   @DF-RKS iter   0:  -210.90896371940769   -2.10909e+02   3.73200e-02 
   @DF-RKS iter   1:  -210.22834017525534    6.80624e-01   6.59291e-03 
   @DF-RKS iter   2:  -210.07351812636961    1.54822e-01   9.56199e-03 DIIS
   @DF-RKS iter   3:  -210.38181600438702   -3.08298e-01   6.65861e-04 DIIS
   @DF-RKS iter   4:  -210.38302368055471   -1.20768e-03   3.50817e-04 DIIS
   @DF-RKS iter   5:  -210.38346849565960   -4.44815e-04   6.41959e-05 DIIS
   @DF-RKS iter   6:  -210.38348308273081   -1.45871e-05   1.50179e-05 DIIS
   @DF-RKS iter   7:  -210.38348384617268   -7.63442e-07   4.36546e-06 DIIS
   @DF-RKS iter   8:  -210.38348391446121   -6.82885e-08   5.81262e-07 DIIS

  ==> Post-Iterations <==

    Orbital Energies [Eh]
    ---------------------

    Doubly Occupied:                                                      

       1A    -19.120181     2A    -14.295619     3A    -10.223282  
       4A    -10.201878     5A     -1.004058     6A     -0.868564  
       7A     -0.713929     8A     -0.591770     9A     -0.507313  
      10A     -0.484026    11A     -0.439762    12A     -0.416070  
      13A     -0.387098    14A     -0.361441    15A     -0.317816  
      16A     -0.254162    17A     -0.220909  

    Virtual:                                                              

      18A      0.044681    19A      0.081895    20A      0.095335  
      21A      0.102186    22A      0.130686    23A      0.153210  
      24A      0.170100    25A      0.188526    26A      0.243433  
      27A      0.277759    28A      0.434880    29A      0.464119  
      30A      0.493995    31A      0.509154    32A      0.554105  
      33A      0.562719    34A      0.604480    35A      0.624464  
      36A      0.640882    37A      0.651471    38A      0.659819  
      39A      0.691452    40A      0.702384    41A      0.803092  
      42A      0.811124    43A      0.856992    44A      0.913523  
      45A      0.964753    46A      0.996498    47A      1.019731  
      48A      1.068327    49A      1.157543    50A      1.215189  
      51A      1.265148    52A      1.287382    53A      1.332522  
      54A      1.391651    55A      1.460783    56A      1.474074  
      57A      1.522714    58A      1.572111    59A      1.606388  
      60A      1.611185    61A      1.616759    62A      1.682419  
      63A      1.711430    64A      1.737885    65A      1.761270  
      66A      1.787687    67A      1.855350    68A      1.868684  
      69A      1.930432    70A      1.978015    71A      1.983983  
      72A      1.990668    73A      2.055964    74A      2.140738  
      75A      2.172799    76A      2.206454    77A      2.273394  
      78A      2.380994    79A      2.397498    80A      2.452948  
      81A      2.459636    82A      2.563440    83A      2.609946  
      84A      2.683763    85A      2.827242    86A      2.966204  
      87A      3.019423    88A      3.051873    89A      3.127913  
      90A      3.203943    91A      3.710380  

    Final Occupation by Irrep:
              A 
    DOCC [    17 ]

  Energy converged.

  @DF-RKS Final Energy:  -210.38348391446121

   => Energetics <=

    Nuclear Repulsion Energy =            133.6221481794425756
    One-Electron Energy =                -550.3129095731661664
    Two-Electron Energy =                 229.7996119301568285
    DFT Exchange-Correlation Energy =     -23.4874527908944124
    Empirical Dispersion Energy =          -0.0048816600000000
    VV10 Nonlocal Energy =                  0.0000000000000000
    Total Energy =                       -210.3834839144612090



Properties will be evaluated at   0.000000,   0.000000,   0.000000 [a0]

Properties computed using the SCF density matrix

  Nuclear Dipole Moment: [e a0]
     X:   139.6840      Y:   -51.4187      Z:   -30.4741

  Electronic Dipole Moment: [e a0]
     X:  -139.0075      Y:    51.5516      Z:    30.9486

  Dipole Moment: [e a0]
     X:     0.6766      Y:     0.1330      Z:     0.4744     Total:     0.8370

  Dipole Moment: [D]
     X:     1.7197      Y:     0.3379      Z:     1.2059     Total:     2.1274


*** tstop() called on loro.prib.upf.edu at Sat Sep 29 17:09:08 2018
Module time:
	user time   =      15.29 seconds =       0.25 minutes
	system time =       0.21 seconds =       0.00 minutes
	total time  =         18 seconds =       0.30 minutes
Total time:
	user time   =      15.29 seconds =       0.25 minutes
	system time =       0.21 seconds =       0.00 minutes
	total time  =         18 seconds =       0.30 minutes


Properties will be evaluated at   0.000000,   0.000000,   0.000000 [a0]
OEProp: No title given, name of density matrix used for the following properties is 'SCF density'
  Nuclear Dipole Moment: [e a0]
     X:   139.6840      Y:   -51.4187      Z:   -30.4741

  Electronic Dipole Moment: [e a0]
     X:  -139.0075      Y:    51.5516      Z:    30.9486

  Dipole Moment: [e a0]
     X:     0.6766      Y:     0.1330      Z:     0.4744     Total:     0.8370

  Dipole Moment: [D]
     X:     1.7197      Y:     0.3379      Z:     1.2059     Total:     2.1274

  Quadrupole Moment: [D A]
    XX:   -19.6125     YY:   -20.9329     ZZ:   -24.6429
    XY:    -3.1242     XZ:    -0.7215     YZ:     0.5982

  Traceless Quadrupole Moment: [D A]
    XX:     2.1169     YY:     0.7965     ZZ:    -2.9134
    XY:    -3.1242     XZ:    -0.7215     YZ:     0.5982

  Mulliken Charges: (a.u.)
   Center  Symbol    Alpha    Beta     Spin     Total
       1     O     4.13065  4.13065  0.00000 -0.26131
       2     C     2.93353  2.93353  0.00000  0.13294
       3     C     2.98458  2.98458  0.00000  0.03084
       4     N     3.57947  3.57947  0.00000 -0.15895
       5     H     0.43303  0.43303  0.00000  0.13395
       6     H     0.50431  0.50431  0.00000 -0.00862
       7     H     0.50137  0.50137  0.00000 -0.00274
       8     H     0.50614  0.50614  0.00000 -0.01228
       9     H     0.49207  0.49207  0.00000  0.01587
      10     H     0.46753  0.46753  0.00000  0.06494
      11     H     0.46733  0.46733  0.00000  0.06535

   Total alpha = 17.00000, Total beta = 17.00000, Total charge = -0.00000


    Psi4 stopped on: Saturday, 29 September 2018 05:09PM
    Psi4 wall time for execution: 0:00:18.20

*** Psi4 exiting successfully. Buy a developer a beer!
