
    -----------------------------------------------------------------------
          Psi4: An Open-Source Ab Initio Electronic Structure Package
                               Psi4 1.2.1 release

                         Git: Rev {HEAD} 406f4de 


    R. M. Parrish, L. A. Burns, D. G. A. Smith, A. C. Simmonett,
    A. E. DePrince III, E. G. Hohenstein, U. Bozkaya, A. Yu. Sokolov,
    R. Di Remigio, R. M. Richard, J. F. Gonthier, A. M. James,
    H. R. McAlexander, A. Kumar, M. Saitow, X. Wang, B. P. Pritchard,
    P. Verma, H. F. Schaefer III, K. Patkowski, R. A. King, E. F. Valeev,
    F. A. Evangelista, J. M. Turney, T. D. Crawford, and C. D. Sherrill,
    J. Chem. Theory Comput. 13(7) pp 3185--3197 (2017).
    (doi: 10.1021/acs.jctc.7b00174)


                         Additional Contributions by
    P. Kraus, H. Kruse, M. H. Lechner, M. C. Schieber, and R. A. Shaw

    -----------------------------------------------------------------------


    Psi4 started on: Saturday, 29 September 2018 08:24PM

    Process ID: 23271
    Host:       oliva.prib.upf.edu
    PSIDATADIR: /shared/joao/test_parameterize/miniconda3/share/psi4
    Memory:     500.0 MiB
    Threads:    1
    
  ==> Input File <==

--------------------------------------------------------------------------
set_num_threads(4)
set_memory('3000 MB')

set { scf_mem_safety_factor 0.7 }

set { reference rks }
set { basis 6-31G* }

molecule MOL {
    1 1
    noreorient
    nocom
    symmetry c1
    C   -0.000000  -0.000000  -0.177864
    C    0.036678   1.219374   0.524165
    C    0.031765   1.213120   1.915444
    C    0.000000   0.000000   2.610107
    C   -0.031765  -1.213120   1.915444
    C   -0.036678  -1.219375   0.524165
    C   -0.000000   0.000000  -1.644734
    H    0.018170   2.164705  -0.010854
    H    0.042402   2.152895   2.457886
    H    0.000000   0.000000   3.695756
    H   -0.042402  -2.152895   2.457886
    H   -0.018170  -2.164705  -0.010853
    N   -0.712590  -0.905950  -2.308461
    N    0.712590   0.905950  -2.308460
    H    0.673432   1.006470  -3.315997
    H    1.377190   1.485970  -1.813316
    H   -0.242311  -1.641143  -2.819942
    H   -1.724821  -0.940417  -2.277364
}

set optking { frozen_dihedral = (" 1 7 13 17 ") }

set optking { dynamic_level = 1 
 geom_maxiter = 250
 print_trajectory_xyz_file = True }

energy, wfn = optimize('B3LYP-D3', return_wfn=True)

import os
os.chdir(os.environ['HTMD_PSI4_WORKDIR'])

oeprop(wfn, 'DIPOLE', 'QUADRUPOLE', 'MULLIKEN_CHARGES')

with open('psi4out.xyz', 'w') as f:
    f.write('18 ' )
    f.write('%.12f\n' % energy)
    f.write(MOL.save_string_xyz())
--------------------------------------------------------------------------
  Threads set to 4 by Python driver.

  Memory set to   2.794 GiB by Python driver.
gradient() will perform analytic gradient computation.

*** tstart() called on oliva.prib.upf.edu
*** at Sat Sep 29 20:24:38 2018

   => Loading Basis Set <=

    Name: 6-31G*
    Role: ORBITAL
    Keyword: BASIS
    atoms 1-7         entry C          line   111 file /shared/joao/test_parameterize/miniconda3/share/psi4/basis/6-31gs.gbs 
    atoms 8-12, 15-18 entry H          line    44 file /shared/joao/test_parameterize/miniconda3/share/psi4/basis/6-31gs.gbs 
    atoms 13-14       entry N          line   128 file /shared/joao/test_parameterize/miniconda3/share/psi4/basis/6-31gs.gbs 


         ---------------------------------------------------------
                                   SCF
            by Justin Turney, Rob Parrish, Andy Simmonett
                             and Daniel Smith
                              RKS Reference
                        4 Threads,   2861 MiB Core
         ---------------------------------------------------------

  ==> Geometry <==

    Molecular point group: c1
    Full point group: C1

    Geometry (in Angstrom), charge = 1, multiplicity = 1:

       Center              X                  Y                   Z               Mass       
    ------------   -----------------  -----------------  -----------------  -----------------
         C            0.000000000000     0.000000000000    -0.177864000000    12.000000000000
         C            0.036678000000     1.219374000000     0.524165000000    12.000000000000
         C            0.031765000000     1.213120000000     1.915444000000    12.000000000000
         C            0.000000000000     0.000000000000     2.610107000000    12.000000000000
         C           -0.031765000000    -1.213120000000     1.915444000000    12.000000000000
         C           -0.036678000000    -1.219375000000     0.524165000000    12.000000000000
         C            0.000000000000     0.000000000000    -1.644734000000    12.000000000000
         H            0.018170000000     2.164705000000    -0.010854000000     1.007825032070
         H            0.042402000000     2.152895000000     2.457886000000     1.007825032070
         H            0.000000000000     0.000000000000     3.695756000000     1.007825032070
         H           -0.042402000000    -2.152895000000     2.457886000000     1.007825032070
         H           -0.018170000000    -2.164705000000    -0.010853000000     1.007825032070
         N           -0.712590000000    -0.905950000000    -2.308461000000    14.003074004780
         N            0.712590000000     0.905950000000    -2.308460000000    14.003074004780
         H            0.673432000000     1.006470000000    -3.315997000000     1.007825032070
         H            1.377190000000     1.485970000000    -1.813316000000     1.007825032070
         H           -0.242311000000    -1.641143000000    -2.819942000000     1.007825032070
         H           -1.724821000000    -0.940417000000    -2.277364000000     1.007825032070

  Running in c1 symmetry.

  Rotational constants: A =      0.12099  B =      0.03959  C =      0.03135 [cm^-1]
  Rotational constants: A =   3627.04108  B =   1186.85244  C =    939.96534 [MHz]
  Nuclear repulsion =  416.641991640359606

  Charge       = 1
  Multiplicity = 1
  Electrons    = 64
  Nalpha       = 32
  Nbeta        = 32

  ==> Algorithm <==

  SCF Algorithm Type is DF.
  DIIS enabled.
  MOM disabled.
  Fractional occupation disabled.
  Guess Type is SAD.
  Energy threshold   = 1.00e-08
  Density threshold  = 1.00e-08
  Integral threshold = 0.00e+00

  ==> Primary Basis <==

  Basis Set: 6-31G*
    Blend: 6-31G*
    Number of shells: 72
    Number of basis function: 153
    Number of Cartesian functions: 153
    Spherical Harmonics?: false
    Max angular momentum: 2

  ==> DFT Potential <==

   => Composite Functional: B3LYP-D3ZERO <= 

    B3LYP-d3zero Hyb-GGA Exchange-Correlation Functional

    P. J. Stephens, F. J. Devlin, C. F. Chabalowski, and M. J. Frisch, J. Phys. Chem. 98, 11623 (1994)

    Deriv               =              1
    GGA                 =           TRUE
    Meta                =          FALSE

    Exchange Hybrid     =           TRUE
    MP2 Hybrid          =          FALSE

   => Exchange Functionals <=

    0.0800   Slater exchange
    0.7200         Becke 88

   => Exact (HF) Exchange <=

    0.2000               HF 

   => Correlation Functionals <=

    0.1900   Vosko, Wilk & Nusair (VWN5_RPA)
    0.8100   Lee, Yang & Parr

   => Molecular Quadrature <=

    Radial Scheme       =       TREUTLER
    Pruning Scheme      =           FLAT
    Nuclear Scheme      =       TREUTLER

    BS radius alpha     =              1
    Pruning alpha       =              1
    Radial Points       =             75
    Spherical Points    =            302
    Total Points        =         397097
    Total Blocks        =           3002
    Max Points          =            256
    Max Functions       =            149

   => -D3ZERO: Empirical Dispersion <=

    Grimme's -D3 (zero-damping) Dispersion Correction
    Grimme S.; Antony J.; Ehrlich S.; Krieg H. (2010), J. Chem. Phys., 132: 154104

        S6 =   1.000000E+00
        S8 =   1.703000E+00
       SR6 =   1.261000E+00
       SR8 =   1.000000E+00
    ALPHA6 =   1.400000E+01

   => Loading Basis Set <=

    Name: (6-31G* AUX)
    Role: JKFIT
    Keyword: DF_BASIS_SCF
    atoms 1-7         entry C          line   121 file /shared/joao/test_parameterize/miniconda3/share/psi4/basis/cc-pvdz-jkfit.gbs 
    atoms 8-12, 15-18 entry H          line    51 file /shared/joao/test_parameterize/miniconda3/share/psi4/basis/cc-pvdz-jkfit.gbs 
    atoms 13-14       entry N          line   171 file /shared/joao/test_parameterize/miniconda3/share/psi4/basis/cc-pvdz-jkfit.gbs 

  ==> Pre-Iterations <==

   -------------------------------------------------------
    Irrep   Nso     Nmo     Nalpha   Nbeta   Ndocc  Nsocc
   -------------------------------------------------------
     A        153     153       0       0       0       0
   -------------------------------------------------------
    Total     153     153      32      32      32       0
   -------------------------------------------------------

  ==> Integral Setup <==

  ==> DiskDFJK: Density-Fitted J/K Matrices <==

    J tasked:                  Yes
    K tasked:                  Yes
    wK tasked:                  No
    OpenMP threads:              4
    Integrals threads:           4
    Memory (MB):              2002
    Algorithm:                Core
    Integral Cache:           NONE
    Schwarz Cutoff:          1E-12
    Fitting Condition:       1E-12

   => Auxiliary Basis Set <=

  Basis Set: (6-31G* AUX)
    Blend: CC-PVDZ-JKFIT
    Number of shells: 297
    Number of basis function: 954
    Number of Cartesian functions: 954
    Spherical Harmonics?: false
    Max angular momentum: 3

  Minimum eigenvalue in the overlap matrix is 4.8713907485E-04.
  Using Symmetric Orthogonalization.

  SCF Guess: Superposition of Atomic Densities via on-the-fly atomic UHF.

  ==> Iterations <==

                           Total Energy        Delta E     RMS |[F,P]|

   @DF-RKS iter   0:  -379.61151301562376   -3.79612e+02   6.72907e-02 
   @DF-RKS iter   1:  -380.99091238786968   -1.37940e+00   1.22186e-02 
   @DF-RKS iter   2:  -380.79566753367368    1.95245e-01   1.43133e-02 DIIS
   @DF-RKS iter   3:  -381.41432991505764   -6.18662e-01   2.87329e-03 DIIS
   @DF-RKS iter   4:  -381.43660645827782   -2.22765e-02   9.42137e-04 DIIS
   @DF-RKS iter   5:  -381.43858909537147   -1.98264e-03   3.89221e-04 DIIS
   @DF-RKS iter   6:  -381.43899415304639   -4.05058e-04   1.09238e-04 DIIS
   @DF-RKS iter   7:  -381.43902707734628   -3.29243e-05   3.50484e-05 DIIS
   @DF-RKS iter   8:  -381.43903058589513   -3.50855e-06   7.63040e-06 DIIS
   @DF-RKS iter   9:  -381.43903074298578   -1.57091e-07   4.23236e-06 DIIS
   @DF-RKS iter  10:  -381.43903079682451   -5.38387e-08   4.90246e-07 DIIS
   @DF-RKS iter  11:  -381.43903079788447   -1.05996e-09   3.87997e-07 DIIS
   @DF-RKS iter  12:  -381.43903079837639   -4.91923e-10   9.06402e-08 DIIS
   @DF-RKS iter  13:  -381.43903079840641   -3.00133e-11   1.64245e-08 DIIS
   @DF-RKS iter  14:  -381.43903079840760   -1.19371e-12   8.27916e-09 DIIS

  ==> Post-Iterations <==

    Orbital Energies [Eh]
    ---------------------

    Doubly Occupied:                                                      

       1A    -14.580572     2A    -14.529028     3A    -10.495763  
       4A    -10.370351     5A    -10.358032     6A    -10.357071  
       7A    -10.347926     8A    -10.342316     9A    -10.341551  
      10A     -1.177097    11A     -1.081643    12A     -1.014775  
      13A     -0.924860    14A     -0.903219    15A     -0.841202  
      16A     -0.777738    17A     -0.767242    18A     -0.740400  
      19A     -0.720865    20A     -0.707980    21A     -0.670994  
      22A     -0.628016    23A     -0.606874    24A     -0.584120  
      25A     -0.577702    26A     -0.552888    27A     -0.518788  
      28A     -0.507773    29A     -0.498897    30A     -0.449100  
      31A     -0.415475    32A     -0.406675  

    Virtual:                                                              

      33A     -0.246969    34A     -0.156337    35A     -0.139831  
      36A     -0.096809    37A     -0.072039    38A     -0.047871  
      39A     -0.037312    40A     -0.006673    41A      0.006088  
      42A      0.008782    43A      0.022396    44A      0.055224  
      45A      0.060588    46A      0.094116    47A      0.133738  
      48A      0.138481    49A      0.156369    50A      0.159681  
      51A      0.210286    52A      0.240886    53A      0.299410  
      54A      0.354277    55A      0.361277    56A      0.381202  
      57A      0.394806    58A      0.400312    59A      0.415751  
      60A      0.422465    61A      0.441088    62A      0.448828  
      63A      0.453820    64A      0.469815    65A      0.472062  
      66A      0.482877    67A      0.489431    68A      0.510056  
      69A      0.530614    70A      0.539042    71A      0.553416  
      72A      0.579084    73A      0.622089    74A      0.634401  
      75A      0.668706    76A      0.685599    77A      0.693508  
      78A      0.702513    79A      0.713310    80A      0.723676  
      81A      0.734962    82A      0.741592    83A      0.770771  
      84A      0.776739    85A      0.808822    86A      0.821847  
      87A      0.852444    88A      0.906234    89A      0.950060  
      90A      0.966198    91A      0.990643    92A      1.016343  
      93A      1.047067    94A      1.077171    95A      1.137881  
      96A      1.144438    97A      1.245743    98A      1.274678  
      99A      1.278216   100A      1.309110   101A      1.319677  
     102A      1.340624   103A      1.358620   104A      1.381887  
     105A      1.436773   106A      1.505836   107A      1.538011  
     108A      1.554037   109A      1.626654   110A      1.664487  
     111A      1.710654   112A      1.724139   113A      1.747240  
     114A      1.775342   115A      1.807519   116A      1.827045  
     117A      1.893356   118A      1.948697   119A      1.968453  
     120A      1.972470   121A      1.996320   122A      2.017266  
     123A      2.023120   124A      2.028142   125A      2.118127  
     126A      2.129924   127A      2.152997   128A      2.193430  
     129A      2.232817   130A      2.344441   131A      2.366362  
     132A      2.402736   133A      2.447604   134A      2.460457  
     135A      2.485842   136A      2.512000   137A      2.554484  
     138A      2.583400   139A      2.598029   140A      2.625996  
     141A      2.735004   142A      2.839787   143A      2.980441  
     144A      3.256487   145A      3.622240   146A      3.694575  
     147A      3.912480   148A      3.944776   149A      3.962463  
     150A      4.043238   151A      4.172218   152A      4.251170  
     153A      4.544876  

    Final Occupation by Irrep:
              A 
    DOCC [    32 ]

  Energy converged.

  @DF-RKS Final Energy:  -381.43903079840760

   => Energetics <=

    Nuclear Repulsion Energy =            416.6419916403596062
    One-Electron Energy =               -1328.6177991183774338
    Two-Electron Energy =                 574.9582423510373701
    DFT Exchange-Correlation Energy =     -44.4095740614271151
    Empirical Dispersion Energy =          -0.0118916100000000
    VV10 Nonlocal Energy =                  0.0000000000000000
    Total Energy =                       -381.4390307984076003



Properties will be evaluated at   0.000000,   0.000000,   0.000000 [a0]

Properties computed using the SCF density matrix

  Nuclear Dipole Moment: [e a0]
     X:     0.1578      Y:    -0.1684      Z:     0.0853

  Electronic Dipole Moment: [e a0]
     X:     0.0488      Y:     0.2771      Z:    -2.0900

  Dipole Moment: [e a0]
     X:     0.2066      Y:     0.1087      Z:    -2.0047     Total:     2.0183

  Dipole Moment: [D]
     X:     0.5251      Y:     0.2763      Z:    -5.0955     Total:     5.1300


*** tstop() called on oliva.prib.upf.edu at Sat Sep 29 20:25:10 2018
Module time:
	user time   =     108.49 seconds =       1.81 minutes
	system time =       0.96 seconds =       0.02 minutes
	total time  =         32 seconds =       0.53 minutes
Total time:
	user time   =     108.49 seconds =       1.81 minutes
	system time =       0.96 seconds =       0.02 minutes
	total time  =         32 seconds =       0.53 minutes

*** tstart() called on oliva.prib.upf.edu
*** at Sat Sep 29 20:25:10 2018


         ------------------------------------------------------------
                                   SCF GRAD                          
                          Rob Parrish, Justin Turney,                
                       Andy Simmonett, and Alex Sokolov              
         ------------------------------------------------------------

  ==> Geometry <==

    Molecular point group: c1
    Full point group: C1

    Geometry (in Angstrom), charge = 1, multiplicity = 1:

       Center              X                  Y                   Z               Mass       
    ------------   -----------------  -----------------  -----------------  -----------------
         C            0.000000000000     0.000000000000    -0.177864000000    12.000000000000
         C            0.036678000000     1.219374000000     0.524165000000    12.000000000000
         C            0.031765000000     1.213120000000     1.915444000000    12.000000000000
         C            0.000000000000     0.000000000000     2.610107000000    12.000000000000
         C           -0.031765000000    -1.213120000000     1.915444000000    12.000000000000
         C           -0.036678000000    -1.219375000000     0.524165000000    12.000000000000
         C            0.000000000000     0.000000000000    -1.644734000000    12.000000000000
         H            0.018170000000     2.164705000000    -0.010854000000     1.007825032070
         H            0.042402000000     2.152895000000     2.457886000000     1.007825032070
         H            0.000000000000     0.000000000000     3.695756000000     1.007825032070
         H           -0.042402000000    -2.152895000000     2.457886000000     1.007825032070
         H           -0.018170000000    -2.164705000000    -0.010853000000     1.007825032070
         N           -0.712590000000    -0.905950000000    -2.308461000000    14.003074004780
         N            0.712590000000     0.905950000000    -2.308460000000    14.003074004780
         H            0.673432000000     1.006470000000    -3.315997000000     1.007825032070
         H            1.377190000000     1.485970000000    -1.813316000000     1.007825032070
         H           -0.242311000000    -1.641143000000    -2.819942000000     1.007825032070
         H           -1.724821000000    -0.940417000000    -2.277364000000     1.007825032070

  Nuclear repulsion =  416.641991640359606

  ==> Basis Set <==

  Basis Set: 6-31G*
    Blend: 6-31G*
    Number of shells: 72
    Number of basis function: 153
    Number of Cartesian functions: 153
    Spherical Harmonics?: false
    Max angular momentum: 2

  ==> DFJKGrad: Density-Fitted SCF Gradients <==

    Gradient:                    1
    J tasked:                  Yes
    K tasked:                  Yes
    wK tasked:                  No
    OpenMP threads:              4
    Integrals threads:           4
    Memory (MB):              2002
    Schwarz Cutoff:          0E+00
    Fitting Condition:       1E-12

   => Auxiliary Basis Set <=

  Basis Set: (6-31G* AUX)
    Blend: CC-PVDZ-JKFIT
    Number of shells: 297
    Number of basis function: 954
    Number of Cartesian functions: 954
    Spherical Harmonics?: false
    Max angular momentum: 3

  ==> DFT Potential <==

   => Composite Functional: B3LYP-D3ZERO <= 

    B3LYP-d3zero Hyb-GGA Exchange-Correlation Functional

    P. J. Stephens, F. J. Devlin, C. F. Chabalowski, and M. J. Frisch, J. Phys. Chem. 98, 11623 (1994)

    Deriv               =              1
    GGA                 =           TRUE
    Meta                =          FALSE

    Exchange Hybrid     =           TRUE
    MP2 Hybrid          =          FALSE

   => Exchange Functionals <=

    0.0800   Slater exchange
    0.7200         Becke 88

   => Exact (HF) Exchange <=

    0.2000               HF 

   => Correlation Functionals <=

    0.1900   Vosko, Wilk & Nusair (VWN5_RPA)
    0.8100   Lee, Yang & Parr

   => Molecular Quadrature <=

    Radial Scheme       =       TREUTLER
    Pruning Scheme      =           FLAT
    Nuclear Scheme      =       TREUTLER

    BS radius alpha     =              1
    Pruning alpha       =              1
    Radial Points       =             75
    Spherical Points    =            302
    Total Points        =         397097
    Total Blocks        =           3002
    Max Points          =            256
    Max Functions       =            149


  -Total Gradient:
     Atom            X                  Y                   Z
    ------   -----------------  -----------------  -----------------
       1        0.003717965422    -0.011404964293     0.009533528439
       2       -0.001643297940    -0.001877037002    -0.006825624634
       3       -0.000442640728    -0.003177046350     0.001944472002
       4        0.000057274084     0.000490395853    -0.000234749659
       5       -0.001167175924     0.000739733762     0.001680060291
       6        0.001622491156     0.004102629410    -0.001293209795
       7       -0.013543776508    -0.026805098174    -0.028881180204
       8        0.000484113392    -0.000149177047     0.000093796901
       9        0.000226398510     0.000043493430    -0.000299979671
      10        0.000253299928    -0.000078886120    -0.000104067249
      11       -0.000118563324    -0.000006202016     0.000020913707
      12        0.002148927137    -0.001506106002     0.000873874032
      13        0.012031642808     0.026957424457     0.028689586889
      14       -0.002704532279     0.010269187983    -0.006197904526
      15        0.003013387364     0.002821805964     0.002018378428
      16       -0.003385402665    -0.001377181335    -0.000764494393
      17        0.002134218639    -0.005681358171     0.012730663159
      18       -0.002680322920     0.006642391626    -0.012991103449


*** tstop() called on oliva.prib.upf.edu at Sat Sep 29 20:25:17 2018
Module time:
	user time   =      27.33 seconds =       0.46 minutes
	system time =       0.25 seconds =       0.00 minutes
	total time  =          7 seconds =       0.12 minutes
Total time:
	user time   =     135.88 seconds =       2.26 minutes
	system time =       1.22 seconds =       0.02 minutes
	total time  =         39 seconds =       0.65 minutes

			-----------------------------------------
			 OPTKING 2.0: for geometry optimizations 
			  - R.A. King,  Bethel University        
			-----------------------------------------
	At level 1: Red. Int., RFO, no backsteps, dynamic trust

	Internal coordinates to be generated automatically.
	Detected frag 1 with atoms:  1 2 3 4 5 6 7 8 9 10 11 12 13 14 15 16 17 18
	---Fragment 1 Bond Connectivity---
	 1 : 2 6 7
	 2 : 1 3 8
	 3 : 2 4 9
	 4 : 3 5 10
	 5 : 4 6 11
	 6 : 1 5 12
	 7 : 1 13 14
	 8 : 2
	 9 : 3
	 10 : 4
	 11 : 5
	 12 : 6
	 13 : 7 17 18
	 14 : 7 15 16
	 15 : 14
	 16 : 14
	 17 : 13
	 18 : 13

	Assuming in current code that numbering for constraints corresponds to unified fragment.
	Frozen dihedral atom list: 
	     1     7    13    17
	---Fragment 1 Geometry and Gradient---
	 C           0.0000000000        0.0000000000       -0.3361142489
	 C           0.0693113751        2.3042829136        0.9905282984
	 C           0.0600271506        2.2924645663        3.6196645829
	 C           0.0000000000        0.0000000000        4.9323874075
	 C          -0.0600271506       -2.2924645663        3.6196645829
	 C          -0.0693113751       -2.3042848033        0.9905282984
	 C           0.0000000000        0.0000000000       -3.1080968214
	 H           0.0343363238        4.0906996085       -0.0205110874
	 H           0.0801281675        4.0683819429        4.6447314059
	 H           0.0000000000        0.0000000000        6.9839666940
	 H          -0.0801281675       -4.0683819429        4.6447314059
	 H          -0.0343363238       -4.0906996085       -0.0205091977
	 N          -1.3465999450       -1.7119973901       -4.3623590784
	 N           1.3465999450        1.7119973901       -4.3623571887
	 H           1.2726020491        1.9019526610       -6.2663261875
	 H           2.6025119329        2.8080763417       -3.4266706324
	 H          -0.4579014290       -3.1013108149       -5.3289180906
	 H          -3.2594393182       -1.7771305807       -4.3035942649
	             0.0037179654       -0.0114049643        0.0095335284
	            -0.0016432979       -0.0018770370       -0.0068256246
	            -0.0004426407       -0.0031770463        0.0019444720
	             0.0000572741        0.0004903959       -0.0002347497
	            -0.0011671759        0.0007397338        0.0016800603
	             0.0016224912        0.0041026294       -0.0012932098
	            -0.0135437765       -0.0268050982       -0.0288811802
	             0.0004841134       -0.0001491770        0.0000937969
	             0.0002263985        0.0000434934       -0.0002999797
	             0.0002532999       -0.0000788861       -0.0001040672
	            -0.0001185633       -0.0000062020        0.0000209137
	             0.0021489271       -0.0015061060        0.0008738740
	             0.0120316428        0.0269574245        0.0286895869
	            -0.0027045323        0.0102691880       -0.0061979045
	             0.0030133874        0.0028218060        0.0020183784
	            -0.0033854027       -0.0013771813       -0.0007644944
	             0.0021342186       -0.0056813582        0.0127306632
	            -0.0026803229        0.0066423916       -0.0129911034

	Previous optimization step data not found.  Starting new optimization.

	---Fragment 1 Intrafragment Coordinates---
	 - Coordinate -           - BOHR/RAD -       - ANG/DEG -
	 R(1,2)           =         2.659794	       1.407502
	 R(1,6)           =         2.659796	       1.407503
	 R(1,7)           =         2.771983	       1.466870
	 R(2,3)           =         2.629179	       1.391302
	 R(2,8)           =         2.052976	       1.086388
	 R(3,4)           =         2.642393	       1.398294
	 R(3,9)           =         2.050622	       1.085142
	 R(4,5)           =         2.642393	       1.398294
	 R(4,10)          =         2.051579	       1.085649
	 R(5,6)           =         2.629179	       1.391302
	 R(5,11)          =         2.050622	       1.085142
	 R(6,12)          =         2.052973	       1.086386
	 R(7,13)          =         2.513452	       1.330061
	 R(7,14)          =         2.513451	       1.330061
	 R(13,17)         =         1.911600	       1.011575
	 R(13,18)         =         1.914850	       1.013295
	 R(14,15)         =         1.914852	       1.013296
	 R(14,16)         =         1.911600	       1.011575
	 B(1,2,3)         =         2.088380	     119.655376
	 B(1,2,8)         =         2.103396	     120.515689
	 B(1,6,5)         =         2.088379	     119.655315
	 B(1,6,12)        =         2.103396	     120.515729
	 B(1,7,13)        =         2.093264	     119.935172
	 B(1,7,14)        =         2.093263	     119.935135
	 B(2,1,6)         =         2.097220	     120.161857
	 B(2,1,7)         =         2.092983	     119.919082
	 B(2,3,4)         =         2.095279	     120.050636
	 B(2,3,9)         =         2.089719	     119.732108
	 B(3,2,8)         =         2.090149	     119.756722
	 B(3,4,5)         =         2.101793	     120.423859
	 B(3,4,10)        =         2.090696	     119.788070
	 B(4,3,9)         =         2.098135	     120.214297
	 B(4,5,6)         =         2.095280	     120.050677
	 B(4,5,11)        =         2.098135	     120.214297
	 B(5,4,10)        =         2.090696	     119.788070
	 B(5,6,12)        =         2.090149	     119.756743
	 B(6,1,7)         =         2.092982	     119.919061
	 B(6,5,11)        =         2.089719	     119.732067
	 B(7,13,17)       =         2.092411	     119.886344
	 B(7,13,18)       =         2.144860	     122.891432
	 B(7,14,15)       =         2.144860	     122.891405
	 B(7,14,16)       =         2.092412	     119.886393
	 B(13,7,14)       =         2.096659	     120.129694
	 B(15,14,16)      =         2.043399	     117.078146
	 B(17,13,18)      =         2.043399	     117.078167
	 D(1,2,3,4)       =         0.007799	       0.446825
	 D(1,2,3,9)       =        -3.122896	    -178.928735
	 D(1,6,5,4)       =         0.007799	       0.446822
	 D(1,6,5,11)      =        -3.122896	    -178.928737
	*D(1,7,13,17)     =        -1.919863	    -110.000020
	 D(1,7,13,18)     =         1.143314	      65.507062
	 D(1,7,14,15)     =        -3.032165	    -173.730230
	 D(1,7,14,16)     =         0.187844	      10.762681
	 D(2,1,6,5)       =        -0.003906	      -0.223802
	 D(2,1,6,12)      =        -3.091437	    -177.126283
	 D(2,1,7,13)      =        -2.505167	    -143.535494
	 D(2,1,7,14)      =         0.636426	      36.464506
	 D(2,3,4,5)       =        -0.003942	      -0.225875
	 D(2,3,4,10)      =         3.137650	     179.774125
	 D(3,2,1,6)       =        -0.003906	      -0.223806
	 D(3,2,1,7)       =         3.137687	     179.776196
	 D(3,4,5,6)       =        -0.003942	      -0.225874
	 D(3,4,5,11)      =         3.126699	     179.146646
	 D(4,3,2,8)       =         3.095744	     177.373058
	 D(4,5,6,12)      =         3.095744	     177.373055
	 D(5,4,3,9)       =         3.126699	     179.146646
	 D(5,6,1,7)       =         3.137687	     179.776197
	 D(6,1,2,8)       =        -3.091437	    -177.126287
	 D(6,1,7,13)      =         0.636426	      36.464508
	 D(6,1,7,14)      =        -2.505167	    -143.535492
	 D(6,5,4,10)      =         3.137650	     179.774126
	 D(7,1,2,8)       =         0.050156	       2.873714
	 D(7,1,6,12)      =         0.050156	       2.873716
	 D(8,2,3,9)       =        -0.034950	      -2.002503
	 D(9,3,4,10)      =        -0.014894	      -0.853354
	 D(10,4,5,11)     =        -0.014894	      -0.853354
	 D(11,5,6,12)     =        -0.034950	      -2.002504
	 D(13,7,14,15)    =         0.109428	       6.269770
	 D(13,7,14,16)    =        -2.953748	    -169.237319
	 D(14,7,13,17)    =         1.221730	      69.999980
	 D(14,7,13,18)    =        -1.998279	    -114.492938

	Current energy   :      -381.4390307984

	Generating empirical Hessian (Schlegel '84) for each fragment.
	Taking RFO optimization step.
	Going to follow RFO solution 1.
	Using RFO vector 1.

	Determining step-restricting scale parameter for RS-RFO.
	Maximum step size allowed    0.50000

	 Iter      |step|        alpha        rfo_root  
	------------------------------------------------
	    0     0.57406       1.00000           1
	    1     0.51221       1.38523           1
	    2     0.50043       1.47582           1
	    3     0.50000       1.47926           1
	------------------------------------------------
	Norm of target step-size    0.50000
	Projected energy change by RFO approximation:        -0.0163246857

	Back-transformation to cartesian coordinates...
	Could not converge backtransformation.
	Using first guess instead.

	Back-transformation to cartesian coordinates to adjust frozen coordinates...
	Successfully converged to displaced geometry.

	--- Internal Coordinate Step in ANG or DEG, aJ/ANG or AJ/DEG ---
	 ---------------------------------------------------------------------------
	   Coordinate                Previous        Force       Change         New 
	   ----------                --------       ------       ------       ------
	    1 R(1,2)          =      1.407502     0.042581     0.007090     1.414592
	    2 R(1,6)          =      1.407503     0.009347     0.002221     1.409724
	    3 R(1,7)          =      1.466870    -0.044434    -0.007436     1.459434
	    4 R(2,3)          =      1.391302    -0.014992    -0.001601     1.389701
	    5 R(2,8)          =      1.086388     0.001521     0.000653     1.087040
	    6 R(3,4)          =      1.398294     0.014092     0.002425     1.400719
	    7 R(3,9)          =      1.085142     0.000907     0.000974     1.086116
	    8 R(4,5)          =      1.398294     0.013858     0.003075     1.401369
	    9 R(4,10)         =      1.085649     0.000854     0.000398     1.086047
	   10 R(5,6)          =      1.391302    -0.009790    -0.000854     1.390448
	   11 R(5,11)         =      1.085142    -0.000143     0.000575     1.085717
	   12 R(6,12)         =      1.086386    -0.007553     0.001126     1.087512
	   13 R(7,13)         =      1.330061     0.324244     0.039768     1.369830
	   14 R(7,14)         =      1.330061    -0.072469    -0.007554     1.322507
	   15 R(13,17)        =      1.011575     0.010843     0.004810     1.016385
	   16 R(13,18)        =      1.013295    -0.016917     0.028291     1.041586
	   17 R(14,15)        =      1.013296     0.015191     0.003598     1.016894
	   18 R(14,16)        =      1.011575     0.027914     0.004159     1.015734
	   19 B(1,2,3)        =    119.655376     0.000040     0.160696   119.816072
	   20 B(1,2,8)        =    120.515689    -0.000022    -0.064016   120.451674
	   21 B(1,6,5)        =    119.655315    -0.000027    -0.150758   119.504557
	   22 B(1,6,12)       =    120.515729    -0.000100    -0.370333   120.145396
	   23 B(1,7,13)       =    119.935172     0.000790     2.003121   121.938293
	   24 B(1,7,14)       =    119.935135    -0.000087    -0.241975   119.693160
	   25 B(2,1,6)        =    120.161857    -0.000031    -0.023928   120.137929
	   26 B(2,1,7)        =    119.919082     0.000454     1.242658   121.161740
	   27 B(2,3,4)        =    120.050636    -0.000088    -0.304777   119.745859
	   28 B(2,3,9)        =    119.732108     0.000066     0.239259   119.971367
	   29 B(3,2,8)        =    119.756722    -0.000018    -0.097196   119.659525
	   30 B(3,4,5)        =    120.423859     0.000080     0.239233   120.663093
	   31 B(3,4,10)       =    119.788070    -0.000046    -0.158452   119.629618
	   32 B(4,3,9)        =    120.214297     0.000022     0.064359   120.278656
	   33 B(4,5,6)        =    120.050677     0.000026     0.067087   120.117764
	   34 B(4,5,11)       =    120.214297    -0.000011     0.022489   120.236785
	   35 B(5,4,10)       =    119.788070    -0.000034    -0.082403   119.705667
	   36 B(5,6,12)       =    119.756743     0.000128     0.548716   120.305459
	   37 B(6,1,7)        =    119.919061    -0.000423    -1.218801   118.700261
	   38 B(6,5,11)       =    119.732067    -0.000014    -0.086624   119.645442
	   39 B(7,13,17)      =    119.886344     0.000449     1.481825   121.368170
	   40 B(7,13,18)      =    122.891432    -0.000445    -2.721795   120.169637
	   41 B(7,14,15)      =    122.891405    -0.000449    -1.913831   120.977574
	   42 B(7,14,16)      =    119.886393     0.000278     1.122116   121.008508
	   43 B(13,7,14)      =    120.129694    -0.000703    -2.046816   118.082877
	   44 B(15,14,16)     =    117.078146     0.000164     0.680561   117.758707
	   45 B(17,13,18)     =    117.078167    -0.000050    -0.603229   116.474937
	   46 D(1,2,3,4)      =      0.446825     0.000000    -0.009854     0.436971
	   47 D(1,2,3,9)      =   -178.928735     0.000002     0.101830  -178.826906
	   48 D(1,6,5,4)      =      0.446822     0.000010     0.806355     1.253177
	   49 D(1,6,5,11)     =   -178.928737     0.000002     0.148577  -178.780160
	   50 *D(1,7,13,17)   =   -110.000020     0.000000     0.000000  -110.000020
	   51 D(1,7,13,18)    =     65.507062    -0.000166   -12.108992    53.398070
	   52 D(1,7,14,15)    =   -173.730230    -0.000035    -2.951919  -176.682149
	   53 D(1,7,14,16)    =     10.762681    -0.000016    -1.511227     9.251454
	   54 D(2,1,6,5)      =     -0.223802    -0.000013    -1.122858    -1.346660
	   55 D(2,1,6,12)     =   -177.126283    -0.000021    -1.799470  -178.925753
	   56 D(2,1,7,13)     =   -143.535494    -0.000082    -8.176351  -151.711844
	   57 D(2,1,7,14)     =     36.464506    -0.000009    -1.918197    34.546309
	   58 D(2,3,4,5)      =     -0.225875    -0.000003    -0.308778    -0.534654
	   59 D(2,3,4,10)     =    179.774125     0.000002     0.155860   179.929984
	   60 D(3,2,1,6)      =     -0.223806     0.000008     0.724058     0.500252
	   61 D(3,2,1,7)      =    179.776196     0.000006     0.626262   180.402457
	   62 D(3,4,5,6)      =     -0.225874    -0.000002    -0.095162    -0.321036
	   63 D(3,4,5,11)     =    179.146646     0.000006     0.565853   179.712499
	   64 D(4,3,2,8)      =    177.373058    -0.000000    -0.022813   177.350245
	   65 D(4,5,6,12)     =    177.373055     0.000016     1.455268   178.828324
	   66 D(5,4,3,9)      =    179.146646    -0.000005    -0.419718   178.726929
	   67 D(5,6,1,7)      =    179.776197    -0.000011    -1.027451   178.748746
	   68 D(6,1,2,8)      =   -177.126287     0.000008     0.738084  -176.388203
	   69 D(6,1,7,13)     =     36.464508    -0.000084    -8.272773    28.191735
	   70 D(6,1,7,14)     =   -143.535492    -0.000011    -2.014620  -145.550112
	   71 D(6,5,4,10)     =    179.774126    -0.000007    -0.560151   179.213974
	   72 D(7,1,2,8)      =      2.873714     0.000007     0.640287     3.514001
	   73 D(7,1,6,12)     =      2.873716    -0.000020    -1.704063     1.169653
	   74 D(8,2,3,9)      =     -2.002503     0.000001     0.088871    -1.913632
	   75 D(9,3,4,10)     =     -0.853354     0.000000     0.044920    -0.808434
	   76 D(10,4,5,11)    =     -0.853354     0.000001     0.100863    -0.752490
	   77 D(11,5,6,12)    =     -2.002504     0.000009     0.797491    -1.205013
	   78 D(13,7,14,15)   =      6.269770     0.000038     3.066652     9.336422
	   79 D(13,7,14,16)   =   -169.237319     0.000057     4.507344  -164.729975
	   80 D(14,7,13,17)   =     69.999980    -0.000073    -6.161473    63.838507
	   81 D(14,7,13,18)   =   -114.492938    -0.000239   -18.270465  -132.763403
	 ---------------------------------------------------------------------------
	Successfully symmetrized geometry.

  ==> Convergence Check <==

  Measures of convergence in internal coordinates in au.
  Criteria marked as inactive (o), active & met (*), and active & unmet ( ).
  --------------------------------------------------------------------------------------------- ~
   Step     Total Energy     Delta E     MAX Force     RMS Force      MAX Disp      RMS Disp    ~
  --------------------------------------------------------------------------------------------- ~
    Convergence Criteria    1.00e-06 *    3.00e-04 *             o    1.20e-03 *             o  ~
  --------------------------------------------------------------------------------------------- ~
      1    -381.43903080   -3.81e+02      3.94e-02      5.53e-03 o    3.19e-01      5.40e-02 o  ~
  ---------------------------------------------------------------------------------------------

	Writing optimization data to binary file.
	Structure for next step:
	Cartesian Geometry (in Angstrom)
	    C    -0.0246478060   0.0420228877  -0.1786752251
	    C     0.0618846798   1.2527355095   0.5477947081
	    C     0.0770192185   1.2253387304   1.9371428853
	    C     0.0156915652  -0.0023401313   2.6087503570
	    C    -0.0721066886  -1.2044505670   1.8938676994
	    C    -0.1060012297  -1.1887345223   0.5039220713
	    C    -0.0339871502   0.0360122990  -1.6380671299
	    H     0.0658854129   2.2077248952   0.0285298191
	    H     0.1241577099   2.1544398939   2.4976761572
	    H     0.0287956298  -0.0216166132   3.6945474447
	    H    -0.1145654252  -2.1524382972   2.4214080318
	    H    -0.1549344566  -2.1207088777  -0.0543901593
	    N    -0.6574649706  -0.9509900238  -2.3546807152
	    N     0.6757799844   0.9333409408  -2.3014341871
	    H     0.6443673277   0.9789427688  -3.3168196166
	    H     1.3355489192   1.5379233497  -1.8209128584
	    H    -0.1259780434  -1.6344734789  -2.8870435904
	    H    -1.6559546771  -1.1818497635  -2.1686076919
			--------------------------
			 OPTKING Finished Execution 
			--------------------------

    Structure for next step:
    Molecular point group: c1
    Full point group: C1

    Geometry (in Angstrom), charge = 1, multiplicity = 1:

    C           -0.024647805983     0.042022887678    -0.178675225132
    C            0.061884679803     1.252735509455     0.547794708072
    C            0.077019218541     1.225338730422     1.937142885345
    C            0.015691565221    -0.002340131288     2.608750357045
    C           -0.072106688576    -1.204450567049     1.893867699371
    C           -0.106001229682    -1.188734522289     0.503922071328
    C           -0.033987150238     0.036012298979    -1.638067129871
    H            0.065885412941     2.207724895198     0.028529819146
    H            0.124157709916     2.154439893872     2.497676157161
    H            0.028795629766    -0.021616613203     3.694547444690
    H           -0.114565425190    -2.152438297213     2.421408031809
    H           -0.154934456631    -2.120708877701    -0.054390159301
    N           -0.657464970605    -0.950990023794    -2.354680715175
    N            0.675779984386     0.933340940838    -2.301434187128
    H            0.644367327695     0.978942768754    -3.316819616643
    H            1.335548919185     1.537923349705    -1.820912858421
    H           -0.125978043409    -1.634473478897    -2.887043590387
    H           -1.655954677142    -1.181849763469    -2.168607691909

gradient() will perform analytic gradient computation.

*** tstart() called on oliva.prib.upf.edu
*** at Sat Sep 29 20:25:17 2018

   => Loading Basis Set <=

    Name: 6-31G*
    Role: ORBITAL
    Keyword: BASIS
    atoms 1-7         entry C          line   111 file /shared/joao/test_parameterize/miniconda3/share/psi4/basis/6-31gs.gbs 
    atoms 8-12, 15-18 entry H          line    44 file /shared/joao/test_parameterize/miniconda3/share/psi4/basis/6-31gs.gbs 
    atoms 13-14       entry N          line   128 file /shared/joao/test_parameterize/miniconda3/share/psi4/basis/6-31gs.gbs 


         ---------------------------------------------------------
                                   SCF
            by Justin Turney, Rob Parrish, Andy Simmonett
                             and Daniel Smith
                              RKS Reference
                        4 Threads,   2861 MiB Core
         ---------------------------------------------------------

  ==> Geometry <==

    Molecular point group: c1
    Full point group: C1

    Geometry (in Angstrom), charge = 1, multiplicity = 1:

       Center              X                  Y                   Z               Mass       
    ------------   -----------------  -----------------  -----------------  -----------------
         C           -0.024647805983     0.042022887678    -0.178675225132    12.000000000000
         C            0.061884679803     1.252735509455     0.547794708072    12.000000000000
         C            0.077019218541     1.225338730422     1.937142885345    12.000000000000
         C            0.015691565221    -0.002340131288     2.608750357045    12.000000000000
         C           -0.072106688576    -1.204450567049     1.893867699371    12.000000000000
         C           -0.106001229682    -1.188734522289     0.503922071328    12.000000000000
         C           -0.033987150238     0.036012298979    -1.638067129871    12.000000000000
         H            0.065885412941     2.207724895198     0.028529819146     1.007825032070
         H            0.124157709916     2.154439893872     2.497676157161     1.007825032070
         H            0.028795629766    -0.021616613203     3.694547444690     1.007825032070
         H           -0.114565425190    -2.152438297213     2.421408031809     1.007825032070
         H           -0.154934456631    -2.120708877701    -0.054390159301     1.007825032070
         N           -0.657464970605    -0.950990023794    -2.354680715175    14.003074004780
         N            0.675779984386     0.933340940838    -2.301434187128    14.003074004780
         H            0.644367327695     0.978942768754    -3.316819616643     1.007825032070
         H            1.335548919185     1.537923349705    -1.820912858421     1.007825032070
         H           -0.125978043409    -1.634473478897    -2.887043590387     1.007825032070
         H           -1.655954677142    -1.181849763469    -2.168607691909     1.007825032070

  Running in c1 symmetry.

  Rotational constants: A =      0.12029  B =      0.03965  C =      0.03100 [cm^-1]
  Rotational constants: A =   3606.30612  B =   1188.71842  C =    929.49064 [MHz]
  Nuclear repulsion =  415.556385174498757

  Charge       = 1
  Multiplicity = 1
  Electrons    = 64
  Nalpha       = 32
  Nbeta        = 32

  ==> Algorithm <==

  SCF Algorithm Type is DF.
  DIIS enabled.
  MOM disabled.
  Fractional occupation disabled.
  Guess Type is READ.
  Energy threshold   = 1.00e-08
  Density threshold  = 1.00e-08
  Integral threshold = 0.00e+00

  ==> Primary Basis <==

  Basis Set: 6-31G*
    Blend: 6-31G*
    Number of shells: 72
    Number of basis function: 153
    Number of Cartesian functions: 153
    Spherical Harmonics?: false
    Max angular momentum: 2

  ==> DFT Potential <==

   => Composite Functional: B3LYP-D3ZERO <= 

    B3LYP-d3zero Hyb-GGA Exchange-Correlation Functional

    P. J. Stephens, F. J. Devlin, C. F. Chabalowski, and M. J. Frisch, J. Phys. Chem. 98, 11623 (1994)

    Deriv               =              1
    GGA                 =           TRUE
    Meta                =          FALSE

    Exchange Hybrid     =           TRUE
    MP2 Hybrid          =          FALSE

   => Exchange Functionals <=

    0.0800   Slater exchange
    0.7200         Becke 88

   => Exact (HF) Exchange <=

    0.2000               HF 

   => Correlation Functionals <=

    0.1900   Vosko, Wilk & Nusair (VWN5_RPA)
    0.8100   Lee, Yang & Parr

   => Molecular Quadrature <=

    Radial Scheme       =       TREUTLER
    Pruning Scheme      =           FLAT
    Nuclear Scheme      =       TREUTLER

    BS radius alpha     =              1
    Pruning alpha       =              1
    Radial Points       =             75
    Spherical Points    =            302
    Total Points        =         397054
    Total Blocks        =           2991
    Max Points          =            256
    Max Functions       =            149

   => -D3ZERO: Empirical Dispersion <=

    Grimme's -D3 (zero-damping) Dispersion Correction
    Grimme S.; Antony J.; Ehrlich S.; Krieg H. (2010), J. Chem. Phys., 132: 154104

        S6 =   1.000000E+00
        S8 =   1.703000E+00
       SR6 =   1.261000E+00
       SR8 =   1.000000E+00
    ALPHA6 =   1.400000E+01

   => Loading Basis Set <=

    Name: (6-31G* AUX)
    Role: JKFIT
    Keyword: DF_BASIS_SCF
    atoms 1-7         entry C          line   121 file /shared/joao/test_parameterize/miniconda3/share/psi4/basis/cc-pvdz-jkfit.gbs 
    atoms 8-12, 15-18 entry H          line    51 file /shared/joao/test_parameterize/miniconda3/share/psi4/basis/cc-pvdz-jkfit.gbs 
    atoms 13-14       entry N          line   171 file /shared/joao/test_parameterize/miniconda3/share/psi4/basis/cc-pvdz-jkfit.gbs 

  Reading orbitals from file 180, no projection.

  ==> Pre-Iterations <==

   -------------------------------------------------------
    Irrep   Nso     Nmo     Nalpha   Nbeta   Ndocc  Nsocc
   -------------------------------------------------------
     A        153     153       0       0       0       0
   -------------------------------------------------------
    Total     153     153      32      32      32       0
   -------------------------------------------------------

  ==> Integral Setup <==

  ==> DiskDFJK: Density-Fitted J/K Matrices <==

    J tasked:                  Yes
    K tasked:                  Yes
    wK tasked:                  No
    OpenMP threads:              4
    Integrals threads:           4
    Memory (MB):              2002
    Algorithm:                Core
    Integral Cache:           NONE
    Schwarz Cutoff:          1E-12
    Fitting Condition:       1E-12

   => Auxiliary Basis Set <=

  Basis Set: (6-31G* AUX)
    Blend: CC-PVDZ-JKFIT
    Number of shells: 297
    Number of basis function: 954
    Number of Cartesian functions: 954
    Spherical Harmonics?: false
    Max angular momentum: 3

  Minimum eigenvalue in the overlap matrix is 4.9296672376E-04.
  Using Symmetric Orthogonalization.

  SCF Guess: Orbitals guess was supplied from a previous computation.

  ==> Iterations <==

                           Total Energy        Delta E     RMS |[F,P]|

   @DF-RKS iter   0:  -381.39415196157279   -3.81394e+02   2.62399e-03 
   @DF-RKS iter   1:  -381.44769504972510   -5.35431e-02   4.01696e-04 
   @DF-RKS iter   2:  -381.44754758258944    1.47467e-04   5.14913e-04 DIIS
   @DF-RKS iter   3:  -381.44827043106130   -7.22848e-04   1.14812e-04 DIIS
   @DF-RKS iter   4:  -381.44830038217555   -2.99511e-05   5.41219e-05 DIIS
   @DF-RKS iter   5:  -381.44830879368857   -8.41151e-06   1.52399e-05 DIIS
   @DF-RKS iter   6:  -381.44830944971562   -6.56027e-07   5.26674e-06 DIIS
   @DF-RKS iter   7:  -381.44830953268144   -8.29658e-08   1.66111e-06 DIIS
   @DF-RKS iter   8:  -381.44830953985394   -7.17250e-09   6.22772e-07 DIIS
   @DF-RKS iter   9:  -381.44830954113320   -1.27926e-09   1.74596e-07 DIIS
   @DF-RKS iter  10:  -381.44830954121107   -7.78755e-11   7.57863e-08 DIIS
   @DF-RKS iter  11:  -381.44830954122864   -1.75646e-11   2.32190e-08 DIIS
   @DF-RKS iter  12:  -381.44830954123006   -1.42109e-12   6.51914e-09 DIIS

  ==> Post-Iterations <==

    Orbital Energies [Eh]
    ---------------------

    Doubly Occupied:                                                      

       1A    -14.577935     2A    -14.538611     3A    -10.495750  
       4A    -10.373239     5A    -10.360701     6A    -10.358899  
       7A    -10.350199     8A    -10.344538     9A    -10.343307  
      10A     -1.173143    11A     -1.072855    12A     -1.015461  
      13A     -0.925965    14A     -0.905006    15A     -0.839770  
      16A     -0.777887    17A     -0.768159    18A     -0.736987  
      19A     -0.719979    20A     -0.692600    21A     -0.670240  
      22A     -0.629323    23A     -0.607346    24A     -0.584529  
      25A     -0.579920    26A     -0.557896    27A     -0.518423  
      28A     -0.509173    29A     -0.500389    30A     -0.453964  
      31A     -0.416417    32A     -0.408834  

    Virtual:                                                              

      33A     -0.243668    34A     -0.157839    35A     -0.136749  
      36A     -0.099736    37A     -0.075260    38A     -0.050030  
      39A     -0.038528    40A     -0.013427    41A      0.004730  
      42A      0.007043    43A      0.020872    44A      0.052510  
      45A      0.058362    46A      0.087280    47A      0.124308  
      48A      0.130692    49A      0.154715    50A      0.160799  
      51A      0.211678    52A      0.234025    53A      0.297292  
      54A      0.352120    55A      0.365805    56A      0.378721  
      57A      0.392919    58A      0.397652    59A      0.414268  
      60A      0.419250    61A      0.438691    62A      0.447073  
      63A      0.453362    64A      0.468179    65A      0.471424  
      66A      0.480407    67A      0.488233    68A      0.515487  
      69A      0.526142    70A      0.533257    71A      0.551516  
      72A      0.577139    73A      0.616762    74A      0.650847  
      75A      0.674006    76A      0.686188    77A      0.697191  
      78A      0.701521    79A      0.714796    80A      0.718662  
      81A      0.726180    82A      0.750509    83A      0.771596  
      84A      0.778150    85A      0.806927    86A      0.818779  
      87A      0.855939    88A      0.894503    89A      0.941563  
      90A      0.975190    91A      0.985564    92A      1.019007  
      93A      1.056480    94A      1.076944    95A      1.133044  
      96A      1.141700    97A      1.231939    98A      1.271828  
      99A      1.275092   100A      1.302918   101A      1.319572  
     102A      1.338226   103A      1.353126   104A      1.362853  
     105A      1.442046   106A      1.463265   107A      1.547329  
     108A      1.580272   109A      1.627695   110A      1.655463  
     111A      1.688532   112A      1.732866   113A      1.747229  
     114A      1.793140   115A      1.797396   116A      1.815276  
     117A      1.891462   118A      1.934593   119A      1.953330  
     120A      1.971629   121A      1.987616   122A      1.998853  
     123A      2.023630   124A      2.025813   125A      2.111686  
     126A      2.130228   127A      2.152485   128A      2.181775  
     129A      2.231648   130A      2.322592   131A      2.345071  
     132A      2.379618   133A      2.442615   134A      2.452652  
     135A      2.478959   136A      2.500690   137A      2.539282  
     138A      2.582347   139A      2.593594   140A      2.623140  
     141A      2.731567   142A      2.819648   143A      2.983742  
     144A      3.249566   145A      3.619447   146A      3.670003  
     147A      3.906979   148A      3.941284   149A      3.960615  
     150A      4.040711   151A      4.168353   152A      4.251783  
     153A      4.542845  

    Final Occupation by Irrep:
              A 
    DOCC [    32 ]

  Energy converged.

  @DF-RKS Final Energy:  -381.44830954123006

   => Energetics <=

    Nuclear Repulsion Energy =            415.5563851744987574
    One-Electron Energy =               -1326.4662628007599778
    Two-Electron Energy =                 573.8506831519691787
    DFT Exchange-Correlation Energy =     -44.3771879169378920
    Empirical Dispersion Energy =          -0.0119271500000000
    VV10 Nonlocal Energy =                  0.0000000000000000
    Total Energy =                       -381.4483095412300031



Properties will be evaluated at   0.000000,   0.000000,   0.000000 [a0]

Properties computed using the SCF density matrix

  Nuclear Dipole Moment: [e a0]
     X:    -0.4107      Y:     1.1488      Z:    -0.2835

  Electronic Dipole Moment: [e a0]
     X:     0.6502      Y:    -1.1200      Z:    -1.6075

  Dipole Moment: [e a0]
     X:     0.2395      Y:     0.0287      Z:    -1.8910     Total:     1.9063

  Dipole Moment: [D]
     X:     0.6087      Y:     0.0730      Z:    -4.8064     Total:     4.8454


*** tstop() called on oliva.prib.upf.edu at Sat Sep 29 20:25:42 2018
Module time:
	user time   =      92.08 seconds =       1.53 minutes
	system time =       0.64 seconds =       0.01 minutes
	total time  =         25 seconds =       0.42 minutes
Total time:
	user time   =     228.94 seconds =       3.82 minutes
	system time =       1.93 seconds =       0.03 minutes
	total time  =         64 seconds =       1.07 minutes

*** tstart() called on oliva.prib.upf.edu
*** at Sat Sep 29 20:25:42 2018


         ------------------------------------------------------------
                                   SCF GRAD                          
                          Rob Parrish, Justin Turney,                
                       Andy Simmonett, and Alex Sokolov              
         ------------------------------------------------------------

  ==> Geometry <==

    Molecular point group: c1
    Full point group: C1

    Geometry (in Angstrom), charge = 1, multiplicity = 1:

       Center              X                  Y                   Z               Mass       
    ------------   -----------------  -----------------  -----------------  -----------------
         C           -0.024647805983     0.042022887678    -0.178675225132    12.000000000000
         C            0.061884679803     1.252735509455     0.547794708072    12.000000000000
         C            0.077019218541     1.225338730422     1.937142885345    12.000000000000
         C            0.015691565221    -0.002340131288     2.608750357045    12.000000000000
         C           -0.072106688576    -1.204450567049     1.893867699371    12.000000000000
         C           -0.106001229682    -1.188734522289     0.503922071328    12.000000000000
         C           -0.033987150238     0.036012298979    -1.638067129871    12.000000000000
         H            0.065885412941     2.207724895198     0.028529819146     1.007825032070
         H            0.124157709916     2.154439893872     2.497676157161     1.007825032070
         H            0.028795629766    -0.021616613203     3.694547444690     1.007825032070
         H           -0.114565425190    -2.152438297213     2.421408031809     1.007825032070
         H           -0.154934456631    -2.120708877701    -0.054390159301     1.007825032070
         N           -0.657464970605    -0.950990023794    -2.354680715175    14.003074004780
         N            0.675779984386     0.933340940838    -2.301434187128    14.003074004780
         H            0.644367327695     0.978942768754    -3.316819616643     1.007825032070
         H            1.335548919185     1.537923349705    -1.820912858421     1.007825032070
         H           -0.125978043409    -1.634473478897    -2.887043590387     1.007825032070
         H           -1.655954677142    -1.181849763469    -2.168607691909     1.007825032070

  Nuclear repulsion =  415.556385174498757

  ==> Basis Set <==

  Basis Set: 6-31G*
    Blend: 6-31G*
    Number of shells: 72
    Number of basis function: 153
    Number of Cartesian functions: 153
    Spherical Harmonics?: false
    Max angular momentum: 2

  ==> DFJKGrad: Density-Fitted SCF Gradients <==

    Gradient:                    1
    J tasked:                  Yes
    K tasked:                  Yes
    wK tasked:                  No
    OpenMP threads:              4
    Integrals threads:           4
    Memory (MB):              2002
    Schwarz Cutoff:          0E+00
    Fitting Condition:       1E-12

   => Auxiliary Basis Set <=

  Basis Set: (6-31G* AUX)
    Blend: CC-PVDZ-JKFIT
    Number of shells: 297
    Number of basis function: 954
    Number of Cartesian functions: 954
    Spherical Harmonics?: false
    Max angular momentum: 3

  ==> DFT Potential <==

   => Composite Functional: B3LYP-D3ZERO <= 

    B3LYP-d3zero Hyb-GGA Exchange-Correlation Functional

    P. J. Stephens, F. J. Devlin, C. F. Chabalowski, and M. J. Frisch, J. Phys. Chem. 98, 11623 (1994)

    Deriv               =              1
    GGA                 =           TRUE
    Meta                =          FALSE

    Exchange Hybrid     =           TRUE
    MP2 Hybrid          =          FALSE

   => Exchange Functionals <=

    0.0800   Slater exchange
    0.7200         Becke 88

   => Exact (HF) Exchange <=

    0.2000               HF 

   => Correlation Functionals <=

    0.1900   Vosko, Wilk & Nusair (VWN5_RPA)
    0.8100   Lee, Yang & Parr

   => Molecular Quadrature <=

    Radial Scheme       =       TREUTLER
    Pruning Scheme      =           FLAT
    Nuclear Scheme      =       TREUTLER

    BS radius alpha     =              1
    Pruning alpha       =              1
    Radial Points       =             75
    Spherical Points    =            302
    Total Points        =         397054
    Total Blocks        =           2991
    Max Points          =            256
    Max Functions       =            149


  -Total Gradient:
     Atom            X                  Y                   Z
    ------   -----------------  -----------------  -----------------
       1        0.011130494682    -0.006915069912     0.003459622788
       2       -0.000304464604     0.001005002993    -0.000633733288
       3       -0.000850541457    -0.000144844294     0.001360063078
       4        0.000312503418     0.001567774377     0.000636712727
       5       -0.000268684798    -0.000555410088    -0.000668122946
       6        0.000882309682     0.001064794811    -0.001133891281
       7       -0.005982248943     0.010116456700    -0.005789563981
       8        0.000465202842     0.000249355344     0.000141562793
       9        0.000011852164     0.000684150579     0.000298487413
      10        0.000014601412     0.000130038280     0.000155626359
      11       -0.000161713253    -0.000543045782    -0.000162274173
      12        0.000573644429    -0.001915694910    -0.000690373989
      13        0.021446716903    -0.000018870845    -0.002267423742
      14       -0.004606326309     0.002635946910     0.004023632642
      15        0.001090485221     0.000163744837    -0.001503591425
      16        0.000528449395     0.000836459818     0.000916206279
      17        0.002393415307    -0.009202392520     0.007157615877
      18       -0.026680263553     0.000832431825    -0.005317441134


*** tstop() called on oliva.prib.upf.edu at Sat Sep 29 20:25:50 2018
Module time:
	user time   =      27.49 seconds =       0.46 minutes
	system time =       0.27 seconds =       0.00 minutes
	total time  =          8 seconds =       0.13 minutes
Total time:
	user time   =     256.50 seconds =       4.28 minutes
	system time =       2.21 seconds =       0.04 minutes
	total time  =         72 seconds =       1.20 minutes

			-----------------------------------------
			 OPTKING 2.0: for geometry optimizations 
			  - R.A. King,  Bethel University        
			-----------------------------------------
	At level 1: Red. Int., RFO, no backsteps, dynamic trust

	Previous internal coordinate definitions found.
	---Fragment 1 Geometry and Gradient---
	 C          -0.0465776031        0.0794117490       -0.3376472422
	 C           0.1169450966        2.3673270298        1.0351819753
	 C           0.1455452300        2.3155546205        3.6606695336
	 C           0.0296527609       -0.0044222072        4.9298237239
	 C          -0.1362618938       -2.2760817123        3.5788912837
	 C          -0.2003132938       -2.2463826918        0.9522747071
	 C          -0.0642264060        0.0680533825       -3.0954982627
	 H           0.1245053866        4.1719954287        0.0539135448
	 H           0.2346240690        4.0713013692        4.7199239057
	 H           0.0544158541       -0.0408494789        6.9816828554
	 H          -0.2164972779       -4.0675188997        4.5757980361
	 H          -0.2927836916       -4.0075589864       -0.1027825054
	 N          -1.2424287364       -1.7971107001       -4.4497016821
	 N           1.2770390966        1.7637587668       -4.3490803265
	 H           1.2176777783        1.8499337327       -6.2678807076
	 H           2.5238216943        2.9062539443       -3.4410266143
	 H          -0.2380640008       -3.0887072466       -5.4557217195
	 H          -3.1293008283       -2.2333723832       -4.0980746274
	             0.0111304947       -0.0069150699        0.0034596228
	            -0.0003044646        0.0010050030       -0.0006337333
	            -0.0008505415       -0.0001448443        0.0013600631
	             0.0003125034        0.0015677744        0.0006367127
	            -0.0002686848       -0.0005554101       -0.0006681229
	             0.0008823097        0.0010647948       -0.0011338913
	            -0.0059822489        0.0101164567       -0.0057895640
	             0.0004652028        0.0002493553        0.0001415628
	             0.0000118522        0.0006841506        0.0002984874
	             0.0000146014        0.0001300383        0.0001556264
	            -0.0001617133       -0.0005430458       -0.0001622742
	             0.0005736444       -0.0019156949       -0.0006903740
	             0.0214467169       -0.0000188708       -0.0022674237
	            -0.0046063263        0.0026359469        0.0040236326
	             0.0010904852        0.0001637448       -0.0015035914
	             0.0005284494        0.0008364598        0.0009162063
	             0.0023934153       -0.0092023925        0.0071576159
	            -0.0266802636        0.0008324318       -0.0053174411

	---Fragment 1 Intrafragment Coordinates---
	 - Coordinate -           - BOHR/RAD -       - ANG/DEG -
	 R(1,2)           =         2.673192	       1.414592
	 R(1,6)           =         2.663992	       1.409724
	 R(1,7)           =         2.757931	       1.459434
	 R(2,3)           =         2.626154	       1.389701
	 R(2,8)           =         2.054209	       1.087040
	 R(3,4)           =         2.646975	       1.400719
	 R(3,9)           =         2.052462	       1.086116
	 R(4,5)           =         2.648204	       1.401369
	 R(4,10)          =         2.052332	       1.086047
	 R(5,6)           =         2.627565	       1.390448
	 R(5,11)          =         2.051709	       1.085717
	 R(6,12)          =         2.055101	       1.087512
	 R(7,13)          =         2.588603	       1.369830
	 R(7,14)          =         2.499175	       1.322507
	 R(13,17)         =         1.920689	       1.016385
	 R(13,18)         =         1.968312	       1.041586
	 R(14,15)         =         1.921652	       1.016894
	 R(14,16)         =         1.919459	       1.015734
	 B(1,2,3)         =         2.091185	     119.816072
	 B(1,2,8)         =         2.102278	     120.451674
	 B(1,6,5)         =         2.085748	     119.504557
	 B(1,6,12)        =         2.096933	     120.145396
	 B(1,7,13)        =         2.128225	     121.938293
	 B(1,7,14)        =         2.089040	     119.693160
	 B(2,1,6)         =         2.096802	     120.137929
	 B(2,1,7)         =         2.114671	     121.161740
	 B(2,3,4)         =         2.089960	     119.745859
	 B(2,3,9)         =         2.093895	     119.971367
	 B(3,2,8)         =         2.088453	     119.659525
	 B(3,4,5)         =         2.105968	     120.663093
	 B(3,4,10)        =         2.087931	     119.629618
	 B(4,3,9)         =         2.099259	     120.278656
	 B(4,5,6)         =         2.096450	     120.117764
	 B(4,5,11)        =         2.098528	     120.236785
	 B(5,4,10)        =         2.089258	     119.705667
	 B(5,6,12)        =         2.099726	     120.305459
	 B(6,1,7)         =         2.071710	     118.700261
	 B(6,5,11)        =         2.088207	     119.645442
	 B(7,13,17)       =         2.118274	     121.368170
	 B(7,13,18)       =         2.097356	     120.169637
	 B(7,14,15)       =         2.111457	     120.977574
	 B(7,14,16)       =         2.111997	     121.008508
	 B(13,7,14)       =         2.060935	     118.082877
	 B(15,14,16)      =         2.055277	     117.758707
	 B(17,13,18)      =         2.032871	     116.474937
	 D(1,2,3,4)       =         0.007627	       0.436971
	 D(1,2,3,9)       =        -3.121118	    -178.826906
	 D(1,6,5,4)       =         0.021872	       1.253177
	 D(1,6,5,11)      =        -3.120302	    -178.780160
	*D(1,7,13,17)     =        -1.919863	    -110.000020
	 D(1,7,13,18)     =         0.931972	      53.398070
	 D(1,7,14,15)     =        -3.083685	    -176.682149
	 D(1,7,14,16)     =         0.161468	       9.251454
	 D(2,1,6,5)       =        -0.023504	      -1.346660
	 D(2,1,6,12)      =        -3.122844	    -178.925753
	 D(2,1,7,13)      =        -2.647871	    -151.711844
	 D(2,1,7,14)      =         0.602947	      34.546309
	 D(2,3,4,5)       =        -0.009331	      -0.534654
	 D(2,3,4,10)      =         3.140371	     179.929984
	 D(3,2,1,6)       =         0.008731	       0.500252
	 D(3,2,1,7)       =        -3.134568	    -179.597543
	 D(3,4,5,6)       =        -0.005603	      -0.321036
	 D(3,4,5,11)      =         3.136575	     179.712499
	 D(4,3,2,8)       =         3.095346	     177.350245
	 D(4,5,6,12)      =         3.121143	     178.828324
	 D(5,4,3,9)       =         3.119373	     178.726929
	 D(5,6,1,7)       =         3.119754	     178.748746
	 D(6,1,2,8)       =        -3.078555	    -176.388203
	 D(6,1,7,13)      =         0.492039	      28.191735
	 D(6,1,7,14)      =        -2.540329	    -145.550112
	 D(6,5,4,10)      =         3.127874	     179.213974
	 D(7,1,2,8)       =         0.061331	       3.514001
	 D(7,1,6,12)      =         0.020414	       1.169653
	 D(8,2,3,9)       =        -0.033399	      -1.913632
	 D(9,3,4,10)      =        -0.014110	      -0.808434
	 D(10,4,5,11)     =        -0.013133	      -0.752490
	 D(11,5,6,12)     =        -0.021031	      -1.205013
	 D(13,7,14,15)    =         0.162951	       9.336422
	 D(13,7,14,16)    =        -2.875080	    -164.729975
	 D(14,7,13,17)    =         1.114192	      63.838507
	 D(14,7,13,18)    =        -2.317159	    -132.763403

	Current energy   :      -381.4483095412

	Energy change for the previous step:
		Projected    :        -0.0163246857
		Actual       :        -0.0092787428

	Performing BFGS update.
	Previous computed or guess Hessian on step 1.
	Steps to be used in Hessian update: 1
	Taking RFO optimization step.
	Going to follow RFO solution 1.
	Using RFO vector 1.

	Determining step-restricting scale parameter for RS-RFO.
	Maximum step size allowed    0.50000

	 Iter      |step|        alpha        rfo_root  
	------------------------------------------------
	    0     0.60539       1.00000           1
	    1     0.52225       1.54851           1
	    2     0.50137       1.73295           1
	    3     0.50001       1.74585           1
	------------------------------------------------
	Norm of target step-size    0.50001
	Projected energy change by RFO approximation:        -0.0043984745

	Back-transformation to cartesian coordinates...
	Could not converge backtransformation.
	Using first guess instead.

	Back-transformation to cartesian coordinates to adjust frozen coordinates...
	Successfully converged to displaced geometry.

	--- Internal Coordinate Step in ANG or DEG, aJ/ANG or AJ/DEG ---
	 ---------------------------------------------------------------------------
	   Coordinate                Previous        Force       Change         New 
	   ----------                --------       ------       ------       ------
	    1 R(1,2)          =      1.414592    -0.014541     0.000099     1.414691
	    2 R(1,6)          =      1.409724     0.005308     0.002088     1.411812
	    3 R(1,7)          =      1.459434    -0.023294    -0.006342     1.453092
	    4 R(2,3)          =      1.389701    -0.009838    -0.001731     1.387969
	    5 R(2,8)          =      1.087040    -0.001261     0.000186     1.087226
	    6 R(3,4)          =      1.400719     0.000912     0.001172     1.401891
	    7 R(3,9)          =      1.086116    -0.006102    -0.000310     1.085806
	    8 R(4,5)          =      1.401369    -0.018228    -0.001050     1.400319
	    9 R(4,10)         =      1.086047    -0.001272    -0.000034     1.086013
	   10 R(5,6)          =      1.390448    -0.003307    -0.000491     1.389956
	   11 R(5,11)         =      1.085717    -0.003310    -0.000129     1.085589
	   12 R(6,12)         =      1.087512    -0.016226    -0.001780     1.085733
	   13 R(7,13)         =      1.369830    -0.062265     0.004619     1.374449
	   14 R(7,14)         =      1.322507     0.007083    -0.000927     1.321580
	   15 R(13,17)        =      1.016385    -0.030400    -0.001850     1.014535
	   16 R(13,18)        =      1.041586    -0.201370     0.024740     1.066326
	   17 R(14,15)        =      1.016894    -0.012145    -0.000373     1.016522
	   18 R(14,16)        =      1.015734    -0.010508    -0.000202     1.015532
	   19 B(1,2,3)        =    119.816072     0.000001     0.039308   119.855379
	   20 B(1,2,8)        =    120.451674    -0.000021    -0.089756   120.361918
	   21 B(1,6,5)        =    119.504557     0.000054     0.131950   119.636507
	   22 B(1,6,12)       =    120.145396    -0.000056    -0.294154   119.851242
	   23 B(1,7,13)       =    121.938293     0.000196     1.087656   123.025948
	   24 B(1,7,14)       =    119.693160     0.000361     1.134722   120.827882
	   25 B(2,1,6)        =    120.137929    -0.000055    -0.156083   119.981846
	   26 B(2,1,7)        =    121.161740    -0.000030     0.169531   121.331271
	   27 B(2,3,4)        =    119.745859     0.000043     0.034894   119.780753
	   28 B(2,3,9)        =    119.971367    -0.000014     0.031123   120.002489
	   29 B(3,2,8)        =    119.659525     0.000021     0.068584   119.728109
	   30 B(3,4,5)        =    120.663093    -0.000005     0.050524   120.713617
	   31 B(3,4,10)       =    119.629618     0.000013     0.001407   119.631026
	   32 B(4,3,9)        =    120.278656    -0.000029    -0.069287   120.209368
	   33 B(4,5,6)        =    120.117764    -0.000038    -0.114150   120.003614
	   34 B(4,5,11)       =    120.236785    -0.000013    -0.057520   120.179265
	   35 B(5,4,10)       =    119.705667    -0.000008    -0.052724   119.652943
	   36 B(5,6,12)       =    120.305459     0.000002     0.165424   120.470883
	   37 B(6,1,7)        =    118.700261     0.000085    -0.014634   118.685627
	   38 B(6,5,11)       =    119.645442     0.000051     0.171679   119.817121
	   39 B(7,13,17)      =    121.368170     0.000069    -0.378372   120.989797
	   40 B(7,13,18)      =    120.169637    -0.000306    -4.529688   115.639948
	   41 B(7,14,15)      =    120.977574    -0.000093    -0.870547   120.107027
	   42 B(7,14,16)      =    121.008508     0.000070     0.621296   121.629805
	   43 B(13,7,14)      =    118.082877    -0.000561    -2.322597   115.760281
	   44 B(15,14,16)     =    117.758707     0.000025     0.297352   118.056058
	   45 B(17,13,18)     =    116.474937     0.000049    -1.978118   114.496820
	   46 D(1,2,3,4)      =      0.436971    -0.000005    -0.606118    -0.169147
	   47 D(1,2,3,9)      =   -178.826906    -0.000003    -0.355586  -179.182492
	   48 D(1,6,5,4)      =      1.253177     0.000001     0.197733     1.450910
	   49 D(1,6,5,11)     =   -178.780160     0.000002     0.228503  -178.551658
	   50 *D(1,7,13,17)   =   -110.000020     0.000000    -0.000000  -110.000020
	   51 D(1,7,13,18)    =     53.398070    -0.000175   -17.830128    35.567942
	   52 D(1,7,14,15)    =   -176.682149     0.000009     0.728007  -175.954141
	   53 D(1,7,14,16)    =      9.251454     0.000003     0.126116     9.377570
	   54 D(2,1,6,5)      =     -1.346660    -0.000006    -0.732009    -2.078668
	   55 D(2,1,6,12)     =   -178.925753    -0.000007    -0.824976  -179.750728
	   56 D(2,1,7,13)     =   -151.711844    -0.000030    -3.876750  -155.588594
	   57 D(2,1,7,14)     =     34.546309    -0.000015    -2.698324    31.847985
	   58 D(2,3,4,5)      =     -0.534654     0.000001     0.070360    -0.464293
	   59 D(2,3,4,10)     =    179.929984     0.000001     0.172975   180.102959
	   60 D(3,2,1,6)      =      0.500252     0.000008     0.937329     1.437582
	   61 D(3,2,1,7)      =   -179.597543     0.000012     1.448395  -178.149147
	   62 D(3,4,5,6)      =     -0.321036     0.000001     0.136590    -0.184446
	   63 D(3,4,5,11)     =    179.712499     0.000001     0.105631   179.818130
	   64 D(4,3,2,8)      =    177.350245    -0.000002    -0.196440   177.153805
	   65 D(4,5,6,12)     =    178.828324     0.000002     0.279962   179.108286
	   66 D(5,4,3,9)      =    178.726929    -0.000001    -0.179945   178.546983
	   67 D(5,6,1,7)      =    178.748746    -0.000010    -1.229807   177.518939
	   68 D(6,1,2,8)      =   -176.388203     0.000004     0.520029  -175.868174
	   69 D(6,1,7,13)     =     28.191735    -0.000026    -3.372279    24.819456
	   70 D(6,1,7,14)     =   -145.550112    -0.000011    -2.193853  -147.743965
	   71 D(6,5,4,10)     =    179.213974     0.000001     0.034204   179.248178
	   72 D(7,1,2,8)      =      3.514001     0.000008     1.031095     4.545097
	   73 D(7,1,6,12)     =      1.169653    -0.000010    -1.322774    -0.153121
	   74 D(8,2,3,9)      =     -1.913632     0.000000     0.054093    -1.859539
	   75 D(9,3,4,10)     =     -0.808434    -0.000001    -0.077331    -0.885764
	   76 D(10,4,5,11)    =     -0.752490    -0.000000     0.003245    -0.749245
	   77 D(11,5,6,12)    =     -1.205013     0.000002     0.310731    -0.894282
	   78 D(13,7,14,15)   =      9.336422     0.000013     1.629842    10.966264
	   79 D(13,7,14,16)   =   -164.729975     0.000007     1.027951  -163.702025
	   80 D(14,7,13,17)   =     63.838507    -0.000002    -0.927231    62.911276
	   81 D(14,7,13,18)   =   -132.763403    -0.000177   -18.757358  -151.520762
	 ---------------------------------------------------------------------------
	Successfully symmetrized geometry.

  ==> Convergence Check <==

  Measures of convergence in internal coordinates in au.
  Criteria marked as inactive (o), active & met (*), and active & unmet ( ).
  ---------------------------------------------------------------------------------------------
   Step     Total Energy     Delta E     MAX Force     RMS Force      MAX Disp      RMS Disp   
  ---------------------------------------------------------------------------------------------
    Convergence Criteria    1.00e-06 *    3.00e-04 *             o    1.20e-03 *             o
  ---------------------------------------------------------------------------------------------
      2    -381.44830954   -9.28e-03      2.44e-02      3.54e-03 o    3.27e-01      5.36e-02 o  ~
  ---------------------------------------------------------------------------------------------

	Writing optimization data to binary file.
	Structure for next step:
	Cartesian Geometry (in Angstrom)
	    C    -0.0460524823   0.0575587181  -0.1848894902
	    C     0.0759603473   1.2597776529   0.5507288410
	    C     0.1082893534   1.2208474773   1.9377754500
	    C     0.0161986160  -0.0101897332   2.6021282030
	    C    -0.1180607141  -1.2034256015   1.8816726228
	    C    -0.1651463947  -1.1752291488   0.4928002172
	    C    -0.0431950191   0.0572663421  -1.6379784033
	    H     0.1006591404   2.2179514843   0.0375485314
	    H     0.1885024605   2.1431738434   2.5050978361
	    H     0.0400576724  -0.0376754933   3.6875312964
	    H    -0.1856717530  -2.1521872075   2.4049153868
	    H    -0.2545920432  -2.0970108629  -0.0738863870
	    N    -0.6226972149  -0.9380850992  -2.3880194896
	    N     0.6523181917   0.9549081236  -2.3140503871
	    H     0.5980942600   0.9834275852  -3.3287239596
	    H     1.3100425559   1.5764692818  -1.8532182896
	    H    -0.0549142854  -1.5884473994  -2.9208734564
	    H    -1.5163026909  -1.3582509630  -1.9855505219
			--------------------------
			 OPTKING Finished Execution 
			--------------------------

    Structure for next step:
    Molecular point group: c1
    Full point group: C1

    Geometry (in Angstrom), charge = 1, multiplicity = 1:

    C           -0.046052482336     0.057558718099    -0.184889490171
    C            0.075960347312     1.259777652882     0.550728840965
    C            0.108289353400     1.220847477331     1.937775449958
    C            0.016198616004    -0.010189733205     2.602128202952
    C           -0.118060714083    -1.203425601500     1.881672622770
    C           -0.165146394666    -1.175229148804     0.492800217191
    C           -0.043195019101     0.057266342105    -1.637978403277
    H            0.100659140432     2.217951484287     0.037548531382
    H            0.188502460509     2.143173843362     2.505097836123
    H            0.040057672413    -0.037675493277     3.687531296373
    H           -0.185671752998    -2.152187207525     2.404915386806
    H           -0.254592043181    -2.097010862858    -0.073886386956
    N           -0.622697214917    -0.938085099172    -2.388019489587
    N            0.652318191732     0.954908123636    -2.314050387066
    H            0.598094259965     0.983427585171    -3.328723959602
    H            1.310042555850     1.576469281846    -1.853218289605
    H           -0.054914285412    -1.588447399374    -2.920873456375
    H           -1.516302690924    -1.358250963004    -1.985550521882

gradient() will perform analytic gradient computation.

*** tstart() called on oliva.prib.upf.edu
*** at Sat Sep 29 20:25:50 2018

   => Loading Basis Set <=

    Name: 6-31G*
    Role: ORBITAL
    Keyword: BASIS
[...]
	            -0.0000003027        0.0000082583       -0.0000057075
	             0.0000320581        0.0000184369        0.0000331193
	             0.0002785263        0.0079386171       -0.0144101427
	            -0.0000129735        0.0000099197       -0.0000531452
	             0.0000083502       -0.0000101442        0.0000370078
	            -0.0000236915       -0.0000334514       -0.0000307726
	             0.0031453112       -0.0081899528        0.0096930196
	             0.0000247053        0.0000312155       -0.0000983521

	---Fragment 1 Intrafragment Coordinates---
	 - Coordinate -           - BOHR/RAD -       - ANG/DEG -
	 R(1,2)           =         2.668358	       1.412034
	 R(1,6)           =         2.665731	       1.410644
	 R(1,7)           =         2.750604	       1.455557
	 R(2,3)           =         2.624196	       1.388665
	 R(2,8)           =         2.053437	       1.086632
	 R(3,4)           =         2.645818	       1.400107
	 R(3,9)           =         2.050401	       1.085026
	 R(4,5)           =         2.643493	       1.398876
	 R(4,10)          =         2.051740	       1.085734
	 R(5,6)           =         2.626437	       1.389851
	 R(5,11)          =         2.050440	       1.085046
	 R(6,12)          =         2.051599	       1.085659
	 R(7,13)          =         2.578146	       1.364296
	 R(7,14)          =         2.504049	       1.325086
	 R(13,17)         =         1.922176	       1.017172
	 R(13,18)         =         1.919346	       1.015674
	 R(14,15)         =         1.917610	       1.014755
	 R(14,16)         =         1.913692	       1.012682
	 B(1,2,3)         =         2.092850	     119.911467
	 B(1,2,8)         =         2.100530	     120.351524
	 B(1,6,5)         =         2.090907	     119.800123
	 B(1,6,12)        =         2.103496	     120.521450
	 B(1,7,13)        =         2.149567	     123.161117
	 B(1,7,14)        =         2.104794	     120.595813
	 B(2,1,6)         =         2.091105	     119.811509
	 B(2,1,7)         =         2.104140	     120.558355
	 B(2,3,4)         =         2.092468	     119.889598
	 B(2,3,9)         =         2.093030	     119.921789
	 B(3,2,8)         =         2.088523	     119.663528
	 B(3,4,5)         =         2.104343	     120.569999
	 B(3,4,10)        =         2.089378	     119.712535
	 B(4,3,9)         =         2.097558	     120.181213
	 B(4,5,6)         =         2.094465	     120.004012
	 B(4,5,11)        =         2.097786	     120.194257
	 B(5,4,10)        =         2.089448	     119.716556
	 B(5,6,12)        =         2.087548	     119.607695
	 B(6,1,7)         =         2.087821	     119.623335
	 B(6,5,11)        =         2.090917	     119.800711
	 B(7,13,17)       =         2.048901	     117.393384
	 B(7,13,18)       =         1.986169	     113.799076
	 B(7,14,15)       =         2.104467	     120.577073
	 B(7,14,16)       =         2.120270	     121.482532
	 B(13,7,14)       =         2.024902	     116.018340
	 B(15,14,16)      =         2.058375	     117.936219
	 B(17,13,18)      =         1.917575	     109.868977
	 D(1,2,3,4)       =        -0.003070	      -0.175909
	 D(1,2,3,9)       =        -3.127424	    -179.188220
	 D(1,6,5,4)       =         0.016168	       0.926363
	 D(1,6,5,11)      =        -3.119027	    -178.707086
	*D(1,7,13,17)     =        -1.919863	    -110.000020
	 D(1,7,13,18)     =         0.354465	      20.309347
	 D(1,7,14,15)     =        -3.025733	    -173.361752
	 D(1,7,14,16)     =         0.129105	       7.397157
	 D(2,1,6,5)       =        -0.024804	      -1.421138
	 D(2,1,6,12)      =        -3.112812	    -178.350971
	 D(2,1,7,13)      =        -2.664018	    -152.637007
	 D(2,1,7,14)      =         0.576476	      33.029655
	 D(2,3,4,5)       =        -0.005675	      -0.325156
	 D(2,3,4,10)      =        -3.141195	    -179.977241
	 D(3,2,1,6)       =         0.018247	       1.045492
	 D(3,2,1,7)       =        -3.106725	    -178.002249
	 D(3,4,5,6)       =        -0.000939	      -0.053794
	 D(3,4,5,11)      =         3.134231	     179.578198
	 D(4,3,2,8)       =         3.084316	     176.718310
	 D(4,5,6,12)      =         3.104669	     177.884435
	 D(5,4,3,9)       =         3.118634	     178.684565
	 D(5,6,1,7)       =         3.100326	     177.635567
	 D(6,1,2,8)       =        -3.068762	    -175.827092
	 D(6,1,7,13)      =         0.494163	      28.313468
	 D(6,1,7,14)      =        -2.548528	    -146.019870
	 D(6,5,4,10)      =         3.134581	     179.598276
	 D(7,1,2,8)       =         0.089451	       5.125166
	 D(7,1,6,12)      =         0.012317	       0.705734
	 D(8,2,3,9)       =        -0.040038	      -2.294001
	 D(9,3,4,10)      =        -0.016886	      -0.967520
	 D(10,4,5,11)     =        -0.013434	      -0.769732
	 D(11,5,6,12)     =        -0.030526	      -1.749013
	 D(13,7,14,15)    =         0.207971	      11.915853
	 D(13,7,14,16)    =        -2.920376	    -167.325238
	 D(14,7,13,17)    =         1.127009	      64.572876
	 D(14,7,13,18)    =        -2.881849	    -165.117756

	Current energy   :      -381.4568224315

	Energy change for the previous step:
		Projected    :        -0.0000015493
		Actual       :        -0.0000008785

	Performing BFGS update.
	Previous computed or guess Hessian on step 1.
	Steps to be used in Hessian update: 8 7
	Taking RFO optimization step.
	Going to follow RFO solution 1.
	Rejecting RFO root 1 because normalization gives large value.
	Rejecting RFO root 2 because normalization gives large value.
	Using RFO vector 3.
	Norm of target step-size    0.00245
	Projected energy change by RFO approximation:        -0.0000002085

	Back-transformation to cartesian coordinates...
	Could not converge backtransformation.
	Using first guess instead.

	Back-transformation to cartesian coordinates to adjust frozen coordinates...
	Successfully converged to displaced geometry.

	--- Internal Coordinate Step in ANG or DEG, aJ/ANG or AJ/DEG ---
	 ---------------------------------------------------------------------------
	   Coordinate                Previous        Force       Change         New 
	   ----------                --------       ------       ------       ------
	    1 R(1,2)          =      1.412034     0.000125     0.000045     1.412080
	    2 R(1,6)          =      1.410644    -0.000277    -0.000057     1.410587
	    3 R(1,7)          =      1.455557     0.000027     0.000163     1.455720
	    4 R(2,3)          =      1.388665     0.000437     0.000090     1.388755
	    5 R(2,8)          =      1.086632     0.000133     0.000023     1.086655
	    6 R(3,4)          =      1.400107     0.000179     0.000008     1.400115
	    7 R(3,9)          =      1.085026     0.000214     0.000066     1.085092
	    8 R(4,5)          =      1.398876     0.000651     0.000115     1.398991
	    9 R(4,10)         =      1.085734     0.000165     0.000042     1.085776
	   10 R(5,6)          =      1.389851     0.000377     0.000090     1.389940
	   11 R(5,11)         =      1.085046     0.000080     0.000021     1.085067
	   12 R(6,12)         =      1.085659     0.000319     0.000064     1.085723
	   13 R(7,13)         =      1.364296    -0.000427    -0.000137     1.364159
	   14 R(7,14)         =      1.325086     0.000036    -0.000027     1.325059
	   15 R(13,17)        =      1.017172     0.000117     0.000010     1.017181
	   16 R(13,18)        =      1.015674     0.000784     0.000407     1.016082
	   17 R(14,15)        =      1.014755     0.000323     0.000060     1.014815
	   18 R(14,16)        =      1.012682     0.000377     0.000088     1.012770
	   19 B(1,2,3)        =    119.911467    -0.000002    -0.004908   119.906558
	   20 B(1,2,8)        =    120.351524    -0.000001     0.000716   120.352240
	   21 B(1,6,5)        =    119.800123    -0.000002    -0.008354   119.791770
	   22 B(1,6,12)       =    120.521450    -0.000001    -0.002215   120.519236
	   23 B(1,7,13)       =    123.161117    -0.000005    -0.012748   123.148369
	   24 B(1,7,14)       =    120.595813    -0.000005    -0.015276   120.580537
	   25 B(2,1,6)        =    119.811509     0.000004     0.011673   119.823182
	   26 B(2,1,7)        =    120.558355     0.000000     0.003277   120.561632
	   27 B(2,3,4)        =    119.889598    -0.000000    -0.000372   119.889226
	   28 B(2,3,9)        =    119.921789     0.000000    -0.002177   119.919612
	   29 B(3,2,8)        =    119.663528     0.000002     0.004333   119.667862
	   30 B(3,4,5)        =    120.569999    -0.000001    -0.001072   120.568927
	   31 B(3,4,10)       =    119.712535     0.000000     0.000893   119.713429
	   32 B(4,3,9)        =    120.181213     0.000000     0.002749   120.183962
	   33 B(4,5,6)        =    120.004012     0.000000     0.003021   120.007034
	   34 B(4,5,11)       =    120.194257    -0.000000     0.001402   120.195659
	   35 B(5,4,10)       =    119.716556     0.000000     0.000153   119.716710
	   36 B(5,6,12)       =    119.607695     0.000003     0.011673   119.619368
	   37 B(6,1,7)        =    119.623335    -0.000004    -0.014894   119.608441
	   38 B(6,5,11)       =    119.800711    -0.000000    -0.004430   119.796282
	   39 B(7,13,17)      =    117.393384     0.000000     0.034020   117.427404
	   40 B(7,13,18)      =    113.799076    -0.000005    -0.049159   113.749917
	   41 B(7,14,15)      =    120.577073     0.000002     0.011994   120.589067
	   42 B(7,14,16)      =    121.482532    -0.000002    -0.013794   121.468738
	   43 B(13,7,14)      =    116.018340     0.000010     0.028401   116.046742
	   44 B(15,14,16)     =    117.936219     0.000000     0.002495   117.938714
	   45 B(17,13,18)     =    109.868977     0.000002     0.010443   109.879420
	   46 D(1,2,3,4)      =     -0.175909     0.000000     0.010287    -0.165622
	   47 D(1,2,3,9)      =   -179.188220    -0.000000    -0.003196  -179.191416
	   48 D(1,6,5,4)      =      0.926363     0.000000    -0.002088     0.924275
	   49 D(1,6,5,11)     =   -178.707086    -0.000000    -0.000961  -178.708047
	   50 *D(1,7,13,17)   =   -110.000020    -0.000000    -0.000000  -110.000020
	   51 D(1,7,13,18)    =     20.309347    -0.000000    -0.001330    20.308018
	   52 D(1,7,14,15)    =   -173.361752    -0.000000     0.010221  -173.351531
	   53 D(1,7,14,16)    =      7.397157    -0.000000    -0.055911     7.341246
	   54 D(2,1,6,5)      =     -1.421138     0.000000     0.000276    -1.420862
	   55 D(2,1,6,12)     =   -178.350971    -0.000000    -0.024126  -178.375097
	   56 D(2,1,7,13)     =   -152.637007    -0.000000     0.019655  -152.617352
	   57 D(2,1,7,14)     =     33.029655    -0.000000     0.013347    33.043002
	   58 D(2,3,4,5)      =     -0.325156    -0.000000    -0.012001    -0.337156
	   59 D(2,3,4,10)     =   -179.977241    -0.000000    -0.007216  -179.984456
	   60 D(3,2,1,6)      =      1.045492    -0.000000    -0.004334     1.041158
	   61 D(3,2,1,7)      =   -178.002249    -0.000000    -0.008131  -178.010380
	   62 D(3,4,5,6)      =     -0.053794    -0.000000     0.007860    -0.045935
	   63 D(3,4,5,11)     =    179.578198     0.000000     0.006707   179.584905
	   64 D(4,3,2,8)      =    176.718310     0.000000     0.013287   176.731598
	   65 D(4,5,6,12)     =    177.884435     0.000000     0.021670   177.906106
	   66 D(5,4,3,9)      =    178.684565     0.000000     0.001468   178.686033
	   67 D(5,6,1,7)      =    177.635567     0.000000     0.004208   177.639775
	   68 D(6,1,2,8)      =   -175.827092    -0.000000    -0.007467  -175.834559
	   69 D(6,1,7,13)     =     28.313468    -0.000000     0.015615    28.329083
	   70 D(6,1,7,14)     =   -146.019870    -0.000000     0.009307  -146.010563
	   71 D(6,5,4,10)     =    179.598276     0.000000     0.003077   179.601353
	   72 D(7,1,2,8)      =      5.125166    -0.000000    -0.011264     5.113902
	   73 D(7,1,6,12)     =      0.705734    -0.000000    -0.020194     0.685540
	   74 D(8,2,3,9)      =     -2.294001    -0.000000    -0.000195    -2.294196
	   75 D(9,3,4,10)     =     -0.967520     0.000000     0.006253    -0.961267
	   76 D(10,4,5,11)    =     -0.769732     0.000000     0.001924    -0.767807
	   77 D(11,5,6,12)    =     -1.749013     0.000000     0.022797    -1.726216
	   78 D(13,7,14,15)   =     11.915853    -0.000000     0.006397    11.922250
	   79 D(13,7,14,16)   =   -167.325238    -0.000000    -0.059734  -167.384972
	   80 D(14,7,13,17)   =     64.572876     0.000000     0.003866    64.576742
	   81 D(14,7,13,18)   =   -165.117756    -0.000000     0.002537  -165.115220
	 ---------------------------------------------------------------------------
	Successfully symmetrized geometry.

  ==> Convergence Check <==

  Measures of convergence in internal coordinates in au.
  Criteria marked as inactive (o), active & met (*), and active & unmet ( ).
  ---------------------------------------------------------------------------------------------
   Step     Total Energy     Delta E     MAX Force     RMS Force      MAX Disp      RMS Disp   
  ---------------------------------------------------------------------------------------------
    Convergence Criteria    1.00e-06 *    3.00e-04 *             o    1.20e-03 *             o
  ---------------------------------------------------------------------------------------------
      9    -381.45682243   -8.78e-07 *    1.29e-04 *    3.06e-05 o    1.04e-03 *    2.72e-04 o  ~
  ---------------------------------------------------------------------------------------------


  **** Optimization is complete! (in 9 steps) ****

  ==> Optimization Summary <==

  Measures of convergence in internal coordinates in au.
  --------------------------------------------------------------------------------------------------------------- ~
   Step         Total Energy             Delta E       MAX Force       RMS Force        MAX Disp        RMS Disp  ~
  --------------------------------------------------------------------------------------------------------------- ~
      1    -381.439030798408   -381.439030798408      0.03935611      0.00552854      0.31887977      0.05398806  ~
      2    -381.448309541230     -0.009278742822      0.02444190      0.00354047      0.32737766      0.05364049  ~
      3    -381.452704230485     -0.004394689255      0.03935325      0.00476292      0.25084897      0.05191782  ~
      4    -381.436006873113      0.016697357372      0.04488189      0.01411271      0.09289155      0.03294380  ~
      5    -381.456241649137     -0.020234776024      0.01343287      0.00204600      0.05569555      0.01488289  ~
      6    -381.456673749048     -0.000432099911      0.00760809      0.00102373      0.04368239      0.00792517  ~
      7    -381.456812597156     -0.000138848108      0.00178313      0.00025308      0.00735589      0.00201397  ~
      8    -381.456821553029     -0.000008955873      0.00040166      0.00007143      0.00465160      0.00101555  ~
      9    -381.456822431490     -0.000000878461      0.00012946      0.00003059      0.00104256      0.00027240  ~
  --------------------------------------------------------------------------------------------------------------- ~

	Writing optimization data to binary file.
	Final energy is   -381.4568224314898
	Final (previous) structure:
	Cartesian Geometry (in Angstrom)
	    C    -0.1023540899   0.0430812165  -0.1677530733
	    C     0.2100716282   1.2457709135   0.5028951012
	    C     0.6534559875   1.2100492152   1.8183888827
	    C     0.7858218526  -0.0183995534   2.4769414615
	    C     0.4685162052  -1.2138220513   1.8233845950
	    C     0.0163807344  -1.1887142286   0.5093725670
	    C    -0.5267709622   0.0608128360  -1.5599465074
	    H     0.0575085240   2.2034413181   0.0126282473
	    H     0.8809784399   2.1349067398   2.3381512170
	    H     1.1323782905  -0.0429564982   3.5055879664
	    H     0.5798699255  -2.1629310716   2.3373081509
	    H    -0.1951395870  -2.1221864469  -0.0030191372
	    N    -1.3305246492  -0.8960832560  -2.1073343370
	    N    -0.0499883398   0.9689677109  -2.3988657045
	    H    -0.4188467038   1.0453961125  -3.3411132629
	    H     0.6963009980   1.5980739127  -2.1290463659
	    H    -0.9098880322  -1.5309144066  -2.7816430413
	    H    -1.8642802216  -1.4236134625  -1.4229287596
	Saving final (previous) structure.
	Removing binary optimization data file.
			--------------------------
			 OPTKING Finished Execution 
			--------------------------

    Final optimized geometry and variables:
    Molecular point group: c1
    Full point group: C1

    Geometry (in Angstrom), charge = 1, multiplicity = 1:

    C           -0.102354089870     0.043081216529    -0.167753073266
    C            0.210071628215     1.245770913475     0.502895101224
    C            0.653455987457     1.210049215207     1.818388882696
    C            0.785821852597    -0.018399553365     2.476941461472
    C            0.468516205159    -1.213822051273     1.823384595030
    C            0.016380734442    -1.188714228584     0.509372567050
    C           -0.526770962176     0.060812835972    -1.559946507370
    H            0.057508523999     2.203441318057     0.012628247290
    H            0.880978439935     2.134906739758     2.338151216962
    H            1.132378290455    -0.042956498202     3.505587966426
    H            0.579869925541    -2.162931071636     2.337308150865
    H           -0.195139587001    -2.122186446891    -0.003019137187
    N           -1.330524649207    -0.896083256026    -2.107334336973
    N           -0.049988339839     0.968967710886    -2.398865704474
    H           -0.418846703824     1.045396112506    -3.341113262861
    H            0.696300997960     1.598073912668    -2.129046365947
    H           -0.909888032229    -1.530914406556    -2.781643041298
    H           -1.864280221609    -1.423613462529    -1.422928759642

	Removing binary optimization data file.
	Cleaning optimization helper files.


Properties will be evaluated at   0.000000,   0.000000,   0.000000 [a0]
OEProp: No title given, name of density matrix used for the following properties is 'SCF density'
  Nuclear Dipole Moment: [e a0]
     X:    -1.2736      Y:     1.9692      Z:    -1.1485

  Electronic Dipole Moment: [e a0]
     X:     1.1862      Y:    -2.0079      Z:    -0.5714

  Dipole Moment: [e a0]
     X:    -0.0874      Y:    -0.0387      Z:    -1.7199     Total:     1.7226

  Dipole Moment: [D]
     X:    -0.2221      Y:    -0.0982      Z:    -4.3716     Total:     4.3783

  Quadrupole Moment: [D A]
    XX:   -49.8078     YY:   -35.2798     ZZ:   -19.5943
    XY:     5.2172     XZ:     5.7723     YZ:    -1.2313

  Traceless Quadrupole Moment: [D A]
    XX:   -14.9138     YY:    -0.3858     ZZ:    15.2997
    XY:     5.2172     XZ:     5.7723     YZ:    -1.2313

  Mulliken Charges: (a.u.)
   Center  Symbol    Alpha    Beta     Spin     Total
       1     C     2.94295  2.94295  0.00000  0.11410
       2     C     3.08259  3.08259  0.00000 -0.16518
       3     C     3.06191  3.06191  0.00000 -0.12382
       4     C     3.04980  3.04980  0.00000 -0.09960
       5     C     3.06198  3.06198  0.00000 -0.12397
       6     C     3.07907  3.07907  0.00000 -0.15815
       7     C     2.76099  2.76099  0.00000  0.47801
       8     H     0.41243  0.41243  0.00000  0.17514
       9     H     0.40333  0.40333  0.00000  0.19333
      10     H     0.40130  0.40130  0.00000  0.19740
      11     H     0.40352  0.40352  0.00000  0.19295
      12     H     0.41789  0.41789  0.00000  0.16422
      13     N     3.86483  3.86483  0.00000 -0.72967
      14     N     3.84288  3.84288  0.00000 -0.68577
      15     H     0.29918  0.29918  0.00000  0.40165
      16     H     0.30074  0.30074  0.00000  0.39851
      17     H     0.30423  0.30423  0.00000  0.39154
      18     H     0.31035  0.31035  0.00000  0.37930

   Total alpha = 32.00000, Total beta = 32.00000, Total charge =  1.00000


    Psi4 stopped on: Saturday, 29 September 2018 08:29PM
    Psi4 wall time for execution: 0:04:45.31

*** Psi4 exiting successfully. Buy a developer a beer!
