
    -----------------------------------------------------------------------
          Psi4: An Open-Source Ab Initio Electronic Structure Package
                               Psi4 1.2.1 release

                         Git: Rev {HEAD} 406f4de 


    R. M. Parrish, L. A. Burns, D. G. A. Smith, A. C. Simmonett,
    A. E. DePrince III, E. G. Hohenstein, U. Bozkaya, A. Yu. Sokolov,
    R. Di Remigio, R. M. Richard, J. F. Gonthier, A. M. James,
    H. R. McAlexander, A. Kumar, M. Saitow, X. Wang, B. P. Pritchard,
    P. Verma, H. F. Schaefer III, K. Patkowski, R. A. King, E. F. Valeev,
    F. A. Evangelista, J. M. Turney, T. D. Crawford, and C. D. Sherrill,
    J. Chem. Theory Comput. 13(7) pp 3185--3197 (2017).
    (doi: 10.1021/acs.jctc.7b00174)


                         Additional Contributions by
    P. Kraus, H. Kruse, M. H. Lechner, M. C. Schieber, and R. A. Shaw

    -----------------------------------------------------------------------


    Psi4 started on: Saturday, 29 September 2018 05:10PM

    Process ID: 13715
    Host:       loro.prib.upf.edu
    PSIDATADIR: /shared/joao/test_parameterize/miniconda3/share/psi4
    Memory:     500.0 MiB
    Threads:    1
    
  ==> Input File <==

--------------------------------------------------------------------------
set_num_threads(1)
set_memory('5348 MB')

set { scf_mem_safety_factor 0.7 }

set { reference rks }
set { basis cc-pVDZ }

molecule MOL {
    0 1
    noreorient
    nocom
    symmetry c1
    O    1.050400   0.042900  -0.048100
    C    2.474100   0.047400  -0.029000
    C    3.002600  -1.068900  -0.932000
    N    4.462700  -1.072400  -1.006800
    H    0.760400   0.728400   0.578000
    H    2.809900  -0.097900   1.003200
    H    2.817400   1.026800  -0.378600
    H    2.581000  -0.963300  -1.938400
    H    2.653800  -2.036400  -0.553400
    H    4.790575  -2.025618  -1.159629
    H    4.838223  -0.790138  -0.101504
}

set optking { frozen_dihedral = (" 2 3 4 10 ") }

energy, wfn = energy('B3LYP-D3', return_wfn=True)

import os
os.chdir(os.environ['HTMD_PSI4_WORKDIR'])

oeprop(wfn, 'DIPOLE', 'QUADRUPOLE', 'MULLIKEN_CHARGES')

with open('psi4out.xyz', 'w') as f:
    f.write('11 ' )
    f.write('%.12f\n' % energy)
    f.write(MOL.save_string_xyz())
--------------------------------------------------------------------------
  Threads set to 1 by Python driver.

  Memory set to   4.981 GiB by Python driver.

*** tstart() called on loro.prib.upf.edu
*** at Sat Sep 29 17:10:06 2018

   => Loading Basis Set <=

    Name: CC-PVDZ
    Role: ORBITAL
    Keyword: BASIS
    atoms 1    entry O          line   198 file /shared/joao/test_parameterize/miniconda3/share/psi4/basis/cc-pvdz.gbs 
    atoms 2-3  entry C          line   138 file /shared/joao/test_parameterize/miniconda3/share/psi4/basis/cc-pvdz.gbs 
    atoms 4    entry N          line   168 file /shared/joao/test_parameterize/miniconda3/share/psi4/basis/cc-pvdz.gbs 
    atoms 5-11 entry H          line    22 file /shared/joao/test_parameterize/miniconda3/share/psi4/basis/cc-pvdz.gbs 


         ---------------------------------------------------------
                                   SCF
            by Justin Turney, Rob Parrish, Andy Simmonett
                             and Daniel Smith
                              RKS Reference
                        1 Threads,   5100 MiB Core
         ---------------------------------------------------------

  ==> Geometry <==

    Molecular point group: c1
    Full point group: C1

    Geometry (in Angstrom), charge = 0, multiplicity = 1:

       Center              X                  Y                   Z               Mass       
    ------------   -----------------  -----------------  -----------------  -----------------
         O            1.050400000000     0.042900000000    -0.048100000000    15.994914619560
         C            2.474100000000     0.047400000000    -0.029000000000    12.000000000000
         C            3.002600000000    -1.068900000000    -0.932000000000    12.000000000000
         N            4.462700000000    -1.072400000000    -1.006800000000    14.003074004780
         H            0.760400000000     0.728400000000     0.578000000000     1.007825032070
         H            2.809900000000    -0.097900000000     1.003200000000     1.007825032070
         H            2.817400000000     1.026800000000    -0.378600000000     1.007825032070
         H            2.581000000000    -0.963300000000    -1.938400000000     1.007825032070
         H            2.653800000000    -2.036400000000    -0.553400000000     1.007825032070
         H            4.790575000000    -2.025618000000    -1.159629000000     1.007825032070
         H            4.838223000000    -0.790138000000    -0.101504000000     1.007825032070

  Running in c1 symmetry.

  Rotational constants: A =      0.72405  B =      0.02770  C =      0.02699 [cm^-1]
  Rotational constants: A =  21706.40272  B =    830.41448  C =    809.16039 [MHz]
  Nuclear repulsion =  130.601539888288727

  Charge       = 0
  Multiplicity = 1
  Electrons    = 34
  Nalpha       = 17
  Nbeta        = 17

  ==> Algorithm <==

  SCF Algorithm Type is DF.
  DIIS enabled.
  MOM disabled.
  Fractional occupation disabled.
  Guess Type is SAD.
  Energy threshold   = 1.00e-06
  Density threshold  = 1.00e-06
  Integral threshold = 0.00e+00

  ==> Primary Basis <==

  Basis Set: CC-PVDZ
    Blend: CC-PVDZ
    Number of shells: 45
    Number of basis function: 91
    Number of Cartesian functions: 95
    Spherical Harmonics?: true
    Max angular momentum: 2

  ==> DFT Potential <==

   => Composite Functional: B3LYP-D3ZERO <= 

    B3LYP-d3zero Hyb-GGA Exchange-Correlation Functional

    P. J. Stephens, F. J. Devlin, C. F. Chabalowski, and M. J. Frisch, J. Phys. Chem. 98, 11623 (1994)

    Deriv               =              1
    GGA                 =           TRUE
    Meta                =          FALSE

    Exchange Hybrid     =           TRUE
    MP2 Hybrid          =          FALSE

   => Exchange Functionals <=

    0.0800   Slater exchange
    0.7200         Becke 88

   => Exact (HF) Exchange <=

    0.2000               HF 

   => Correlation Functionals <=

    0.1900   Vosko, Wilk & Nusair (VWN5_RPA)
    0.8100   Lee, Yang & Parr

   => Molecular Quadrature <=

    Radial Scheme       =       TREUTLER
    Pruning Scheme      =           FLAT
    Nuclear Scheme      =       TREUTLER

    BS radius alpha     =              1
    Pruning alpha       =              1
    Radial Points       =             75
    Spherical Points    =            302
    Total Points        =         245090
    Total Blocks        =           1885
    Max Points          =            256
    Max Functions       =             91

   => -D3ZERO: Empirical Dispersion <=

    Grimme's -D3 (zero-damping) Dispersion Correction
    Grimme S.; Antony J.; Ehrlich S.; Krieg H. (2010), J. Chem. Phys., 132: 154104

        S6 =   1.000000E+00
        S8 =   1.703000E+00
       SR6 =   1.261000E+00
       SR8 =   1.000000E+00
    ALPHA6 =   1.400000E+01

   => Loading Basis Set <=

    Name: (CC-PVDZ AUX)
    Role: JKFIT
    Keyword: DF_BASIS_SCF
    atoms 1    entry O          line   221 file /shared/joao/test_parameterize/miniconda3/share/psi4/basis/cc-pvdz-jkfit.gbs 
    atoms 2-3  entry C          line   121 file /shared/joao/test_parameterize/miniconda3/share/psi4/basis/cc-pvdz-jkfit.gbs 
    atoms 4    entry N          line   171 file /shared/joao/test_parameterize/miniconda3/share/psi4/basis/cc-pvdz-jkfit.gbs 
    atoms 5-11 entry H          line    51 file /shared/joao/test_parameterize/miniconda3/share/psi4/basis/cc-pvdz-jkfit.gbs 

  ==> Pre-Iterations <==

   -------------------------------------------------------
    Irrep   Nso     Nmo     Nalpha   Nbeta   Ndocc  Nsocc
   -------------------------------------------------------
     A         91      91       0       0       0       0
   -------------------------------------------------------
    Total      91      91      17      17      17       0
   -------------------------------------------------------

  ==> Integral Setup <==

  DFHelper Memory: AOs need 0.036 [GiB]; user supplied 3.486 [GiB]. Using in-core AOs.

  ==> MemDFJK: Density-Fitted J/K Matrices <==

    J tasked:                   Yes
    K tasked:                   Yes
    wK tasked:                   No
    OpenMP threads:               1
    Memory (MB):               3570
    Algorithm:                 Core
    Schwarz Cutoff:           1E-12
    Mask sparsity (%):       0.4589
    Fitting Condition:        1E-12

   => Auxiliary Basis Set <=

  Basis Set: (CC-PVDZ AUX)
    Blend: CC-PVDZ-JKFIT
    Number of shells: 159
    Number of basis function: 441
    Number of Cartesian functions: 499
    Spherical Harmonics?: true
    Max angular momentum: 3

  Minimum eigenvalue in the overlap matrix is 4.5610546339E-03.
  Using Symmetric Orthogonalization.

  SCF Guess: Superposition of Atomic Densities via on-the-fly atomic UHF.

  ==> Iterations <==

                           Total Energy        Delta E     RMS |[F,P]|

   @DF-RKS iter   0:  -210.84025157400339   -2.10840e+02   3.66096e-02 
   @DF-RKS iter   1:  -210.21782270266382    6.22429e-01   6.96123e-03 
   @DF-RKS iter   2:  -210.07513249749562    1.42690e-01   9.57282e-03 DIIS
   @DF-RKS iter   3:  -210.38778981149710   -3.12657e-01   5.75782e-04 DIIS
   @DF-RKS iter   4:  -210.38848315928945   -6.93348e-04   3.64732e-04 DIIS
   @DF-RKS iter   5:  -210.38895558981818   -4.72431e-04   4.54178e-05 DIIS
   @DF-RKS iter   6:  -210.38896096817075   -5.37835e-06   2.27004e-05 DIIS
   @DF-RKS iter   7:  -210.38896284799219   -1.87982e-06   1.92924e-06 DIIS
   @DF-RKS iter   8:  -210.38896286152641   -1.35342e-08   6.40847e-07 DIIS

  ==> Post-Iterations <==

    Orbital Energies [Eh]
    ---------------------

    Doubly Occupied:                                                      

       1A    -19.129956     2A    -14.303760     3A    -10.228620  
       4A    -10.201354     5A     -1.012335     6A     -0.877067  
       7A     -0.712922     8A     -0.601452     9A     -0.508705  
      10A     -0.473533    11A     -0.472115    12A     -0.410416  
      13A     -0.379247    14A     -0.377313    15A     -0.325090  
      16A     -0.263657    17A     -0.229054  

    Virtual:                                                              

      18A      0.048902    19A      0.057334    20A      0.101835  
      21A      0.114161    22A      0.123139    23A      0.148772  
      24A      0.176482    25A      0.210779    26A      0.239314  
      27A      0.253533    28A      0.442848    29A      0.445770  
      30A      0.483858    31A      0.509945    32A      0.564167  
      33A      0.587521    34A      0.605801    35A      0.627942  
      36A      0.633420    37A      0.647365    38A      0.660043  
      39A      0.664716    40A      0.689176    41A      0.822618  
      42A      0.832802    43A      0.848769    44A      0.910712  
      45A      0.970493    46A      0.997020    47A      0.998128  
      48A      1.061993    49A      1.144408    50A      1.213842  
      51A      1.222321    52A      1.237751    53A      1.347014  
      54A      1.391096    55A      1.446866    56A      1.458864  
      57A      1.518510    58A      1.594036    59A      1.596738  
      60A      1.625683    61A      1.649968    62A      1.668242  
      63A      1.705549    64A      1.715986    65A      1.754913  
      66A      1.776832    67A      1.824788    68A      1.860130  
      69A      1.912878    70A      1.960180    71A      1.984549  
      72A      2.027271    73A      2.046953    74A      2.127487  
      75A      2.157114    76A      2.228024    77A      2.296462  
      78A      2.372999    79A      2.428134    80A      2.445239  
      81A      2.485973    82A      2.524624    83A      2.598641  
      84A      2.663779    85A      2.819936    86A      2.953187  
      87A      3.009028    88A      3.039709    89A      3.116362  
      90A      3.205306    91A      3.693313  

    Final Occupation by Irrep:
              A 
    DOCC [    17 ]

  Energy converged.

  @DF-RKS Final Energy:  -210.38896286152641

   => Energetics <=

    Nuclear Repulsion Energy =            130.6015398882887268
    One-Electron Energy =                -544.0853264110286318
    Two-Electron Energy =                 226.5868402760087292
    DFT Exchange-Correlation Energy =     -23.4870936247951825
    Empirical Dispersion Energy =          -0.0049229900000000
    VV10 Nonlocal Energy =                  0.0000000000000000
    Total Energy =                       -210.3889628615264087



Properties will be evaluated at   0.000000,   0.000000,   0.000000 [a0]

Properties computed using the SCF density matrix

  Nuclear Dipole Moment: [e a0]
     X:   177.1686      Y:   -32.9771      Z:   -29.7608

  Electronic Dipole Moment: [e a0]
     X:  -176.9730      Y:    33.0183      Z:    30.4880

  Dipole Moment: [e a0]
     X:     0.1957      Y:     0.0411      Z:     0.7273     Total:     0.7542

  Dipole Moment: [D]
     X:     0.4973      Y:     0.1045      Z:     1.8485     Total:     1.9171


*** tstop() called on loro.prib.upf.edu at Sat Sep 29 17:10:23 2018
Module time:
	user time   =      14.98 seconds =       0.25 minutes
	system time =       0.22 seconds =       0.00 minutes
	total time  =         17 seconds =       0.28 minutes
Total time:
	user time   =      14.98 seconds =       0.25 minutes
	system time =       0.22 seconds =       0.00 minutes
	total time  =         17 seconds =       0.28 minutes


Properties will be evaluated at   0.000000,   0.000000,   0.000000 [a0]
OEProp: No title given, name of density matrix used for the following properties is 'SCF density'
  Nuclear Dipole Moment: [e a0]
     X:   177.1686      Y:   -32.9771      Z:   -29.7608

  Electronic Dipole Moment: [e a0]
     X:  -176.9730      Y:    33.0183      Z:    30.4880

  Dipole Moment: [e a0]
     X:     0.1957      Y:     0.0411      Z:     0.7273     Total:     0.7542

  Dipole Moment: [D]
     X:     0.4973      Y:     0.1045      Z:     1.8485     Total:     1.9171

  Quadrupole Moment: [D A]
    XX:   -24.4923     YY:   -22.0518     ZZ:   -26.5788
    XY:    -3.9992     XZ:     5.4423     YZ:     1.5865

  Traceless Quadrupole Moment: [D A]
    XX:    -0.1180     YY:     2.3225     ZZ:    -2.2045
    XY:    -3.9992     XZ:     5.4423     YZ:     1.5865

  Mulliken Charges: (a.u.)
   Center  Symbol    Alpha    Beta     Spin     Total
       1     O     4.13773  4.13773  0.00000 -0.27546
       2     C     2.93880  2.93880  0.00000  0.12239
       3     C     2.97811  2.97811  0.00000  0.04378
       4     N     3.59298  3.59298  0.00000 -0.18595
       5     H     0.42991  0.42991  0.00000  0.14017
       6     H     0.50349  0.50349  0.00000 -0.00699
       7     H     0.49701  0.49701  0.00000  0.00597
       8     H     0.48949  0.48949  0.00000  0.02102
       9     H     0.50046  0.50046  0.00000 -0.00093
      10     H     0.46327  0.46327  0.00000  0.07346
      11     H     0.46873  0.46873  0.00000  0.06253

   Total alpha = 17.00000, Total beta = 17.00000, Total charge =  0.00000


    Psi4 stopped on: Saturday, 29 September 2018 05:10PM
    Psi4 wall time for execution: 0:00:17.15

*** Psi4 exiting successfully. Buy a developer a beer!
