
    -----------------------------------------------------------------------
          Psi4: An Open-Source Ab Initio Electronic Structure Package
                               Psi4 1.2.1 release

                         Git: Rev {HEAD} 406f4de 


    R. M. Parrish, L. A. Burns, D. G. A. Smith, A. C. Simmonett,
    A. E. DePrince III, E. G. Hohenstein, U. Bozkaya, A. Yu. Sokolov,
    R. Di Remigio, R. M. Richard, J. F. Gonthier, A. M. James,
    H. R. McAlexander, A. Kumar, M. Saitow, X. Wang, B. P. Pritchard,
    P. Verma, H. F. Schaefer III, K. Patkowski, R. A. King, E. F. Valeev,
    F. A. Evangelista, J. M. Turney, T. D. Crawford, and C. D. Sherrill,
    J. Chem. Theory Comput. 13(7) pp 3185--3197 (2017).
    (doi: 10.1021/acs.jctc.7b00174)


                         Additional Contributions by
    P. Kraus, H. Kruse, M. H. Lechner, M. C. Schieber, and R. A. Shaw

    -----------------------------------------------------------------------


    Psi4 started on: Saturday, 29 September 2018 05:11PM

    Process ID: 14336
    Host:       loro.prib.upf.edu
    PSIDATADIR: /shared/joao/test_parameterize/miniconda3/share/psi4
    Memory:     500.0 MiB
    Threads:    1
    
  ==> Input File <==

--------------------------------------------------------------------------
set_num_threads(1)
set_memory('5348 MB')

set { scf_mem_safety_factor 0.7 }

set { reference rks }
set { basis cc-pVDZ }

molecule MOL {
    0 1
    noreorient
    nocom
    symmetry c1
    O    1.050400   0.042900  -0.048100
    C    2.474100   0.047400  -0.029000
    C    3.002600  -1.068900  -0.932000
    N    4.462700  -1.072400  -1.006800
    H    0.758479   0.055901   0.879599
    H    2.809900  -0.097900   1.003200
    H    2.817400   1.026800  -0.378600
    H    2.581000  -0.963300  -1.938400
    H    2.653800  -2.036400  -0.553400
    H    4.779000  -0.221000  -1.470000
    H    4.758600  -1.842500  -1.606500
}

set optking { frozen_dihedral = (" 3 2 1 5 ") }

energy, wfn = energy('B3LYP-D3', return_wfn=True)

import os
os.chdir(os.environ['HTMD_PSI4_WORKDIR'])

oeprop(wfn, 'DIPOLE', 'QUADRUPOLE', 'MULLIKEN_CHARGES')

with open('psi4out.xyz', 'w') as f:
    f.write('11 ' )
    f.write('%.12f\n' % energy)
    f.write(MOL.save_string_xyz())
--------------------------------------------------------------------------
  Threads set to 1 by Python driver.

  Memory set to   4.981 GiB by Python driver.

*** tstart() called on loro.prib.upf.edu
*** at Sat Sep 29 17:11:01 2018

   => Loading Basis Set <=

    Name: CC-PVDZ
    Role: ORBITAL
    Keyword: BASIS
    atoms 1    entry O          line   198 file /shared/joao/test_parameterize/miniconda3/share/psi4/basis/cc-pvdz.gbs 
    atoms 2-3  entry C          line   138 file /shared/joao/test_parameterize/miniconda3/share/psi4/basis/cc-pvdz.gbs 
    atoms 4    entry N          line   168 file /shared/joao/test_parameterize/miniconda3/share/psi4/basis/cc-pvdz.gbs 
    atoms 5-11 entry H          line    22 file /shared/joao/test_parameterize/miniconda3/share/psi4/basis/cc-pvdz.gbs 


         ---------------------------------------------------------
                                   SCF
            by Justin Turney, Rob Parrish, Andy Simmonett
                             and Daniel Smith
                              RKS Reference
                        1 Threads,   5100 MiB Core
         ---------------------------------------------------------

  ==> Geometry <==

    Molecular point group: c1
    Full point group: C1

    Geometry (in Angstrom), charge = 0, multiplicity = 1:

       Center              X                  Y                   Z               Mass       
    ------------   -----------------  -----------------  -----------------  -----------------
         O            1.050400000000     0.042900000000    -0.048100000000    15.994914619560
         C            2.474100000000     0.047400000000    -0.029000000000    12.000000000000
         C            3.002600000000    -1.068900000000    -0.932000000000    12.000000000000
         N            4.462700000000    -1.072400000000    -1.006800000000    14.003074004780
         H            0.758479000000     0.055901000000     0.879599000000     1.007825032070
         H            2.809900000000    -0.097900000000     1.003200000000     1.007825032070
         H            2.817400000000     1.026800000000    -0.378600000000     1.007825032070
         H            2.581000000000    -0.963300000000    -1.938400000000     1.007825032070
         H            2.653800000000    -2.036400000000    -0.553400000000     1.007825032070
         H            4.779000000000    -0.221000000000    -1.470000000000     1.007825032070
         H            4.758600000000    -1.842500000000    -1.606500000000     1.007825032070

  Running in c1 symmetry.

  Rotational constants: A =      0.72671  B =      0.02761  C =      0.02697 [cm^-1]
  Rotational constants: A =  21786.07043  B =    827.70958  C =    808.65722 [MHz]
  Nuclear repulsion =  130.493673986390547

  Charge       = 0
  Multiplicity = 1
  Electrons    = 34
  Nalpha       = 17
  Nbeta        = 17

  ==> Algorithm <==

  SCF Algorithm Type is DF.
  DIIS enabled.
  MOM disabled.
  Fractional occupation disabled.
  Guess Type is SAD.
  Energy threshold   = 1.00e-06
  Density threshold  = 1.00e-06
  Integral threshold = 0.00e+00

  ==> Primary Basis <==

  Basis Set: CC-PVDZ
    Blend: CC-PVDZ
    Number of shells: 45
    Number of basis function: 91
    Number of Cartesian functions: 95
    Spherical Harmonics?: true
    Max angular momentum: 2

  ==> DFT Potential <==

   => Composite Functional: B3LYP-D3ZERO <= 

    B3LYP-d3zero Hyb-GGA Exchange-Correlation Functional

    P. J. Stephens, F. J. Devlin, C. F. Chabalowski, and M. J. Frisch, J. Phys. Chem. 98, 11623 (1994)

    Deriv               =              1
    GGA                 =           TRUE
    Meta                =          FALSE

    Exchange Hybrid     =           TRUE
    MP2 Hybrid          =          FALSE

   => Exchange Functionals <=

    0.0800   Slater exchange
    0.7200         Becke 88

   => Exact (HF) Exchange <=

    0.2000               HF 

   => Correlation Functionals <=

    0.1900   Vosko, Wilk & Nusair (VWN5_RPA)
    0.8100   Lee, Yang & Parr

   => Molecular Quadrature <=

    Radial Scheme       =       TREUTLER
    Pruning Scheme      =           FLAT
    Nuclear Scheme      =       TREUTLER

    BS radius alpha     =              1
    Pruning alpha       =              1
    Radial Points       =             75
    Spherical Points    =            302
    Total Points        =         245076
    Total Blocks        =           1884
    Max Points          =            256
    Max Functions       =             91

   => -D3ZERO: Empirical Dispersion <=

    Grimme's -D3 (zero-damping) Dispersion Correction
    Grimme S.; Antony J.; Ehrlich S.; Krieg H. (2010), J. Chem. Phys., 132: 154104

        S6 =   1.000000E+00
        S8 =   1.703000E+00
       SR6 =   1.261000E+00
       SR8 =   1.000000E+00
    ALPHA6 =   1.400000E+01

   => Loading Basis Set <=

    Name: (CC-PVDZ AUX)
    Role: JKFIT
    Keyword: DF_BASIS_SCF
    atoms 1    entry O          line   221 file /shared/joao/test_parameterize/miniconda3/share/psi4/basis/cc-pvdz-jkfit.gbs 
    atoms 2-3  entry C          line   121 file /shared/joao/test_parameterize/miniconda3/share/psi4/basis/cc-pvdz-jkfit.gbs 
    atoms 4    entry N          line   171 file /shared/joao/test_parameterize/miniconda3/share/psi4/basis/cc-pvdz-jkfit.gbs 
    atoms 5-11 entry H          line    51 file /shared/joao/test_parameterize/miniconda3/share/psi4/basis/cc-pvdz-jkfit.gbs 

  ==> Pre-Iterations <==

   -------------------------------------------------------
    Irrep   Nso     Nmo     Nalpha   Nbeta   Ndocc  Nsocc
   -------------------------------------------------------
     A         91      91       0       0       0       0
   -------------------------------------------------------
    Total      91      91      17      17      17       0
   -------------------------------------------------------

  ==> Integral Setup <==

  DFHelper Memory: AOs need 0.036 [GiB]; user supplied 3.486 [GiB]. Using in-core AOs.

  ==> MemDFJK: Density-Fitted J/K Matrices <==

    J tasked:                   Yes
    K tasked:                   Yes
    wK tasked:                   No
    OpenMP threads:               1
    Memory (MB):               3570
    Algorithm:                 Core
    Schwarz Cutoff:           1E-12
    Mask sparsity (%):       0.4830
    Fitting Condition:        1E-12

   => Auxiliary Basis Set <=

  Basis Set: (CC-PVDZ AUX)
    Blend: CC-PVDZ-JKFIT
    Number of shells: 159
    Number of basis function: 441
    Number of Cartesian functions: 499
    Spherical Harmonics?: true
    Max angular momentum: 3

  Minimum eigenvalue in the overlap matrix is 4.6071885613E-03.
  Using Symmetric Orthogonalization.

  SCF Guess: Superposition of Atomic Densities via on-the-fly atomic UHF.

  ==> Iterations <==

                           Total Energy        Delta E     RMS |[F,P]|

   @DF-RKS iter   0:  -210.90133061571336   -2.10901e+02   3.67683e-02 
   @DF-RKS iter   1:  -210.20349644662849    6.97834e-01   7.26131e-03 
   @DF-RKS iter   2:  -210.05751182091487    1.45985e-01   9.86293e-03 DIIS
   @DF-RKS iter   3:  -210.38930087930396   -3.31789e-01   6.30607e-04 DIIS
   @DF-RKS iter   4:  -210.39012209687331   -8.21218e-04   3.95107e-04 DIIS
   @DF-RKS iter   5:  -210.39067605121417   -5.53954e-04   5.42972e-05 DIIS
   @DF-RKS iter   6:  -210.39068401057045   -7.95936e-06   2.47982e-05 DIIS
   @DF-RKS iter   7:  -210.39068624767788   -2.23711e-06   2.43959e-06 DIIS
   @DF-RKS iter   8:  -210.39068626948546   -2.18076e-08   6.22947e-07 DIIS

  ==> Post-Iterations <==

    Orbital Energies [Eh]
    ---------------------

    Doubly Occupied:                                                      

       1A    -19.127893     2A    -14.303775     3A    -10.224160  
       4A    -10.199720     5A     -1.010418     6A     -0.875773  
       7A     -0.711128     8A     -0.598829     9A     -0.510011  
      10A     -0.484630    11A     -0.444251    12A     -0.423367  
      13A     -0.388408    14A     -0.361737    15A     -0.322730  
      16A     -0.263385    17A     -0.230076  

    Virtual:                                                              

      18A      0.048118    19A      0.057570    20A      0.099177  
      21A      0.122439    22A      0.127118    23A      0.151715  
      24A      0.167963    25A      0.207967    26A      0.246721  
      27A      0.260800    28A      0.436034    29A      0.448628  
      30A      0.484501    31A      0.504636    32A      0.576681  
      33A      0.584866    34A      0.598386    35A      0.613209  
      36A      0.636513    37A      0.641405    38A      0.659837  
      39A      0.679104    40A      0.701261    41A      0.813417  
      42A      0.833019    43A      0.846772    44A      0.920496  
      45A      0.964210    46A      1.002699    47A      1.018997  
      48A      1.060691    49A      1.148308    50A      1.208906  
      51A      1.214242    52A      1.262315    53A      1.311809  
      54A      1.393778    55A      1.430363    56A      1.481470  
      57A      1.518060    58A      1.598152    59A      1.623519  
      60A      1.635342    61A      1.655715    62A      1.683181  
      63A      1.706730    64A      1.732028    65A      1.745356  
      66A      1.778543    67A      1.796714    68A      1.846890  
      69A      1.867407    70A      1.965822    71A      1.995142  
      72A      2.026704    73A      2.057335    74A      2.121068  
      75A      2.164219    76A      2.246767    77A      2.266925  
      78A      2.367834    79A      2.401162    80A      2.442146  
      81A      2.478420    82A      2.553327    83A      2.601909  
      84A      2.686878    85A      2.825644    86A      2.937773  
      87A      3.016818    88A      3.051488    89A      3.115994  
      90A      3.218071    91A      3.680461  

    Final Occupation by Irrep:
              A 
    DOCC [    17 ]

  Energy converged.

  @DF-RKS Final Energy:  -210.39068626948546

   => Energetics <=

    Nuclear Repulsion Energy =            130.4936739863905473
    One-Electron Energy =                -543.9257691889898751
    Two-Electron Energy =                 226.5331824183652998
    DFT Exchange-Correlation Energy =     -23.4868332852514179
    Empirical Dispersion Energy =          -0.0049402000000000
    VV10 Nonlocal Energy =                  0.0000000000000000
    Total Energy =                       -210.3906862694854283



Properties will be evaluated at   0.000000,   0.000000,   0.000000 [a0]

Properties computed using the SCF density matrix

  Nuclear Dipole Moment: [e a0]
     X:   176.9927      Y:   -32.8264      Z:   -32.6214

  Electronic Dipole Moment: [e a0]
     X:  -176.8245      Y:    32.8305      Z:    32.6830

  Dipole Moment: [e a0]
     X:     0.1681      Y:     0.0040      Z:     0.0616     Total:     0.1791

  Dipole Moment: [D]
     X:     0.4274      Y:     0.0103      Z:     0.1566     Total:     0.4553


*** tstop() called on loro.prib.upf.edu at Sat Sep 29 17:11:19 2018
Module time:
	user time   =      14.72 seconds =       0.25 minutes
	system time =       0.21 seconds =       0.00 minutes
	total time  =         18 seconds =       0.30 minutes
Total time:
	user time   =      14.72 seconds =       0.25 minutes
	system time =       0.21 seconds =       0.00 minutes
	total time  =         18 seconds =       0.30 minutes


Properties will be evaluated at   0.000000,   0.000000,   0.000000 [a0]
OEProp: No title given, name of density matrix used for the following properties is 'SCF density'
  Nuclear Dipole Moment: [e a0]
     X:   176.9927      Y:   -32.8264      Z:   -32.6214

  Electronic Dipole Moment: [e a0]
     X:  -176.8245      Y:    32.8305      Z:    32.6830

  Dipole Moment: [e a0]
     X:     0.1681      Y:     0.0040      Z:     0.0616     Total:     0.1791

  Dipole Moment: [D]
     X:     0.4274      Y:     0.0103      Z:     0.1566     Total:     0.4553

  Quadrupole Moment: [D A]
    XX:   -25.4424     YY:   -24.5774     ZZ:   -21.5145
    XY:     0.6301     XZ:    -5.7588     YZ:     1.4744

  Traceless Quadrupole Moment: [D A]
    XX:    -1.5976     YY:    -0.7326     ZZ:     2.3303
    XY:     0.6301     XZ:    -5.7588     YZ:     1.4744

  Mulliken Charges: (a.u.)
   Center  Symbol    Alpha    Beta     Spin     Total
       1     O     4.13938  4.13938  0.00000 -0.27877
       2     C     2.93091  2.93091  0.00000  0.13817
       3     C     2.98383  2.98383  0.00000  0.03234
       4     N     3.59454  3.59454  0.00000 -0.18908
       5     H     0.42887  0.42887  0.00000  0.14227
       6     H     0.49787  0.49787  0.00000  0.00427
       7     H     0.49989  0.49989  0.00000  0.00021
       8     H     0.50063  0.50063  0.00000 -0.00125
       9     H     0.49460  0.49460  0.00000  0.01080
      10     H     0.46556  0.46556  0.00000  0.06887
      11     H     0.46391  0.46391  0.00000  0.07217

   Total alpha = 17.00000, Total beta = 17.00000, Total charge = -0.00000


    Psi4 stopped on: Saturday, 29 September 2018 05:11PM
    Psi4 wall time for execution: 0:00:17.35

*** Psi4 exiting successfully. Buy a developer a beer!
