
    -----------------------------------------------------------------------
          Psi4: An Open-Source Ab Initio Electronic Structure Package
                               Psi4 1.2.1 release

                         Git: Rev {HEAD} 406f4de 


    R. M. Parrish, L. A. Burns, D. G. A. Smith, A. C. Simmonett,
    A. E. DePrince III, E. G. Hohenstein, U. Bozkaya, A. Yu. Sokolov,
    R. Di Remigio, R. M. Richard, J. F. Gonthier, A. M. James,
    H. R. McAlexander, A. Kumar, M. Saitow, X. Wang, B. P. Pritchard,
    P. Verma, H. F. Schaefer III, K. Patkowski, R. A. King, E. F. Valeev,
    F. A. Evangelista, J. M. Turney, T. D. Crawford, and C. D. Sherrill,
    J. Chem. Theory Comput. 13(7) pp 3185--3197 (2017).
    (doi: 10.1021/acs.jctc.7b00174)


                         Additional Contributions by
    P. Kraus, H. Kruse, M. H. Lechner, M. C. Schieber, and R. A. Shaw

    -----------------------------------------------------------------------


    Psi4 started on: Saturday, 29 September 2018 08:24PM

    Process ID: 27515
    Host:       arancio.prib.upf.edu
    PSIDATADIR: /shared/joao/test_parameterize/miniconda3/share/psi4
    Memory:     500.0 MiB
    Threads:    1
    
  ==> Input File <==

--------------------------------------------------------------------------
set_num_threads(4)
set_memory('3000 MB')

set { scf_mem_safety_factor 0.7 }

set { reference rks }
set { basis 6-31G* }

molecule MOL {
    1 1
    noreorient
    nocom
    symmetry c1
    C   -0.000000  -0.000000  -0.177864
    C    0.036678   1.219374   0.524165
    C    0.031765   1.213120   1.915444
    C    0.000000   0.000000   2.610107
    C   -0.031765  -1.213120   1.915444
    C   -0.036678  -1.219375   0.524165
    C   -0.000000   0.000000  -1.644734
    H    0.018170   2.164705  -0.010854
    H    0.042402   2.152895   2.457886
    H    0.000000   0.000000   3.695756
    H   -0.042402  -2.152895   2.457886
    H   -0.018170  -2.164705  -0.010853
    N   -0.712590  -0.905950  -2.308461
    N    0.712590   0.905950  -2.308460
    H    0.673432   1.006470  -3.315997
    H    1.377190   1.485970  -1.813316
    H   -0.596462  -1.004655  -3.308489
    H   -1.332872  -1.562465  -1.849108
}

set optking { frozen_dihedral = (" 1 7 13 17 ") }

set optking { dynamic_level = 1 
 geom_maxiter = 250
 print_trajectory_xyz_file = True }

energy, wfn = optimize('B3LYP-D3', return_wfn=True)

import os
os.chdir(os.environ['HTMD_PSI4_WORKDIR'])

oeprop(wfn, 'DIPOLE', 'QUADRUPOLE', 'MULLIKEN_CHARGES')

with open('psi4out.xyz', 'w') as f:
    f.write('18 ' )
    f.write('%.12f\n' % energy)
    f.write(MOL.save_string_xyz())
--------------------------------------------------------------------------
  Threads set to 4 by Python driver.

  Memory set to   2.794 GiB by Python driver.
gradient() will perform analytic gradient computation.

*** tstart() called on arancio.prib.upf.edu
*** at Sat Sep 29 20:24:39 2018

   => Loading Basis Set <=

    Name: 6-31G*
    Role: ORBITAL
    Keyword: BASIS
    atoms 1-7         entry C          line   111 file /shared/joao/test_parameterize/miniconda3/share/psi4/basis/6-31gs.gbs 
    atoms 8-12, 15-18 entry H          line    44 file /shared/joao/test_parameterize/miniconda3/share/psi4/basis/6-31gs.gbs 
    atoms 13-14       entry N          line   128 file /shared/joao/test_parameterize/miniconda3/share/psi4/basis/6-31gs.gbs 


         ---------------------------------------------------------
                                   SCF
            by Justin Turney, Rob Parrish, Andy Simmonett
                             and Daniel Smith
                              RKS Reference
                        4 Threads,   2861 MiB Core
         ---------------------------------------------------------

  ==> Geometry <==

    Molecular point group: c1
    Full point group: C1

    Geometry (in Angstrom), charge = 1, multiplicity = 1:

       Center              X                  Y                   Z               Mass       
    ------------   -----------------  -----------------  -----------------  -----------------
         C            0.000000000000     0.000000000000    -0.177864000000    12.000000000000
         C            0.036678000000     1.219374000000     0.524165000000    12.000000000000
         C            0.031765000000     1.213120000000     1.915444000000    12.000000000000
         C            0.000000000000     0.000000000000     2.610107000000    12.000000000000
         C           -0.031765000000    -1.213120000000     1.915444000000    12.000000000000
         C           -0.036678000000    -1.219375000000     0.524165000000    12.000000000000
         C            0.000000000000     0.000000000000    -1.644734000000    12.000000000000
         H            0.018170000000     2.164705000000    -0.010854000000     1.007825032070
         H            0.042402000000     2.152895000000     2.457886000000     1.007825032070
         H            0.000000000000     0.000000000000     3.695756000000     1.007825032070
         H           -0.042402000000    -2.152895000000     2.457886000000     1.007825032070
         H           -0.018170000000    -2.164705000000    -0.010853000000     1.007825032070
         N           -0.712590000000    -0.905950000000    -2.308461000000    14.003074004780
         N            0.712590000000     0.905950000000    -2.308460000000    14.003074004780
         H            0.673432000000     1.006470000000    -3.315997000000     1.007825032070
         H            1.377190000000     1.485970000000    -1.813316000000     1.007825032070
         H           -0.596462000000    -1.004655000000    -3.308489000000     1.007825032070
         H           -1.332872000000    -1.562465000000    -1.849108000000     1.007825032070

  Running in c1 symmetry.

  Rotational constants: A =      0.12189  B =      0.03958  C =      0.03127 [cm^-1]
  Rotational constants: A =   3654.18394  B =   1186.66687  C =    937.57954 [MHz]
  Nuclear repulsion =  416.898818939833461

  Charge       = 1
  Multiplicity = 1
  Electrons    = 64
  Nalpha       = 32
  Nbeta        = 32

  ==> Algorithm <==

  SCF Algorithm Type is DF.
  DIIS enabled.
  MOM disabled.
  Fractional occupation disabled.
  Guess Type is SAD.
  Energy threshold   = 1.00e-08
  Density threshold  = 1.00e-08
  Integral threshold = 0.00e+00

  ==> Primary Basis <==

  Basis Set: 6-31G*
    Blend: 6-31G*
    Number of shells: 72
    Number of basis function: 153
    Number of Cartesian functions: 153
    Spherical Harmonics?: false
    Max angular momentum: 2

  ==> DFT Potential <==

   => Composite Functional: B3LYP-D3ZERO <= 

    B3LYP-d3zero Hyb-GGA Exchange-Correlation Functional

    P. J. Stephens, F. J. Devlin, C. F. Chabalowski, and M. J. Frisch, J. Phys. Chem. 98, 11623 (1994)

    Deriv               =              1
    GGA                 =           TRUE
    Meta                =          FALSE

    Exchange Hybrid     =           TRUE
    MP2 Hybrid          =          FALSE

   => Exchange Functionals <=

    0.0800   Slater exchange
    0.7200         Becke 88

   => Exact (HF) Exchange <=

    0.2000               HF 

   => Correlation Functionals <=

    0.1900   Vosko, Wilk & Nusair (VWN5_RPA)
    0.8100   Lee, Yang & Parr

   => Molecular Quadrature <=

    Radial Scheme       =       TREUTLER
    Pruning Scheme      =           FLAT
    Nuclear Scheme      =       TREUTLER

    BS radius alpha     =              1
    Pruning alpha       =              1
    Radial Points       =             75
    Spherical Points    =            302
    Total Points        =         396931
    Total Blocks        =           3012
    Max Points          =            256
    Max Functions       =            149

   => -D3ZERO: Empirical Dispersion <=

    Grimme's -D3 (zero-damping) Dispersion Correction
    Grimme S.; Antony J.; Ehrlich S.; Krieg H. (2010), J. Chem. Phys., 132: 154104

        S6 =   1.000000E+00
        S8 =   1.703000E+00
       SR6 =   1.261000E+00
       SR8 =   1.000000E+00
    ALPHA6 =   1.400000E+01

   => Loading Basis Set <=

    Name: (6-31G* AUX)
    Role: JKFIT
    Keyword: DF_BASIS_SCF
    atoms 1-7         entry C          line   121 file /shared/joao/test_parameterize/miniconda3/share/psi4/basis/cc-pvdz-jkfit.gbs 
    atoms 8-12, 15-18 entry H          line    51 file /shared/joao/test_parameterize/miniconda3/share/psi4/basis/cc-pvdz-jkfit.gbs 
    atoms 13-14       entry N          line   171 file /shared/joao/test_parameterize/miniconda3/share/psi4/basis/cc-pvdz-jkfit.gbs 

  ==> Pre-Iterations <==

   -------------------------------------------------------
    Irrep   Nso     Nmo     Nalpha   Nbeta   Ndocc  Nsocc
   -------------------------------------------------------
     A        153     153       0       0       0       0
   -------------------------------------------------------
    Total     153     153      32      32      32       0
   -------------------------------------------------------

  ==> Integral Setup <==

  ==> DiskDFJK: Density-Fitted J/K Matrices <==

    J tasked:                  Yes
    K tasked:                  Yes
    wK tasked:                  No
    OpenMP threads:              4
    Integrals threads:           4
    Memory (MB):              2002
    Algorithm:                Core
    Integral Cache:           NONE
    Schwarz Cutoff:          1E-12
    Fitting Condition:       1E-12

   => Auxiliary Basis Set <=

  Basis Set: (6-31G* AUX)
    Blend: CC-PVDZ-JKFIT
    Number of shells: 297
    Number of basis function: 954
    Number of Cartesian functions: 954
    Spherical Harmonics?: false
    Max angular momentum: 3

  Minimum eigenvalue in the overlap matrix is 4.8699793834E-04.
  Using Symmetric Orthogonalization.

  SCF Guess: Superposition of Atomic Densities via on-the-fly atomic UHF.

  ==> Iterations <==

                           Total Energy        Delta E     RMS |[F,P]|

   @DF-RKS iter   0:  -379.62045377065107   -3.79620e+02   6.73309e-02 
   @DF-RKS iter   1:  -381.04524874341558   -1.42479e+00   1.17439e-02 
   @DF-RKS iter   2:  -380.96468102095650    8.05677e-02   1.30319e-02 DIIS
   @DF-RKS iter   3:  -381.46276227439830   -4.98081e-01   1.60123e-03 DIIS
   @DF-RKS iter   4:  -381.46830830275502   -5.54603e-03   7.74950e-04 DIIS
   @DF-RKS iter   5:  -381.46983124504249   -1.52294e-03   2.34042e-04 DIIS
   @DF-RKS iter   6:  -381.46996479356318   -1.33549e-04   8.32501e-05 DIIS
   @DF-RKS iter   7:  -381.46998303991489   -1.82464e-05   1.54355e-05 DIIS
   @DF-RKS iter   8:  -381.46998362565768   -5.85743e-07   6.82645e-06 DIIS
   @DF-RKS iter   9:  -381.46998376861848   -1.42961e-07   2.06864e-06 DIIS
   @DF-RKS iter  10:  -381.46998378148555   -1.28671e-08   6.16113e-07 DIIS
   @DF-RKS iter  11:  -381.46998378254943   -1.06388e-09   5.55559e-08 DIIS
   @DF-RKS iter  12:  -381.46998378255660   -7.16227e-12   4.21709e-08 DIIS
   @DF-RKS iter  13:  -381.46998378256779   -1.11982e-11   1.87632e-08 DIIS
   @DF-RKS iter  14:  -381.46998378256893   -1.13687e-12   5.28927e-09 DIIS

  ==> Post-Iterations <==

    Orbital Energies [Eh]
    ---------------------

    Doubly Occupied:                                                      

       1A    -14.568422     2A    -14.568357     3A    -10.497346  
       4A    -10.372917     5A    -10.356348     6A    -10.355912  
       7A    -10.342929     8A    -10.340417     9A    -10.340249  
      10A     -1.184394    11A     -1.091987    12A     -1.014198  
      13A     -0.926586    14A     -0.902150    15A     -0.845663  
      16A     -0.786742    17A     -0.772704    18A     -0.741092  
      19A     -0.732652    20A     -0.691030    21A     -0.668686  
      22A     -0.625204    23A     -0.617851    24A     -0.586875  
      25A     -0.578810    26A     -0.573014    27A     -0.518251  
      28A     -0.505375    29A     -0.498056    30A     -0.472921  
      31A     -0.411551    32A     -0.405618  

    Virtual:                                                              

      33A     -0.216884    34A     -0.157366    35A     -0.128076  
      36A     -0.108937    37A     -0.067906    38A     -0.063051  
      39A     -0.038539    40A     -0.033474    41A      0.007173  
      42A      0.020385    43A      0.021679    44A      0.056702  
      45A      0.062033    46A      0.083739    47A      0.126215  
      48A      0.148368    49A      0.157494    50A      0.157940  
      51A      0.201850    52A      0.243571    53A      0.297150  
      54A      0.351453    55A      0.353740    56A      0.380285  
      57A      0.387227    58A      0.397435    59A      0.421893  
      60A      0.422929    61A      0.442279    62A      0.447151  
      63A      0.453247    64A      0.471543    65A      0.472878  
      66A      0.475318    67A      0.485706    68A      0.509989  
      69A      0.527166    70A      0.532752    71A      0.539578  
      72A      0.589882    73A      0.606651    74A      0.655846  
      75A      0.660167    76A      0.682111    77A      0.689154  
      78A      0.704123    79A      0.716323    80A      0.718808  
      81A      0.741769    82A      0.774686    83A      0.776355  
      84A      0.798735    85A      0.811552    86A      0.827269  
      87A      0.849983    88A      0.942659    89A      0.962805  
      90A      0.995279    91A      1.002019    92A      1.027956  
      93A      1.065681    94A      1.076486    95A      1.141032  
      96A      1.166616    97A      1.221120    98A      1.270025  
      99A      1.282798   100A      1.304070   101A      1.322228  
     102A      1.343593   103A      1.362433   104A      1.370528  
     105A      1.444177   106A      1.452111   107A      1.479851  
     108A      1.604357   109A      1.620943   110A      1.655571  
     111A      1.662431   112A      1.736550   113A      1.754278  
     114A      1.797592   115A      1.826383   116A      1.854169  
     117A      1.906495   118A      1.911304   119A      1.962407  
     120A      1.973614   121A      1.997311   122A      2.018651  
     123A      2.039440   124A      2.066772   125A      2.117692  
     126A      2.130423   127A      2.151235   128A      2.213966  
     129A      2.219536   130A      2.268523   131A      2.349610  
     132A      2.369158   133A      2.444684   134A      2.452657  
     135A      2.489800   136A      2.517678   137A      2.549827  
     138A      2.588492   139A      2.603879   140A      2.629752  
     141A      2.739311   142A      2.882186   143A      2.984412  
     144A      3.259292   145A      3.641221   146A      3.655321  
     147A      3.913343   148A      3.948490   149A      3.963730  
     150A      4.055114   151A      4.173894   152A      4.257838  
     153A      4.546427  

    Final Occupation by Irrep:
              A 
    DOCC [    32 ]

  Energy converged.

  @DF-RKS Final Energy:  -381.46998378256893

   => Energetics <=

    Nuclear Repulsion Energy =            416.8988189398334612
    One-Electron Energy =               -1329.0011404082597437
    Two-Electron Energy =                 575.0501494728306398
    DFT Exchange-Correlation Energy =     -44.4058909169734193
    Empirical Dispersion Energy =          -0.0119208700000000
    VV10 Nonlocal Energy =                  0.0000000000000000
    Total Energy =                       -381.4699837825689883



Properties will be evaluated at   0.000000,   0.000000,   0.000000 [a0]

Properties computed using the SCF density matrix

  Nuclear Dipole Moment: [e a0]
     X:     0.2292      Y:    -0.1411      Z:    -0.0287

  Electronic Dipole Moment: [e a0]
     X:    -0.1592      Y:     0.0886      Z:    -2.2259

  Dipole Moment: [e a0]
     X:     0.0700      Y:    -0.0525      Z:    -2.2546     Total:     2.2563

  Dipole Moment: [D]
     X:     0.1780      Y:    -0.1335      Z:    -5.7305     Total:     5.7348


*** tstop() called on arancio.prib.upf.edu at Sat Sep 29 20:25:08 2018
Module time:
	user time   =     100.87 seconds =       1.68 minutes
	system time =       0.75 seconds =       0.01 minutes
	total time  =         29 seconds =       0.48 minutes
Total time:
	user time   =     100.87 seconds =       1.68 minutes
	system time =       0.75 seconds =       0.01 minutes
	total time  =         29 seconds =       0.48 minutes

*** tstart() called on arancio.prib.upf.edu
*** at Sat Sep 29 20:25:08 2018


         ------------------------------------------------------------
                                   SCF GRAD                          
                          Rob Parrish, Justin Turney,                
                       Andy Simmonett, and Alex Sokolov              
         ------------------------------------------------------------

  ==> Geometry <==

    Molecular point group: c1
    Full point group: C1

    Geometry (in Angstrom), charge = 1, multiplicity = 1:

       Center              X                  Y                   Z               Mass       
    ------------   -----------------  -----------------  -----------------  -----------------
         C            0.000000000000     0.000000000000    -0.177864000000    12.000000000000
         C            0.036678000000     1.219374000000     0.524165000000    12.000000000000
         C            0.031765000000     1.213120000000     1.915444000000    12.000000000000
         C            0.000000000000     0.000000000000     2.610107000000    12.000000000000
         C           -0.031765000000    -1.213120000000     1.915444000000    12.000000000000
         C           -0.036678000000    -1.219375000000     0.524165000000    12.000000000000
         C            0.000000000000     0.000000000000    -1.644734000000    12.000000000000
         H            0.018170000000     2.164705000000    -0.010854000000     1.007825032070
         H            0.042402000000     2.152895000000     2.457886000000     1.007825032070
         H            0.000000000000     0.000000000000     3.695756000000     1.007825032070
         H           -0.042402000000    -2.152895000000     2.457886000000     1.007825032070
         H           -0.018170000000    -2.164705000000    -0.010853000000     1.007825032070
         N           -0.712590000000    -0.905950000000    -2.308461000000    14.003074004780
         N            0.712590000000     0.905950000000    -2.308460000000    14.003074004780
         H            0.673432000000     1.006470000000    -3.315997000000     1.007825032070
         H            1.377190000000     1.485970000000    -1.813316000000     1.007825032070
         H           -0.596462000000    -1.004655000000    -3.308489000000     1.007825032070
         H           -1.332872000000    -1.562465000000    -1.849108000000     1.007825032070

  Nuclear repulsion =  416.898818939833461

  ==> Basis Set <==

  Basis Set: 6-31G*
    Blend: 6-31G*
    Number of shells: 72
    Number of basis function: 153
    Number of Cartesian functions: 153
    Spherical Harmonics?: false
    Max angular momentum: 2

  ==> DFJKGrad: Density-Fitted SCF Gradients <==

    Gradient:                    1
    J tasked:                  Yes
    K tasked:                  Yes
    wK tasked:                  No
    OpenMP threads:              4
    Integrals threads:           4
    Memory (MB):              2002
    Schwarz Cutoff:          0E+00
    Fitting Condition:       1E-12

   => Auxiliary Basis Set <=

  Basis Set: (6-31G* AUX)
    Blend: CC-PVDZ-JKFIT
    Number of shells: 297
    Number of basis function: 954
    Number of Cartesian functions: 954
    Spherical Harmonics?: false
    Max angular momentum: 3

  ==> DFT Potential <==

   => Composite Functional: B3LYP-D3ZERO <= 

    B3LYP-d3zero Hyb-GGA Exchange-Correlation Functional

    P. J. Stephens, F. J. Devlin, C. F. Chabalowski, and M. J. Frisch, J. Phys. Chem. 98, 11623 (1994)

    Deriv               =              1
    GGA                 =           TRUE
    Meta                =          FALSE

    Exchange Hybrid     =           TRUE
    MP2 Hybrid          =          FALSE

   => Exchange Functionals <=

    0.0800   Slater exchange
    0.7200         Becke 88

   => Exact (HF) Exchange <=

    0.2000               HF 

   => Correlation Functionals <=

    0.1900   Vosko, Wilk & Nusair (VWN5_RPA)
    0.8100   Lee, Yang & Parr

   => Molecular Quadrature <=

    Radial Scheme       =       TREUTLER
    Pruning Scheme      =           FLAT
    Nuclear Scheme      =       TREUTLER

    BS radius alpha     =              1
    Pruning alpha       =              1
    Radial Points       =             75
    Spherical Points    =            302
    Total Points        =         396931
    Total Blocks        =           3012
    Max Points          =            256
    Max Functions       =            149


  -Total Gradient:
     Atom            X                  Y                   Z
    ------   -----------------  -----------------  -----------------
       1       -0.000082954991    -0.000557378333    -0.000010797910
       2       -0.000018505752     0.000130218073    -0.000134129135
       3        0.000006045931    -0.000027507604    -0.000031569901
       4       -0.000005652794    -0.000058065123     0.000040871281
       5       -0.000032877928     0.000132854601     0.000095596002
       6        0.000019876280    -0.000308353655    -0.000009971206
       7        0.002014422325     0.003024475833    -0.005962684940
       8        0.000008201957     0.000009129220     0.000008544988
       9        0.000006375438     0.000001635922    -0.000019385422
      10        0.000006051572     0.000010771946    -0.000000744297
      11        0.000007491886    -0.000000252716    -0.000016611243
      12       -0.000016830214     0.000089716924    -0.000130899303
      13       -0.004637569853    -0.001165929405     0.005447837690
      14        0.000629216399     0.000111569469     0.000630094562
      15       -0.000045803482    -0.000190415877     0.000105261336
      16        0.000315825246    -0.000113806904    -0.000136114547
      17        0.002912263238     0.002631967027     0.002158225655
      18       -0.001088355021    -0.003715300901    -0.002052509931


*** tstop() called on arancio.prib.upf.edu at Sat Sep 29 20:25:17 2018
Module time:
	user time   =      27.40 seconds =       0.46 minutes
	system time =       0.39 seconds =       0.01 minutes
	total time  =          9 seconds =       0.15 minutes
Total time:
	user time   =     128.33 seconds =       2.14 minutes
	system time =       1.15 seconds =       0.02 minutes
	total time  =         38 seconds =       0.63 minutes

			-----------------------------------------
			 OPTKING 2.0: for geometry optimizations 
			  - R.A. King,  Bethel University        
			-----------------------------------------
	At level 1: Red. Int., RFO, no backsteps, dynamic trust

	Internal coordinates to be generated automatically.
	Detected frag 1 with atoms:  1 2 3 4 5 6 7 8 9 10 11 12 13 14 15 16 17 18
	---Fragment 1 Bond Connectivity---
	 1 : 2 6 7
	 2 : 1 3 8
	 3 : 2 4 9
	 4 : 3 5 10
	 5 : 4 6 11
	 6 : 1 5 12
	 7 : 1 13 14
	 8 : 2
	 9 : 3
	 10 : 4
	 11 : 5
	 12 : 6
	 13 : 7 17 18
	 14 : 7 15 16
	 15 : 14
	 16 : 14
	 17 : 13
	 18 : 13

	Assuming in current code that numbering for constraints corresponds to unified fragment.
	Frozen dihedral atom list: 
	     1     7    13    17
	---Fragment 1 Geometry and Gradient---
	 C           0.0000000000        0.0000000000       -0.3361142489
	 C           0.0693113751        2.3042829136        0.9905282984
	 C           0.0600271506        2.2924645663        3.6196645829
	 C           0.0000000000        0.0000000000        4.9323874075
	 C          -0.0600271506       -2.2924645663        3.6196645829
	 C          -0.0693113751       -2.3042848033        0.9905282984
	 C           0.0000000000        0.0000000000       -3.1080968214
	 H           0.0343363238        4.0906996085       -0.0205110874
	 H           0.0801281675        4.0683819429        4.6447314059
	 H           0.0000000000        0.0000000000        6.9839666940
	 H          -0.0801281675       -4.0683819429        4.6447314059
	 H          -0.0343363238       -4.0906996085       -0.0205091977
	 N          -1.3465999450       -1.7119973901       -4.3623590784
	 N           1.3465999450        1.7119973901       -4.3623571887
	 H           1.2726020491        1.9019526610       -6.2663261875
	 H           2.6025119329        2.8080763417       -3.4266706324
	 H          -1.1271498287       -1.8985228080       -6.2521381237
	 H          -2.5187630502       -2.9526309422       -3.4943077101
	            -0.0000829550       -0.0005573783       -0.0000107979
	            -0.0000185058        0.0001302181       -0.0001341291
	             0.0000060459       -0.0000275076       -0.0000315699
	            -0.0000056528       -0.0000580651        0.0000408713
	            -0.0000328779        0.0001328546        0.0000955960
	             0.0000198763       -0.0003083537       -0.0000099712
	             0.0020144223        0.0030244758       -0.0059626849
	             0.0000082020        0.0000091292        0.0000085450
	             0.0000063754        0.0000016359       -0.0000193854
	             0.0000060516        0.0000107719       -0.0000007443
	             0.0000074919       -0.0000002527       -0.0000166112
	            -0.0000168302        0.0000897169       -0.0001308993
	            -0.0046375699       -0.0011659294        0.0054478377
	             0.0006292164        0.0001115695        0.0006300946
	            -0.0000458035       -0.0001904159        0.0001052613
	             0.0003158252       -0.0001138069       -0.0001361145
	             0.0029122632        0.0026319670        0.0021582257
	            -0.0010883550       -0.0037153009       -0.0020525099

	Previous optimization step data not found.  Starting new optimization.

	---Fragment 1 Intrafragment Coordinates---
	 - Coordinate -           - BOHR/RAD -       - ANG/DEG -
	 R(1,2)           =         2.659794	       1.407502
	 R(1,6)           =         2.659796	       1.407503
	 R(1,7)           =         2.771983	       1.466870
	 R(2,3)           =         2.629179	       1.391302
	 R(2,8)           =         2.052976	       1.086388
	 R(3,4)           =         2.642393	       1.398294
	 R(3,9)           =         2.050622	       1.085142
	 R(4,5)           =         2.642393	       1.398294
	 R(4,10)          =         2.051579	       1.085649
	 R(5,6)           =         2.629179	       1.391302
	 R(5,11)          =         2.050622	       1.085142
	 R(6,12)          =         2.052973	       1.086386
	 R(7,13)          =         2.513452	       1.330061
	 R(7,14)          =         2.513451	       1.330061
	 R(13,17)         =         1.911600	       1.011575
	 R(13,18)         =         1.914850	       1.013295
	 R(14,15)         =         1.914852	       1.013296
	 R(14,16)         =         1.911600	       1.011575
	 B(1,2,3)         =         2.088380	     119.655376
	 B(1,2,8)         =         2.103396	     120.515689
	 B(1,6,5)         =         2.088379	     119.655315
	 B(1,6,12)        =         2.103396	     120.515729
	 B(1,7,13)        =         2.093264	     119.935172
	 B(1,7,14)        =         2.093263	     119.935135
	 B(2,1,6)         =         2.097220	     120.161857
	 B(2,1,7)         =         2.092983	     119.919082
	 B(2,3,4)         =         2.095279	     120.050636
	 B(2,3,9)         =         2.089719	     119.732108
	 B(3,2,8)         =         2.090149	     119.756722
	 B(3,4,5)         =         2.101793	     120.423859
	 B(3,4,10)        =         2.090696	     119.788070
	 B(4,3,9)         =         2.098135	     120.214297
	 B(4,5,6)         =         2.095280	     120.050677
	 B(4,5,11)        =         2.098135	     120.214297
	 B(5,4,10)        =         2.090696	     119.788070
	 B(5,6,12)        =         2.090149	     119.756743
	 B(6,1,7)         =         2.092982	     119.919061
	 B(6,5,11)        =         2.089719	     119.732067
	 B(7,13,17)       =         2.092411	     119.886336
	 B(7,13,18)       =         2.144860	     122.891446
	 B(7,14,15)       =         2.144860	     122.891405
	 B(7,14,16)       =         2.092412	     119.886393
	 B(13,7,14)       =         2.096659	     120.129694
	 B(15,14,16)      =         2.043399	     117.078146
	 B(17,13,18)      =         2.043399	     117.078159
	 D(1,2,3,4)       =         0.007799	       0.446825
	 D(1,2,3,9)       =        -3.122896	    -178.928735
	 D(1,6,5,4)       =         0.007799	       0.446822
	 D(1,6,5,11)      =        -3.122896	    -178.928737
	*D(1,7,13,17)     =        -2.967059	    -169.999978
	 D(1,7,13,18)     =         0.096116	       5.507063
	 D(1,7,14,15)     =        -3.032165	    -173.730230
	 D(1,7,14,16)     =         0.187844	      10.762681
	 D(2,1,6,5)       =        -0.003906	      -0.223802
	 D(2,1,6,12)      =        -3.091437	    -177.126283
	 D(2,1,7,13)      =        -2.505167	    -143.535494
	 D(2,1,7,14)      =         0.636426	      36.464506
	 D(2,3,4,5)       =        -0.003942	      -0.225875
	 D(2,3,4,10)      =         3.137650	     179.774125
	 D(3,2,1,6)       =        -0.003906	      -0.223806
	 D(3,2,1,7)       =         3.137687	     179.776196
	 D(3,4,5,6)       =        -0.003942	      -0.225874
	 D(3,4,5,11)      =         3.126699	     179.146646
	 D(4,3,2,8)       =         3.095744	     177.373058
	 D(4,5,6,12)      =         3.095744	     177.373055
	 D(5,4,3,9)       =         3.126699	     179.146646
	 D(5,6,1,7)       =         3.137687	     179.776197
	 D(6,1,2,8)       =        -3.091437	    -177.126287
	 D(6,1,7,13)      =         0.636426	      36.464508
	 D(6,1,7,14)      =        -2.505167	    -143.535492
	 D(6,5,4,10)      =         3.137650	     179.774126
	 D(7,1,2,8)       =         0.050156	       2.873714
	 D(7,1,6,12)      =         0.050156	       2.873716
	 D(8,2,3,9)       =        -0.034950	      -2.002503
	 D(9,3,4,10)      =        -0.014894	      -0.853354
	 D(10,4,5,11)     =        -0.014894	      -0.853354
	 D(11,5,6,12)     =        -0.034950	      -2.002504
	 D(13,7,14,15)    =         0.109428	       6.269770
	 D(13,7,14,16)    =        -2.953748	    -169.237319
	 D(14,7,13,17)    =         0.174533	      10.000022
	 D(14,7,13,18)    =        -3.045476	    -174.492937

	Current energy   :      -381.4699837826

	Generating empirical Hessian (Schlegel '84) for each fragment.
	Taking RFO optimization step.
	Going to follow RFO solution 1.
	Using RFO vector 1.
	Norm of target step-size    0.10435
	Projected energy change by RFO approximation:        -0.0011240833

	Back-transformation to cartesian coordinates...
	Could not converge backtransformation.
	Using first guess instead.

	Back-transformation to cartesian coordinates to adjust frozen coordinates...
	Successfully converged to displaced geometry.

	--- Internal Coordinate Step in ANG or DEG, aJ/ANG or AJ/DEG ---
	 ---------------------------------------------------------------------------
	   Coordinate                Previous        Force       Change         New 
	   ----------                --------       ------       ------       ------
	    1 R(1,2)          =      1.407502     0.000129     0.000029     1.407531
	    2 R(1,6)          =      1.407503    -0.000366    -0.000055     1.407448
	    3 R(1,7)          =      1.466870     0.001627     0.000297     1.467167
	    4 R(2,3)          =      1.391302     0.000091     0.000024     1.391326
	    5 R(2,8)          =      1.086388    -0.000024    -0.000003     1.086385
	    6 R(3,4)          =      1.398294    -0.000534    -0.000070     1.398224
	    7 R(3,9)          =      1.085142     0.000065     0.000021     1.085164
	    8 R(4,5)          =      1.398294    -0.000059     0.000003     1.398297
	    9 R(4,10)         =      1.085649    -0.000003     0.000006     1.085655
	   10 R(5,6)          =      1.391302    -0.000712    -0.000094     1.391207
	   11 R(5,11)         =      1.085142     0.000062     0.000012     1.085154
	   12 R(6,12)         =      1.086386     0.000117     0.000033     1.086420
	   13 R(7,13)         =      1.330061    -0.002199    -0.000198     1.329863
	   14 R(7,14)         =      1.330061    -0.000408    -0.000023     1.330038
	   15 R(13,17)        =      1.011575     0.016947     0.003208     1.014783
	   16 R(13,18)        =      1.013295    -0.017659    -0.000717     1.012578
	   17 R(14,15)        =      1.013296     0.001012     0.000166     1.013461
	   18 R(14,16)        =      1.011575    -0.000627     0.000000     1.011575
	   19 B(1,2,3)        =    119.655376     0.000007     0.025369   119.680745
	   20 B(1,2,8)        =    120.515689    -0.000005    -0.017873   120.497816
	   21 B(1,6,5)        =    119.655315     0.000009     0.026099   119.681414
	   22 B(1,6,12)       =    120.515729     0.000008     0.043144   120.558873
	   23 B(1,7,13)       =    119.935172     0.000103     0.306946   120.242118
	   24 B(1,7,14)       =    119.935135    -0.000007    -0.022292   119.912843
	   25 B(2,1,6)        =    120.161857    -0.000012    -0.035973   120.125884
	   26 B(2,1,7)        =    119.919082     0.000006     0.019670   119.938752
	   27 B(2,3,4)        =    120.050636    -0.000003    -0.009401   120.041235
	   28 B(2,3,9)        =    119.732108     0.000003     0.011125   119.743233
	   29 B(3,2,8)        =    119.756722    -0.000003    -0.008880   119.747842
	   30 B(3,4,5)        =    120.423859    -0.000001    -0.002129   120.421731
	   31 B(3,4,10)       =    119.788070     0.000001     0.004676   119.792747
	   32 B(4,3,9)        =    120.214297     0.000000    -0.001715   120.212581
	   33 B(4,5,6)        =    120.050677    -0.000001    -0.004260   120.046417
	   34 B(4,5,11)       =    120.214297    -0.000001    -0.002521   120.211776
	   35 B(5,4,10)       =    119.788070    -0.000001    -0.002548   119.785522
	   36 B(5,6,12)       =    119.756743    -0.000017    -0.071022   119.685721
	   37 B(6,1,7)        =    119.919061     0.000005     0.016300   119.935361
	   38 B(6,5,11)       =    119.732067     0.000001     0.007031   119.739097
	   39 B(7,13,17)      =    119.886336     0.000555     2.637257   122.523593
	   40 B(7,13,18)      =    122.891446    -0.000533    -2.472033   120.419413
	   41 B(7,14,15)      =    122.891405     0.000024     0.127752   123.019157
	   42 B(7,14,16)      =    119.886393    -0.000021    -0.081159   119.805234
	   43 B(13,7,14)      =    120.129694    -0.000096    -0.290041   119.839653
	   44 B(15,14,16)     =    117.078146    -0.000001     0.004438   117.082584
	   45 B(17,13,18)     =    117.078159    -0.000017    -0.047251   117.030908
	   46 D(1,2,3,4)      =      0.446825     0.000000     0.028266     0.475091
	   47 D(1,2,3,9)      =   -178.928735     0.000000     0.027378  -178.901358
	   48 D(1,6,5,4)      =      0.446822     0.000000     0.027753     0.474574
	   49 D(1,6,5,11)     =   -178.928737    -0.000000     0.000901  -178.927836
	   50 *D(1,7,13,17)   =   -169.999978    -0.000000     0.000000  -169.999978
	   51 D(1,7,13,18)    =      5.507063     0.000018     2.579312     8.086375
	   52 D(1,7,14,15)    =   -173.730230     0.000003     0.592657  -173.137573
	   53 D(1,7,14,16)    =     10.762681    -0.000002    -0.288644    10.474037
	   54 D(2,1,6,5)      =     -0.223802    -0.000000    -0.006307    -0.230109
	   55 D(2,1,6,12)     =   -177.126283     0.000000     0.033815  -177.092468
	   56 D(2,1,7,13)     =   -143.535494     0.000003     0.520775  -143.014719
	   57 D(2,1,7,14)     =     36.464506    -0.000002    -0.324821    36.139686
	   58 D(2,3,4,5)      =     -0.225875    -0.000000    -0.006825    -0.232701
	   59 D(2,3,4,10)     =    179.774125     0.000000    -0.000242   179.773882
	   60 D(3,2,1,6)      =     -0.223806    -0.000000    -0.021799    -0.245605
	   61 D(3,2,1,7)      =    179.776196    -0.000000    -0.002830   179.773365
	   62 D(3,4,5,6)      =     -0.225874    -0.000000    -0.021311    -0.247185
	   63 D(3,4,5,11)     =    179.146646     0.000000     0.005729   179.152375
	   64 D(4,3,2,8)      =    177.373058    -0.000000    -0.001581   177.371476
	   65 D(4,5,6,12)     =    177.373055     0.000000    -0.008474   177.364582
	   66 D(5,4,3,9)      =    179.146646    -0.000000    -0.005853   179.140794
	   67 D(5,6,1,7)      =    179.776197    -0.000000    -0.025275   179.750922
	   68 D(6,1,2,8)      =   -177.126287     0.000000     0.007981  -177.118306
	   69 D(6,1,7,13)     =     36.464508     0.000003     0.539707    37.004214
	   70 D(6,1,7,14)     =   -143.535492    -0.000002    -0.305888  -143.841381
	   71 D(6,5,4,10)     =    179.774126    -0.000000    -0.027893   179.746233
	   72 D(7,1,2,8)      =      2.873714     0.000000     0.026950     2.900664
	   73 D(7,1,6,12)     =      2.873716     0.000000     0.014847     2.888563
	   74 D(8,2,3,9)      =     -2.002503    -0.000000    -0.002469    -2.004972
	   75 D(9,3,4,10)     =     -0.853354     0.000000     0.000731    -0.852623
	   76 D(10,4,5,11)    =     -0.853354     0.000000    -0.000853    -0.854207
	   77 D(11,5,6,12)    =     -2.002504    -0.000000    -0.035325    -2.037829
	   78 D(13,7,14,15)   =      6.269770    -0.000001    -0.249510     6.020261
	   79 D(13,7,14,16)   =   -169.237319    -0.000007    -1.130811  -170.368130
	   80 D(14,7,13,17)   =     10.000022     0.000005     0.844975    10.844997
	   81 D(14,7,13,18)   =   -174.492937     0.000023     3.424287  -171.068650
	 ---------------------------------------------------------------------------
	Successfully symmetrized geometry.

  ==> Convergence Check <==

  Measures of convergence in internal coordinates in au.
  Criteria marked as inactive (o), active & met (*), and active & unmet ( ).
  --------------------------------------------------------------------------------------------- ~
   Step     Total Energy     Delta E     MAX Force     RMS Force      MAX Disp      RMS Disp    ~
  --------------------------------------------------------------------------------------------- ~
    Convergence Criteria    1.00e-06 *    3.00e-04 *             o    1.20e-03 *             o  ~
  --------------------------------------------------------------------------------------------- ~
      1    -381.46998378   -3.81e+02      7.29e-03      1.21e-03 o    5.98e-02      1.15e-02 o  ~
  ---------------------------------------------------------------------------------------------

	Writing optimization data to binary file.
	Structure for next step:
	Cartesian Geometry (in Angstrom)
	    C     0.0057884229  -0.0040768962  -0.1787245452
	    C     0.0372496784   1.2159547385   0.5224723764
	    C     0.0278271070   1.2113915529   1.9137591071
	    C    -0.0026929869  -0.0010167178   2.6095790835
	    C    -0.0288314924  -1.2149340914   1.9160686867
	    C    -0.0297825057  -1.2225113279   0.5248823989
	    C     0.0105021656  -0.0057248730  -1.6458831631
	    H     0.0177228071   2.1606514627  -0.0136231577
	    H     0.0339961249   2.1517707422   2.4552651888
	    H    -0.0062278178   0.0000470321   3.6952275429
	    H    -0.0386124072  -2.1541656646   2.4594912509
	    H    -0.0067499010  -2.1689703241  -0.0080273744
	    N    -0.7036225152  -0.9047316033  -2.3169641783
	    N     0.7180113254   0.9054063549  -2.3079031367
	    H     0.6763935453   1.0122408404  -3.3148581224
	    H     1.3726478944   1.4935166532  -1.8090430815
	    H    -0.6135016725  -1.0351949482  -3.3192828169
	    H    -1.3488297725  -1.5143339305  -1.8297190589
			--------------------------
			 OPTKING Finished Execution 
			--------------------------

    Structure for next step:
    Molecular point group: c1
    Full point group: C1

    Geometry (in Angstrom), charge = 1, multiplicity = 1:

    C            0.005788422890    -0.004076896216    -0.178724545237
    C            0.037249678404     1.215954738547     0.522472376426
    C            0.027827107017     1.211391552950     1.913759107078
    C           -0.002692986903    -0.001016717804     2.609579083463
    C           -0.028831492387    -1.214934091390     1.916068686694
    C           -0.029782505662    -1.222511327876     0.524882398858
    C            0.010502165578    -0.005724873011    -1.645883163145
    H            0.017722807149     2.160651462655    -0.013623157691
    H            0.033996124934     2.151770742202     2.455265188774
    H           -0.006227817753     0.000047032116     3.695227542853
    H           -0.038612407186    -2.154165664561     2.459491250939
    H           -0.006749900990    -2.168970324134    -0.008027374359
    N           -0.703622515194    -0.904731603336    -2.316964178325
    N            0.718011325432     0.905406354921    -2.307903136694
    H            0.676393545272     1.012240840405    -3.314858122369
    H            1.372647894449     1.493516653222    -1.809043081468
    H           -0.613501672512    -1.035194948208    -3.319282816911
    H           -1.348829772536    -1.514333930481    -1.829719058887

gradient() will perform analytic gradient computation.

*** tstart() called on arancio.prib.upf.edu
*** at Sat Sep 29 20:25:17 2018

   => Loading Basis Set <=

    Name: 6-31G*
    Role: ORBITAL
    Keyword: BASIS
    atoms 1-7         entry C          line   111 file /shared/joao/test_parameterize/miniconda3/share/psi4/basis/6-31gs.gbs 
    atoms 8-12, 15-18 entry H          line    44 file /shared/joao/test_parameterize/miniconda3/share/psi4/basis/6-31gs.gbs 
    atoms 13-14       entry N          line   128 file /shared/joao/test_parameterize/miniconda3/share/psi4/basis/6-31gs.gbs 


         ---------------------------------------------------------
                                   SCF
            by Justin Turney, Rob Parrish, Andy Simmonett
                             and Daniel Smith
                              RKS Reference
                        4 Threads,   2861 MiB Core
         ---------------------------------------------------------

  ==> Geometry <==

    Molecular point group: c1
    Full point group: C1

    Geometry (in Angstrom), charge = 1, multiplicity = 1:

       Center              X                  Y                   Z               Mass       
    ------------   -----------------  -----------------  -----------------  -----------------
         C            0.005788422890    -0.004076896216    -0.178724545237    12.000000000000
         C            0.037249678404     1.215954738547     0.522472376426    12.000000000000
         C            0.027827107017     1.211391552950     1.913759107078    12.000000000000
         C           -0.002692986903    -0.001016717804     2.609579083463    12.000000000000
         C           -0.028831492387    -1.214934091390     1.916068686694    12.000000000000
         C           -0.029782505662    -1.222511327876     0.524882398858    12.000000000000
         C            0.010502165578    -0.005724873011    -1.645883163145    12.000000000000
         H            0.017722807149     2.160651462655    -0.013623157691     1.007825032070
         H            0.033996124934     2.151770742202     2.455265188774     1.007825032070
         H           -0.006227817753     0.000047032116     3.695227542853     1.007825032070
         H           -0.038612407186    -2.154165664561     2.459491250939     1.007825032070
         H           -0.006749900990    -2.168970324134    -0.008027374359     1.007825032070
         N           -0.703622515194    -0.904731603336    -2.316964178325    14.003074004780
         N            0.718011325432     0.905406354921    -2.307903136694    14.003074004780
         H            0.676393545272     1.012240840405    -3.314858122369     1.007825032070
         H            1.372647894449     1.493516653222    -1.809043081468     1.007825032070
         H           -0.613501672512    -1.035194948208    -3.319282816911     1.007825032070
         H           -1.348829772536    -1.514333930481    -1.829719058887     1.007825032070

  Running in c1 symmetry.

  Rotational constants: A =      0.12200  B =      0.03953  C =      0.03126 [cm^-1]
  Rotational constants: A =   3657.49096  B =   1185.14278  C =    937.22019 [MHz]
  Nuclear repulsion =  416.850967854752810

  Charge       = 1
  Multiplicity = 1
  Electrons    = 64
  Nalpha       = 32
  Nbeta        = 32

  ==> Algorithm <==

  SCF Algorithm Type is DF.
  DIIS enabled.
  MOM disabled.
  Fractional occupation disabled.
  Guess Type is READ.
  Energy threshold   = 1.00e-08
  Density threshold  = 1.00e-08
  Integral threshold = 0.00e+00

  ==> Primary Basis <==

  Basis Set: 6-31G*
    Blend: 6-31G*
    Number of shells: 72
    Number of basis function: 153
    Number of Cartesian functions: 153
    Spherical Harmonics?: false
    Max angular momentum: 2

  ==> DFT Potential <==

   => Composite Functional: B3LYP-D3ZERO <= 

    B3LYP-d3zero Hyb-GGA Exchange-Correlation Functional

    P. J. Stephens, F. J. Devlin, C. F. Chabalowski, and M. J. Frisch, J. Phys. Chem. 98, 11623 (1994)

    Deriv               =              1
    GGA                 =           TRUE
    Meta                =          FALSE

    Exchange Hybrid     =           TRUE
    MP2 Hybrid          =          FALSE

   => Exchange Functionals <=

    0.0800   Slater exchange
    0.7200         Becke 88

   => Exact (HF) Exchange <=

    0.2000               HF 

   => Correlation Functionals <=

    0.1900   Vosko, Wilk & Nusair (VWN5_RPA)
    0.8100   Lee, Yang & Parr

   => Molecular Quadrature <=

    Radial Scheme       =       TREUTLER
    Pruning Scheme      =           FLAT
    Nuclear Scheme      =       TREUTLER

    BS radius alpha     =              1
    Pruning alpha       =              1
    Radial Points       =             75
    Spherical Points    =            302
    Total Points        =         396951
    Total Blocks        =           3018
    Max Points          =            256
    Max Functions       =            149

   => -D3ZERO: Empirical Dispersion <=

    Grimme's -D3 (zero-damping) Dispersion Correction
    Grimme S.; Antony J.; Ehrlich S.; Krieg H. (2010), J. Chem. Phys., 132: 154104

        S6 =   1.000000E+00
        S8 =   1.703000E+00
       SR6 =   1.261000E+00
       SR8 =   1.000000E+00
    ALPHA6 =   1.400000E+01

   => Loading Basis Set <=

    Name: (6-31G* AUX)
    Role: JKFIT
    Keyword: DF_BASIS_SCF
    atoms 1-7         entry C          line   121 file /shared/joao/test_parameterize/miniconda3/share/psi4/basis/cc-pvdz-jkfit.gbs 
    atoms 8-12, 15-18 entry H          line    51 file /shared/joao/test_parameterize/miniconda3/share/psi4/basis/cc-pvdz-jkfit.gbs 
    atoms 13-14       entry N          line   171 file /shared/joao/test_parameterize/miniconda3/share/psi4/basis/cc-pvdz-jkfit.gbs 

  Reading orbitals from file 180, no projection.

  ==> Pre-Iterations <==

   -------------------------------------------------------
    Irrep   Nso     Nmo     Nalpha   Nbeta   Ndocc  Nsocc
   -------------------------------------------------------
     A        153     153       0       0       0       0
   -------------------------------------------------------
    Total     153     153      32      32      32       0
   -------------------------------------------------------

  ==> Integral Setup <==

  ==> DiskDFJK: Density-Fitted J/K Matrices <==

    J tasked:                  Yes
    K tasked:                  Yes
    wK tasked:                  No
    OpenMP threads:              4
    Integrals threads:           4
    Memory (MB):              2002
    Algorithm:                Core
    Integral Cache:           NONE
    Schwarz Cutoff:          1E-12
    Fitting Condition:       1E-12

   => Auxiliary Basis Set <=

  Basis Set: (6-31G* AUX)
    Blend: CC-PVDZ-JKFIT
    Number of shells: 297
    Number of basis function: 954
    Number of Cartesian functions: 954
    Spherical Harmonics?: false
    Max angular momentum: 3

  Minimum eigenvalue in the overlap matrix is 4.8675836599E-04.
  Using Symmetric Orthogonalization.

  SCF Guess: Orbitals guess was supplied from a previous computation.

  ==> Iterations <==

                           Total Energy        Delta E     RMS |[F,P]|

   @DF-RKS iter   0:  -381.46840473009809   -3.81468e+02   3.75488e-04 
   @DF-RKS iter   1:  -381.47040801628953   -2.00329e-03   5.56661e-05 
   @DF-RKS iter   2:  -381.47041213754591   -4.12126e-06   5.13349e-05 DIIS
   @DF-RKS iter   3:  -381.47041813164401   -5.99410e-06   2.58589e-05 DIIS
   @DF-RKS iter   4:  -381.47042004842007   -1.91678e-06   4.46742e-06 DIIS
   @DF-RKS iter   5:  -381.47042008987165   -4.14516e-08   2.63663e-06 DIIS
   @DF-RKS iter   6:  -381.47042010843813   -1.85665e-08   5.12599e-07 DIIS
   @DF-RKS iter   7:  -381.47042010907006   -6.31928e-10   2.12950e-07 DIIS
   @DF-RKS iter   8:  -381.47042010920239   -1.32331e-10   3.85965e-08 DIIS
   @DF-RKS iter   9:  -381.47042010920603   -3.63798e-12   1.43449e-08 DIIS
   @DF-RKS iter  10:  -381.47042010920615   -1.13687e-13   6.66229e-09 DIIS

  ==> Post-Iterations <==

    Orbital Energies [Eh]
    ---------------------

    Doubly Occupied:                                                      

       1A    -14.567929     2A    -14.567719     3A    -10.497058  
       4A    -10.373374     5A    -10.356403     6A    -10.356283  
       7A    -10.343167     8A    -10.340560     9A    -10.340504  
      10A     -1.183667    11A     -1.091313    12A     -1.014391  
      13A     -0.926590    14A     -0.902341    15A     -0.845351  
      16A     -0.785751    17A     -0.772996    18A     -0.741649  
      19A     -0.732876    20A     -0.688314    21A     -0.669225  
      22A     -0.625688    23A     -0.617425    24A     -0.586668  
      25A     -0.579271    26A     -0.572909    27A     -0.518548  
      28A     -0.505607    29A     -0.498204    30A     -0.472353  
      31A     -0.411913    32A     -0.405835  

    Virtual:                                                              

      33A     -0.217030    34A     -0.157596    35A     -0.128212  
      36A     -0.107785    37A     -0.067915    38A     -0.061440  
      39A     -0.038606    40A     -0.034518    41A      0.006930  
      42A      0.020178    43A      0.021043    44A      0.056327  
      45A      0.062026    46A      0.083821    47A      0.127028  
      48A      0.147459    49A      0.157573    50A      0.157720  
      51A      0.202136    52A      0.242690    53A      0.298036  
      54A      0.349863    55A      0.354972    56A      0.380996  
      57A      0.387492    58A      0.397513    59A      0.421792  
      60A      0.422189    61A      0.442381    62A      0.447636  
      63A      0.453427    64A      0.471342    65A      0.472126  
      66A      0.475150    67A      0.485492    68A      0.512336  
      69A      0.528305    70A      0.531694    71A      0.539492  
      72A      0.589933    73A      0.606137    74A      0.656481  
      75A      0.658525    76A      0.682222    77A      0.687943  
      78A      0.703966    79A      0.716371    80A      0.719490  
      81A      0.740423    82A      0.773329    83A      0.774923  
      84A      0.798433    85A      0.811334    86A      0.827374  
      87A      0.850084    88A      0.942500    89A      0.962488  
      90A      0.996724    91A      1.001137    92A      1.027717  
      93A      1.066946    94A      1.076181    95A      1.141801  
      96A      1.164184    97A      1.222258    98A      1.270575  
      99A      1.282780   100A      1.305396   101A      1.321269  
     102A      1.343432   103A      1.362308   104A      1.373927  
     105A      1.444410   106A      1.456918   107A      1.475574  
     108A      1.607334   109A      1.620861   110A      1.655220  
     111A      1.661837   112A      1.736481   113A      1.753195  
     114A      1.795906   115A      1.825515   116A      1.851906  
     117A      1.905379   118A      1.908973   119A      1.957960  
     120A      1.973388   121A      1.997263   122A      2.017240  
     123A      2.040479   124A      2.070050   125A      2.122797  
     126A      2.130187   127A      2.151458   128A      2.216116  
     129A      2.223336   130A      2.267591   131A      2.351540  
     132A      2.365870   133A      2.443482   134A      2.452801  
     135A      2.489488   136A      2.516276   137A      2.550308  
     138A      2.587839   139A      2.604337   140A      2.630181  
     141A      2.737865   142A      2.884881   143A      2.982928  
     144A      3.259124   145A      3.638808   146A      3.656987  
     147A      3.912074   148A      3.947998   149A      3.963513  
     150A      4.054327   151A      4.173790   152A      4.257686  
     153A      4.546202  

    Final Occupation by Irrep:
              A 
    DOCC [    32 ]

  Energy converged.

  @DF-RKS Final Energy:  -381.47042010920615

   => Energetics <=

    Nuclear Repulsion Energy =            416.8509678547528097
    One-Electron Energy =               -1328.9117324035842103
    Two-Electron Energy =                 575.0073268492867555
    DFT Exchange-Correlation Energy =     -44.4050535296614299
    Empirical Dispersion Energy =          -0.0119288800000000
    VV10 Nonlocal Energy =                  0.0000000000000000
    Total Energy =                       -381.4704201092061453



Properties will be evaluated at   0.000000,   0.000000,   0.000000 [a0]

Properties computed using the SCF density matrix

  Nuclear Dipole Moment: [e a0]
     X:     0.5819      Y:    -0.3311      Z:    -0.1620

  Electronic Dipole Moment: [e a0]
     X:    -0.5334      Y:     0.2962      Z:    -2.0862

  Dipole Moment: [e a0]
     X:     0.0485      Y:    -0.0349      Z:    -2.2482     Total:     2.2490

  Dipole Moment: [D]
     X:     0.1232      Y:    -0.0888      Z:    -5.7144     Total:     5.7164


*** tstop() called on arancio.prib.upf.edu at Sat Sep 29 20:25:39 2018
Module time:
	user time   =      73.81 seconds =       1.23 minutes
	system time =       0.36 seconds =       0.01 minutes
	total time  =         22 seconds =       0.37 minutes
Total time:
	user time   =     203.08 seconds =       3.38 minutes
	system time =       1.55 seconds =       0.03 minutes
	total time  =         60 seconds =       1.00 minutes

*** tstart() called on arancio.prib.upf.edu
*** at Sat Sep 29 20:25:39 2018


         ------------------------------------------------------------
                                   SCF GRAD                          
                          Rob Parrish, Justin Turney,                
                       Andy Simmonett, and Alex Sokolov              
         ------------------------------------------------------------

  ==> Geometry <==

    Molecular point group: c1
    Full point group: C1

    Geometry (in Angstrom), charge = 1, multiplicity = 1:

       Center              X                  Y                   Z               Mass       
    ------------   -----------------  -----------------  -----------------  -----------------
         C            0.005788422890    -0.004076896216    -0.178724545237    12.000000000000
         C            0.037249678404     1.215954738547     0.522472376426    12.000000000000
         C            0.027827107017     1.211391552950     1.913759107078    12.000000000000
         C           -0.002692986903    -0.001016717804     2.609579083463    12.000000000000
         C           -0.028831492387    -1.214934091390     1.916068686694    12.000000000000
         C           -0.029782505662    -1.222511327876     0.524882398858    12.000000000000
         C            0.010502165578    -0.005724873011    -1.645883163145    12.000000000000
         H            0.017722807149     2.160651462655    -0.013623157691     1.007825032070
         H            0.033996124934     2.151770742202     2.455265188774     1.007825032070
         H           -0.006227817753     0.000047032116     3.695227542853     1.007825032070
         H           -0.038612407186    -2.154165664561     2.459491250939     1.007825032070
         H           -0.006749900990    -2.168970324134    -0.008027374359     1.007825032070
         N           -0.703622515194    -0.904731603336    -2.316964178325    14.003074004780
         N            0.718011325432     0.905406354921    -2.307903136694    14.003074004780
         H            0.676393545272     1.012240840405    -3.314858122369     1.007825032070
         H            1.372647894449     1.493516653222    -1.809043081468     1.007825032070
         H           -0.613501672512    -1.035194948208    -3.319282816911     1.007825032070
         H           -1.348829772536    -1.514333930481    -1.829719058887     1.007825032070

  Nuclear repulsion =  416.850967854752810

  ==> Basis Set <==

  Basis Set: 6-31G*
    Blend: 6-31G*
    Number of shells: 72
    Number of basis function: 153
    Number of Cartesian functions: 153
    Spherical Harmonics?: false
    Max angular momentum: 2

  ==> DFJKGrad: Density-Fitted SCF Gradients <==

    Gradient:                    1
    J tasked:                  Yes
    K tasked:                  Yes
    wK tasked:                  No
    OpenMP threads:              4
    Integrals threads:           4
    Memory (MB):              2002
    Schwarz Cutoff:          0E+00
    Fitting Condition:       1E-12

   => Auxiliary Basis Set <=

  Basis Set: (6-31G* AUX)
    Blend: CC-PVDZ-JKFIT
    Number of shells: 297
    Number of basis function: 954
    Number of Cartesian functions: 954
    Spherical Harmonics?: false
    Max angular momentum: 3

  ==> DFT Potential <==

   => Composite Functional: B3LYP-D3ZERO <= 

    B3LYP-d3zero Hyb-GGA Exchange-Correlation Functional

    P. J. Stephens, F. J. Devlin, C. F. Chabalowski, and M. J. Frisch, J. Phys. Chem. 98, 11623 (1994)

    Deriv               =              1
    GGA                 =           TRUE
    Meta                =          FALSE

    Exchange Hybrid     =           TRUE
    MP2 Hybrid          =          FALSE

   => Exchange Functionals <=

    0.0800   Slater exchange
    0.7200         Becke 88

   => Exact (HF) Exchange <=

    0.2000               HF 

   => Correlation Functionals <=

    0.1900   Vosko, Wilk & Nusair (VWN5_RPA)
    0.8100   Lee, Yang & Parr

   => Molecular Quadrature <=

    Radial Scheme       =       TREUTLER
    Pruning Scheme      =           FLAT
    Nuclear Scheme      =       TREUTLER

    BS radius alpha     =              1
    Pruning alpha       =              1
    Radial Points       =             75
    Spherical Points    =            302
    Total Points        =         396951
    Total Blocks        =           3018
    Max Points          =            256
    Max Functions       =            149


  -Total Gradient:
     Atom            X                  Y                   Z
    ------   -----------------  -----------------  -----------------
       1        0.000195697821     0.000205396203     0.000241282843
       2        0.000070590940    -0.000094743484     0.000001321438
       3       -0.000046968652    -0.000032696451     0.000104668554
       4        0.000003997676     0.000079070562    -0.000023458358
       5        0.000022183798    -0.000033566260    -0.000082843455
       6       -0.000053685433     0.000141028689     0.000125248204
       7        0.001310638747    -0.000970052763    -0.000087492127
       8        0.000035745189    -0.000023473644    -0.000038789602
       9       -0.000003349585     0.000003247886     0.000023885573
      10        0.000001612646    -0.000003687540    -0.000002014585
      11       -0.000004770281    -0.000004230613     0.000008136434
      12        0.000065869230    -0.000031109743     0.000104027658
      13       -0.001200742618     0.002388516504     0.001085995431
      14       -0.000787926411    -0.000297115262    -0.000357255011
      15        0.000164343496     0.000124641691    -0.000150451460
      16       -0.000215970365     0.000106256191     0.000173058953
      17        0.001034931918    -0.000515411143    -0.001093186018
      18       -0.000591953369    -0.001039175069    -0.000055169085


*** tstop() called on arancio.prib.upf.edu at Sat Sep 29 20:25:45 2018
Module time:
	user time   =      24.74 seconds =       0.41 minutes
	system time =       0.22 seconds =       0.00 minutes
	total time  =          6 seconds =       0.10 minutes
Total time:
	user time   =     227.88 seconds =       3.80 minutes
	system time =       1.78 seconds =       0.03 minutes
	total time  =         66 seconds =       1.10 minutes

			-----------------------------------------
			 OPTKING 2.0: for geometry optimizations 
			  - R.A. King,  Bethel University        
			-----------------------------------------
	At level 1: Red. Int., RFO, no backsteps, dynamic trust

	Previous internal coordinate definitions found.
	---Fragment 1 Geometry and Gradient---
	 C           0.0109385340       -0.0077042173       -0.3377404437
	 C           0.0703916907        2.2978214458        0.9873297034
	 C           0.0525856113        2.2891982748        3.6164805967
	 C          -0.0050890077       -0.0019213182        4.9313897899
	 C          -0.0544836246       -2.2958927022        3.6208450696
	 C          -0.0562807793       -2.3102116040        0.9918839858
	 C           0.0198462167       -0.0108184421       -3.1102684251
	 H           0.0334912518        4.0830395330       -0.0257440371
	 H           0.0642433657        4.0662574035        4.6397787904
	 H          -0.0117688700        0.0000888778        6.9829680547
	 H          -0.0729668749       -4.0707831509        4.6477648905
	 H          -0.0127554643       -4.0987599030       -0.0151695391
	 N          -1.3296538546       -1.7096949541       -4.3784277567
	 N           1.3568447654        1.7109700498       -4.3613048696
	 H           1.2781985586        1.9128579689       -6.2641740206
	 H           2.5939285974        2.8223374495       -3.4185959866
	 H          -1.1593501431       -1.9562349463       -6.2725354816
	 H          -2.5489188700       -2.8616764023       -3.4576679214
	             0.0001956978        0.0002053962        0.0002412828
	             0.0000705909       -0.0000947435        0.0000013214
	            -0.0000469687       -0.0000326965        0.0001046686
	             0.0000039977        0.0000790706       -0.0000234584
	             0.0000221838       -0.0000335663       -0.0000828435
	            -0.0000536854        0.0001410287        0.0001252482
	             0.0013106387       -0.0009700528       -0.0000874921
	             0.0000357452       -0.0000234736       -0.0000387896
	            -0.0000033496        0.0000032479        0.0000238856
	             0.0000016126       -0.0000036875       -0.0000020146
	            -0.0000047703       -0.0000042306        0.0000081364
	             0.0000658692       -0.0000311097        0.0001040277
	            -0.0012007426        0.0023885165        0.0010859954
	            -0.0007879264       -0.0002971153       -0.0003572550
	             0.0001643435        0.0001246417       -0.0001504515
	            -0.0002159704        0.0001062562        0.0001730590
	             0.0010349319       -0.0005154111       -0.0010931860
	            -0.0005919534       -0.0010391751       -0.0000551691

	---Fragment 1 Intrafragment Coordinates---
	 - Coordinate -           - BOHR/RAD -       - ANG/DEG -
	 R(1,2)           =         2.659849	       1.407531
	 R(1,6)           =         2.659692	       1.407448
	 R(1,7)           =         2.772544	       1.467167
	 R(2,3)           =         2.629225	       1.391326
	 R(2,8)           =         2.052969	       1.086385
	 R(3,4)           =         2.642261	       1.398224
	 R(3,9)           =         2.050662	       1.085164
	 R(4,5)           =         2.642399	       1.398297
	 R(4,10)          =         2.051590	       1.085655
	 R(5,6)           =         2.629001	       1.391207
	 R(5,11)          =         2.050644	       1.085154
	 R(6,12)          =         2.053036	       1.086420
	 R(7,13)          =         2.513078	       1.329863
	 R(7,14)          =         2.513407	       1.330038
	 R(13,17)         =         1.917662	       1.014783
	 R(13,18)         =         1.913496	       1.012578
	 R(14,15)         =         1.915164	       1.013461
	 R(14,16)         =         1.911600	       1.011575
	 B(1,2,3)         =         2.088823	     119.680745
	 B(1,2,8)         =         2.103084	     120.497816
	 B(1,6,5)         =         2.088835	     119.681414
	 B(1,6,12)        =         2.104149	     120.558873
	 B(1,7,13)        =         2.098621	     120.242118
	 B(1,7,14)        =         2.092874	     119.912843
	 B(2,1,6)         =         2.096592	     120.125884
	 B(2,1,7)         =         2.093326	     119.938752
	 B(2,3,4)         =         2.095115	     120.041235
	 B(2,3,9)         =         2.089914	     119.743233
	 B(3,2,8)         =         2.089994	     119.747842
	 B(3,4,5)         =         2.101756	     120.421731
	 B(3,4,10)        =         2.090778	     119.792747
	 B(4,3,9)         =         2.098105	     120.212581
	 B(4,5,6)         =         2.095205	     120.046417
	 B(4,5,11)        =         2.098091	     120.211776
	 B(5,4,10)        =         2.090652	     119.785522
	 B(5,6,12)        =         2.088910	     119.685721
	 B(6,1,7)         =         2.093267	     119.935361
	 B(6,5,11)        =         2.089841	     119.739097
	 B(7,13,17)       =         2.138440	     122.523593
	 B(7,13,18)       =         2.101715	     120.419413
	 B(7,14,15)       =         2.147089	     123.019157
	 B(7,14,16)       =         2.090996	     119.805234
	 B(13,7,14)       =         2.091597	     119.839653
	 B(15,14,16)      =         2.043477	     117.082584
	 B(17,13,18)      =         2.042575	     117.030908
	 D(1,2,3,4)       =         0.008292	       0.475091
	 D(1,2,3,9)       =        -3.122418	    -178.901358
	 D(1,6,5,4)       =         0.008283	       0.474574
	 D(1,6,5,11)      =        -3.122880	    -178.927836
	*D(1,7,13,17)     =        -2.967059	    -169.999978
	 D(1,7,13,18)     =         0.141134	       8.086375
	 D(1,7,14,15)     =        -3.021821	    -173.137573
	 D(1,7,14,16)     =         0.182806	      10.474037
	 D(2,1,6,5)       =        -0.004016	      -0.230109
	 D(2,1,6,12)      =        -3.090847	    -177.092468
	 D(2,1,7,13)      =        -2.496078	    -143.014719
	 D(2,1,7,14)      =         0.630757	      36.139686
	 D(2,3,4,5)       =        -0.004061	      -0.232701
	 D(2,3,4,10)      =         3.137646	     179.773882
	 D(3,2,1,6)       =        -0.004287	      -0.245605
	 D(3,2,1,7)       =         3.137637	     179.773365
	 D(3,4,5,6)       =        -0.004314	      -0.247185
	 D(3,4,5,11)      =         3.126799	     179.152375
	 D(4,3,2,8)       =         3.095716	     177.371476
	 D(4,5,6,12)      =         3.095596	     177.364582
	 D(5,4,3,9)       =         3.126597	     179.140794
	 D(5,6,1,7)       =         3.137245	     179.750922
	 D(6,1,2,8)       =        -3.091298	    -177.118306
	 D(6,1,7,13)      =         0.645845	      37.004214
	 D(6,1,7,14)      =        -2.510506	    -143.841381
	 D(6,5,4,10)      =         3.137164	     179.746233
	 D(7,1,2,8)       =         0.050626	       2.900664
	 D(7,1,6,12)      =         0.050415	       2.888563
	 D(8,2,3,9)       =        -0.034993	      -2.004972
	 D(9,3,4,10)      =        -0.014881	      -0.852623
	 D(10,4,5,11)     =        -0.014909	      -0.854207
	 D(11,5,6,12)     =        -0.035567	      -2.037829
	 D(13,7,14,15)    =         0.105073	       6.020261
	 D(13,7,14,16)    =        -2.973485	    -170.368130
	 D(14,7,13,17)    =         0.189281	      10.844997
	 D(14,7,13,18)    =        -2.985711	    -171.068650

	Current energy   :      -381.4704201092

	Energy change for the previous step:
		Projected    :        -0.0011240833
		Actual       :        -0.0004363266

	Performing BFGS update.
	Previous computed or guess Hessian on step 1.
	Steps to be used in Hessian update: 1
	Taking RFO optimization step.
	Going to follow RFO solution 1.
	Using RFO vector 1.
	Norm of target step-size    0.06002
	Projected energy change by RFO approximation:        -0.0000518719

	Back-transformation to cartesian coordinates...
	The INTCO_EXCEPTion handler:
	TORS::compute_val: unable to compute torsion value
	Dynamic level is 1.
	exc.g_really_quit() is 0.
	Raising dynamic level to 2. ~
	Removing binary optimization data file.

    Structure for next step:
    Molecular point group: c1
    Full point group: C1

    Geometry (in Angstrom), charge = 1, multiplicity = 1:

    C            0.005788422890    -0.004076896216    -0.178724545237
    C            0.037249678404     1.215954738547     0.522472376426
    C            0.027827107017     1.211391552950     1.913759107078
    C           -0.002692986903    -0.001016717804     2.609579083463
    C           -0.028831492387    -1.214934091390     1.916068686694
    C           -0.029782505662    -1.222511327876     0.524882398858
    C            0.010502165578    -0.005724873011    -1.645883163145
    H            0.017722807149     2.160651462655    -0.013623157691
    H            0.033996124934     2.151770742202     2.455265188774
    H           -0.006227817753     0.000047032116     3.695227542853
    H           -0.038612407186    -2.154165664561     2.459491250939
    H           -0.006749900990    -2.168970324134    -0.008027374359
    N           -0.703622515194    -0.904731603336    -2.316964178325
    N            0.718011325432     0.905406354921    -2.307903136694
    H            0.676393545272     1.012240840405    -3.314858122369
    H            1.372647894449     1.493516653222    -1.809043081468
    H           -0.613501672512    -1.035194948208    -3.319282816911
    H           -1.348829772536    -1.514333930481    -1.829719058887

gradient() will perform analytic gradient computation.

*** tstart() called on arancio.prib.upf.edu
*** at Sat Sep 29 20:25:45 2018

   => Loading Basis Set <=

    Name: 6-31G*
    Role: ORBITAL
    Keyword: BASIS
    atoms 1-7         entry C          line   111 file /shared/joao/test_parameterize/miniconda3/share/psi4/basis/6-31gs.gbs 
    atoms 8-12, 15-18 entry H          line    44 file /shared/joao/test_parameterize/miniconda3/share/psi4/basis/6-31gs.gbs 
    atoms 13-14       entry N          line   128 file /shared/joao/test_parameterize/miniconda3/share/psi4/basis/6-31gs.gbs 


         ---------------------------------------------------------
                                   SCF
            by Justin Turney, Rob Parrish, Andy Simmonett
                             and Daniel Smith
                              RKS Reference
                        4 Threads,   2861 MiB Core
         ---------------------------------------------------------

  ==> Geometry <==

    Molecular point group: c1
    Full point group: C1

    Geometry (in Angstrom), charge = 1, multiplicity = 1:

       Center              X                  Y                   Z               Mass       
    ------------   -----------------  -----------------  -----------------  -----------------
         C            0.005788422890    -0.004076896216    -0.178724545237    12.000000000000
         C            0.037249678404     1.215954738547     0.522472376426    12.000000000000
         C            0.027827107017     1.211391552950     1.913759107078    12.000000000000
         C           -0.002692986903    -0.001016717804     2.609579083463    12.000000000000
         C           -0.028831492387    -1.214934091390     1.916068686694    12.000000000000
         C           -0.029782505662    -1.222511327876     0.524882398858    12.000000000000
         C            0.010502165578    -0.005724873011    -1.645883163145    12.000000000000
         H            0.017722807149     2.160651462655    -0.013623157691     1.007825032070
         H            0.033996124934     2.151770742202     2.455265188774     1.007825032070
         H           -0.006227817753     0.000047032116     3.695227542853     1.007825032070
         H           -0.038612407186    -2.154165664561     2.459491250939     1.007825032070
         H           -0.006749900990    -2.168970324134    -0.008027374359     1.007825032070
         N           -0.703622515194    -0.904731603336    -2.316964178325    14.003074004780
         N            0.718011325432     0.905406354921    -2.307903136694    14.003074004780
         H            0.676393545272     1.012240840405    -3.314858122369     1.007825032070
         H            1.372647894449     1.493516653222    -1.809043081468     1.007825032070
         H           -0.613501672512    -1.035194948208    -3.319282816911     1.007825032070
         H           -1.348829772536    -1.514333930481    -1.829719058887     1.007825032070

  Running in c1 symmetry.

  Rotational constants: A =      0.12200  B =      0.03953  C =      0.03126 [cm^-1]
  Rotational constants: A =   3657.49096  B =   1185.14278  C =    937.22019 [MHz]
  Nuclear repulsion =  416.850967854752810

  Charge       = 1
  Multiplicity = 1
  Electrons    = 64
  Nalpha       = 32
  Nbeta        = 32

  ==> Algorithm <==

  SCF Algorithm Type is DF.
  DIIS enabled.
  MOM disabled.
  Fractional occupation disabled.
  Guess Type is READ.
  Energy threshold   = 1.00e-08
  Density threshold  = 1.00e-08
  Integral threshold = 0.00e+00

  ==> Primary Basis <==

  Basis Set: 6-31G*
    Blend: 6-31G*
    Number of shells: 72
    Number of basis function: 153
    Number of Cartesian functions: 153
    Spherical Harmonics?: false
    Max angular momentum: 2

  ==> DFT Potential <==

   => Composite Functional: B3LYP-D3ZERO <= 

    B3LYP-d3zero Hyb-GGA Exchange-Correlation Functional

    P. J. Stephens, F. J. Devlin, C. F. Chabalowski, and M. J. Frisch, J. Phys. Chem. 98, 11623 (1994)

    Deriv               =              1
    GGA                 =           TRUE
    Meta                =          FALSE

    Exchange Hybrid     =           TRUE
    MP2 Hybrid          =          FALSE

   => Exchange Functionals <=

    0.0800   Slater exchange
    0.7200         Becke 88

   => Exact (HF) Exchange <=

    0.2000               HF 

   => Correlation Functionals <=

    0.1900   Vosko, Wilk & Nusair (VWN5_RPA)
    0.8100   Lee, Yang & Parr

   => Molecular Quadrature <=

    Radial Scheme       =       TREUTLER
    Pruning Scheme      =           FLAT
    Nuclear Scheme      =       TREUTLER

    BS radius alpha     =              1
    Pruning alpha       =              1
    Radial Points       =             75
    Spherical Points    =            302
    Total Points        =         396951
    Total Blocks        =           3018
    Max Points          =            256
    Max Functions       =            149

   => -D3ZERO: Empirical Dispersion <=

    Grimme's -D3 (zero-damping) Dispersion Correction
    Grimme S.; Antony J.; Ehrlich S.; Krieg H. (2010), J. Chem. Phys., 132: 154104

        S6 =   1.000000E+00
        S8 =   1.703000E+00
       SR6 =   1.261000E+00
       SR8 =   1.000000E+00
    ALPHA6 =   1.400000E+01

   => Loading Basis Set <=

    Name: (6-31G* AUX)
    Role: JKFIT
    Keyword: DF_BASIS_SCF
    atoms 1-7         entry C          line   121 file /shared/joao/test_parameterize/miniconda3/share/psi4/basis/cc-pvdz-jkfit.gbs 
    atoms 8-12, 15-18 entry H          line    51 file /shared/joao/test_parameterize/miniconda3/share/psi4/basis/cc-pvdz-jkfit.gbs 
    atoms 13-14       entry N          line   171 file /shared/joao/test_parameterize/miniconda3/share/psi4/basis/cc-pvdz-jkfit.gbs 

  Reading orbitals from file 180, no projection.

  ==> Pre-Iterations <==

   -------------------------------------------------------
    Irrep   Nso     Nmo     Nalpha   Nbeta   Ndocc  Nsocc
   -------------------------------------------------------
     A        153     153       0       0       0       0
   -------------------------------------------------------
    Total     153     153      32      32      32       0
   -------------------------------------------------------

  ==> Integral Setup <==

  ==> DiskDFJK: Density-Fitted J/K Matrices <==

    J tasked:                  Yes
    K tasked:                  Yes
    wK tasked:                  No
    OpenMP threads:              4
    Integrals threads:           4
    Memory (MB):              2002
    Algorithm:                Core
    Integral Cache:           NONE
    Schwarz Cutoff:          1E-12
    Fitting Condition:       1E-12

   => Auxiliary Basis Set <=

  Basis Set: (6-31G* AUX)
    Blend: CC-PVDZ-JKFIT
    Number of shells: 297
    Number of basis function: 954
    Number of Cartesian functions: 954
    Spherical Harmonics?: false
    Max angular momentum: 3

  Minimum eigenvalue in the overlap matrix is 4.8675836600E-04.
  Using Symmetric Orthogonalization.

  SCF Guess: Orbitals guess was supplied from a previous computation.

  ==> Iterations <==

                           Total Energy        Delta E     RMS |[F,P]|

   @DF-RKS iter   0:  -381.47042010920109   -3.81470e+02   1.38554e-09 
   @DF-RKS iter   1:  -381.47042010920177   -6.82121e-13   2.26296e-09 

  ==> Post-Iterations <==

    Orbital Energies [Eh]
    ---------------------

    Doubly Occupied:                                                      

       1A    -14.567929     2A    -14.567719     3A    -10.497058  
       4A    -10.373374     5A    -10.356403     6A    -10.356283  
       7A    -10.343167     8A    -10.340560     9A    -10.340504  
      10A     -1.183667    11A     -1.091313    12A     -1.014391  
      13A     -0.926590    14A     -0.902341    15A     -0.845351  
      16A     -0.785751    17A     -0.772996    18A     -0.741649  
      19A     -0.732876    20A     -0.688314    21A     -0.669225  
      22A     -0.625688    23A     -0.617425    24A     -0.586668  
      25A     -0.579271    26A     -0.572909    27A     -0.518548  
      28A     -0.505607    29A     -0.498204    30A     -0.472353  
      31A     -0.411913    32A     -0.405835  

    Virtual:                                                              

      33A     -0.217030    34A     -0.157596    35A     -0.128212  
      36A     -0.107785    37A     -0.067915    38A     -0.061440  
      39A     -0.038606    40A     -0.034518    41A      0.006930  
      42A      0.020178    43A      0.021043    44A      0.056327  
      45A      0.062026    46A      0.083821    47A      0.127028  
      48A      0.147459    49A      0.157573    50A      0.157720  
      51A      0.202136    52A      0.242690    53A      0.298036  
      54A      0.349863    55A      0.354972    56A      0.380996  
      57A      0.387492    58A      0.397513    59A      0.421792  
      60A      0.422189    61A      0.442381    62A      0.447636  
      63A      0.453427    64A      0.471342    65A      0.472126  
      66A      0.475150    67A      0.485492    68A      0.512336  
      69A      0.528305    70A      0.531694    71A      0.539492  
      72A      0.589932    73A      0.606137    74A      0.656481  
      75A      0.658525    76A      0.682222    77A      0.687943  
      78A      0.703966    79A      0.716371    80A      0.719490  
      81A      0.740423    82A      0.773329    83A      0.774923  
      84A      0.798433    85A      0.811334    86A      0.827374  
      87A      0.850084    88A      0.942500    89A      0.962488  
      90A      0.996724    91A      1.001137    92A      1.027717  
      93A      1.066946    94A      1.076181    95A      1.141801  
      96A      1.164184    97A      1.222258    98A      1.270575  
      99A      1.282780   100A      1.305396   101A      1.321269  
     102A      1.343432   103A      1.362308   104A      1.373927  
     105A      1.444410   106A      1.456918   107A      1.475574  
[...]
	             0.0005077577       -0.0003945221        0.0000349399
	             0.0000028436       -0.0000082855       -0.0000132059
	            -0.0000081559       -0.0000117890        0.0000172732
	             0.0000115671        0.0000107940        0.0000036982
	             0.0000050099       -0.0000014267        0.0000068530
	             0.0000053165        0.0000171769       -0.0000196232
	            -0.0005206496        0.0003002443        0.0000022667
	            -0.0000073930        0.0000010486        0.0000050409
	            -0.0000027115        0.0000017361       -0.0000005939
	            -0.0000045200        0.0000022766       -0.0000016211
	            -0.0000036503        0.0000007989       -0.0000028084
	            -0.0000067463       -0.0000061866       -0.0000001650
	            -0.0006575635        0.0007675069       -0.0002565942
	             0.0000114281       -0.0000396366        0.0000161262
	             0.0000005715       -0.0000060120       -0.0000055474
	            -0.0000235182        0.0000072025       -0.0000000394
	             0.0006613938       -0.0006536325        0.0001691933
	             0.0000280565        0.0000143687        0.0000232875

	---Fragment 1 Intrafragment Coordinates---
	 - Coordinate -           - BOHR/RAD -       - ANG/DEG -
	 R(1,2)           =         2.659948	       1.407584
	 R(1,6)           =         2.659822	       1.407517
	 R(1,7)           =         2.771576	       1.466655
	 R(2,3)           =         2.629053	       1.391235
	 R(2,8)           =         2.052998	       1.086400
	 R(3,4)           =         2.642493	       1.398347
	 R(3,9)           =         2.050634	       1.085149
	 R(4,5)           =         2.642403	       1.398299
	 R(4,10)          =         2.051596	       1.085658
	 R(5,6)           =         2.629181	       1.391303
	 R(5,11)          =         2.050626	       1.085145
	 R(6,12)          =         2.052960	       1.086380
	 R(7,13)          =         2.513449	       1.330060
	 R(7,14)          =         2.513532	       1.330104
	 R(13,17)         =         1.914805	       1.013271
	 R(13,18)         =         1.911519	       1.011532
	 R(14,15)         =         1.914923	       1.013334
	 R(14,16)         =         1.911585	       1.011567
	 B(1,2,3)         =         2.088504	     119.662459
	 B(1,2,8)         =         2.103071	     120.497082
	 B(1,6,5)         =         2.088364	     119.654466
	 B(1,6,12)        =         2.103532	     120.523527
	 B(1,7,13)        =         2.094535	     120.008005
	 B(1,7,14)        =         2.093355	     119.940419
	 B(2,1,6)         =         2.097175	     120.159298
	 B(2,1,7)         =         2.093346	     119.939883
	 B(2,3,4)         =         2.095118	     120.041407
	 B(2,3,9)         =         2.089911	     119.743065
	 B(3,2,8)         =         2.090363	     119.769004
	 B(3,4,5)         =         2.101923	     120.431305
	 B(3,4,10)        =         2.090633	     119.784425
	 B(4,3,9)         =         2.098102	     120.212395
	 B(4,5,6)         =         2.095247	     120.048786
	 B(4,5,11)        =         2.098112	     120.212985
	 B(5,4,10)        =         2.090630	     119.784268
	 B(5,6,12)        =         2.090031	     119.749953
	 B(6,1,7)         =         2.092663	     119.900784
	 B(6,5,11)        =         2.089777	     119.735375
	 B(7,13,17)       =         2.145537	     122.930230
	 B(7,13,18)       =         2.092950	     119.917208
	 B(7,14,15)       =         2.144141	     122.850204
	 B(7,14,16)       =         2.092957	     119.917619
	 B(13,7,14)       =         2.095290	     120.051290
	 B(15,14,16)      =         2.044145	     117.120898
	 B(17,13,18)      =         2.044693	     117.152295
	 D(1,2,3,4)       =         0.007409	       0.424519
	 D(1,2,3,9)       =        -3.122970	    -178.932972
	 D(1,6,5,4)       =         0.008124	       0.465487
	 D(1,6,5,11)      =        -3.122766	    -178.921322
	*D(1,7,13,17)     =        -2.967059	    -169.999978
	 D(1,7,13,18)     =         0.177913	      10.193672
	 D(1,7,14,15)     =        -3.026679	    -173.415914
	 D(1,7,14,16)     =         0.183817	      10.531911
	 D(2,1,6,5)       =        -0.004696	      -0.269049
	 D(2,1,6,12)      =        -3.092282	    -177.174722
	 D(2,1,7,13)      =        -2.505366	    -143.546885
	 D(2,1,7,14)      =         0.639620	      36.647545
	 D(2,3,4,5)       =        -0.004015	      -0.230038
	 D(2,3,4,10)      =         3.137883	     179.787435
	 D(3,2,1,6)       =        -0.003085	      -0.176779
	 D(3,2,1,7)       =         3.139705	     179.891851
	 D(3,4,5,6)       =        -0.003837	      -0.219863
	 D(3,4,5,11)      =         3.127002	     179.163990
	 D(4,3,2,8)       =         3.095626	     177.366320
	 D(4,5,6,12)      =         3.096133	     177.395342
	 D(5,4,3,9)       =         3.126311	     179.124410
	 D(5,6,1,7)       =         3.135700	     179.662348
	 D(6,1,2,8)       =        -3.090907	    -177.095917
	 D(6,1,7,13)      =         0.637422	      36.521566
	 D(6,1,7,14)      =        -2.500778	    -143.284004
	 D(6,5,4,10)      =         3.137450	     179.762663
	 D(7,1,2,8)       =         0.051884	       2.972713
	 D(7,1,6,12)      =         0.048113	       2.756675
	 D(8,2,3,9)       =        -0.034752	      -1.991172
	 D(9,3,4,10)      =        -0.014977	      -0.858117
	 D(10,4,5,11)     =        -0.014896	      -0.853483
	 D(11,5,6,12)     =        -0.034758	      -1.991467
	 D(13,7,14,15)    =         0.118309	       6.778601
	 D(13,7,14,16)    =        -2.954381	    -169.273574
	 D(14,7,13,17)    =         0.171136	       9.805374
	 D(14,7,13,18)    =        -2.967077	    -170.000976

	Current energy   :      -381.4704593547

	Energy change for the previous step:
		Projected    :        -0.0000001597
		Actual       :        -0.0000007406

	Performing BFGS update.
	Previous computed or guess Hessian on step 1.
	Steps to be used in Hessian update: 3 2
	Taking RFO optimization step.
	Going to follow RFO solution 1.
	Using RFO vector 1.
	Norm of target step-size    0.00375
	Projected energy change by RFO approximation:        -0.0000003595

	Back-transformation to cartesian coordinates...
	Successfully converged to displaced geometry.

	Back-transformation to cartesian coordinates to adjust frozen coordinates...
	Successfully converged to displaced geometry.

	--- Internal Coordinate Step in ANG or DEG, aJ/ANG or AJ/DEG ---
	 ---------------------------------------------------------------------------
	   Coordinate                Previous        Force       Change         New 
	   ----------                --------       ------       ------       ------
	    1 R(1,2)          =      1.407584    -0.000015     0.000009     1.407593
	    2 R(1,6)          =      1.407517     0.000081     0.000014     1.407531
	    3 R(1,7)          =      1.466655    -0.000341    -0.000050     1.466605
	    4 R(2,3)          =      1.391235    -0.000132    -0.000021     1.391213
	    5 R(2,8)          =      1.086400     0.000017     0.000002     1.086402
	    6 R(3,4)          =      1.398347     0.000113     0.000017     1.398365
	    7 R(3,9)          =      1.085149    -0.000015    -0.000002     1.085147
	    8 R(4,5)          =      1.398299    -0.000025    -0.000005     1.398294
	    9 R(4,10)         =      1.085658     0.000003     0.000001     1.085659
	   10 R(5,6)          =      1.391303    -0.000115    -0.000017     1.391286
	   11 R(5,11)         =      1.085145     0.000012     0.000003     1.085148
	   12 R(6,12)         =      1.086380    -0.000039    -0.000013     1.086366
	   13 R(7,13)         =      1.330060     0.000609     0.000080     1.330140
	   14 R(7,14)         =      1.330104     0.000326     0.000015     1.330119
	   15 R(13,17)        =      1.013271     0.000209     0.000064     1.013335
	   16 R(13,18)        =      1.011532     0.000121     0.000041     1.011573
	   17 R(14,15)        =      1.013334    -0.000030     0.000001     1.013335
	   18 R(14,16)        =      1.011567     0.000088     0.000012     1.011579
	   19 B(1,2,3)        =    119.662459    -0.000000    -0.000731   119.661729
	   20 B(1,2,8)        =    120.497082    -0.000000    -0.002794   120.494288
	   21 B(1,6,5)        =    119.654466    -0.000000    -0.001868   119.652599
	   22 B(1,6,12)       =    120.523527    -0.000000    -0.003490   120.520036
	   23 B(1,7,13)       =    120.008005     0.000001     0.004006   120.012012
	   24 B(1,7,14)       =    119.940419    -0.000001    -0.000046   119.940373
	   25 B(2,1,6)        =    120.159298     0.000001     0.002289   120.161587
	   26 B(2,1,7)        =    119.939883    -0.000001    -0.003112   119.936770
	   27 B(2,3,4)        =    120.041407    -0.000000    -0.001665   120.039743
	   28 B(2,3,9)        =    119.743065     0.000000     0.001750   119.744815
	   29 B(3,2,8)        =    119.769004     0.000001     0.004303   119.773306
	   30 B(3,4,5)        =    120.431305     0.000001     0.002387   120.433691
	   31 B(3,4,10)       =    119.784425    -0.000000    -0.000424   119.784001
	   32 B(4,3,9)        =    120.212395     0.000000    -0.000070   120.212324
	   33 B(4,5,6)        =    120.048786    -0.000000    -0.000333   120.048453
	   34 B(4,5,11)       =    120.212985     0.000000    -0.000269   120.212716
	   35 B(5,4,10)       =    119.784268    -0.000000    -0.001961   119.782307
	   36 B(5,6,12)       =    119.749953     0.000000     0.005140   119.755093
	   37 B(6,1,7)        =    119.900784     0.000000     0.000805   119.901589
	   38 B(6,5,11)       =    119.735375     0.000000     0.000486   119.735861
	   39 B(7,13,17)      =    122.930230    -0.000004    -0.025728   122.904502
	   40 B(7,13,18)      =    119.917208     0.000005     0.023376   119.940584
	   41 B(7,14,15)      =    122.850204     0.000000    -0.001010   122.849194
	   42 B(7,14,16)      =    119.917619     0.000000    -0.001861   119.915758
	   43 B(13,7,14)      =    120.051290     0.000000    -0.003989   120.047301
	   44 B(15,14,16)     =    117.120898    -0.000000    -0.000212   117.120687
	   45 B(17,13,18)     =    117.152295    -0.000000     0.002077   117.154372
	   46 D(1,2,3,4)      =      0.424519    -0.000000    -0.008189     0.416330
	   47 D(1,2,3,9)      =   -178.932972    -0.000000    -0.009752  -178.942724
	   48 D(1,6,5,4)      =      0.465487    -0.000000    -0.006827     0.458660
	   49 D(1,6,5,11)     =   -178.921322     0.000000     0.005532  -178.915790
	   50 *D(1,7,13,17)   =   -169.999978    -0.000000    -0.000000  -169.999978
	   51 D(1,7,13,18)    =     10.193672     0.000000     0.082067    10.275738
	   52 D(1,7,14,15)    =   -173.415914     0.000000     0.016857  -173.399058
	   53 D(1,7,14,16)    =     10.531911     0.000000     0.071096    10.603007
	   54 D(2,1,6,5)      =     -0.269049     0.000000     0.009648    -0.259401
	   55 D(2,1,6,12)     =   -177.174722     0.000000     0.014154  -177.160567
	   56 D(2,1,7,13)     =   -143.546885    -0.000000    -0.078772  -143.625658
	   57 D(2,1,7,14)     =     36.647545    -0.000000    -0.069334    36.578211
	   58 D(2,3,4,5)      =     -0.230038     0.000000     0.011076    -0.218962
	   59 D(2,3,4,10)     =    179.787435    -0.000000    -0.006287   179.781149
	   60 D(3,2,1,6)      =     -0.176779    -0.000000    -0.002137    -0.178916
	   61 D(3,2,1,7)      =    179.891851     0.000000     0.013742   179.905593
	   62 D(3,4,5,6)      =     -0.219863    -0.000000    -0.003500    -0.223363
	   63 D(3,4,5,11)     =    179.163990    -0.000000    -0.015913   179.148077
	   64 D(4,3,2,8)      =    177.366320     0.000000     0.008417   177.374737
	   65 D(4,5,6,12)     =    177.395342    -0.000000    -0.011566   177.383776
	   66 D(5,4,3,9)      =    179.124410     0.000000     0.012658   179.137068
	   67 D(5,6,1,7)      =    179.662348    -0.000000    -0.006228   179.656120
	   68 D(6,1,2,8)      =   -177.095917    -0.000000    -0.019086  -177.115003
	   69 D(6,1,7,13)     =     36.521566    -0.000000    -0.062936    36.458629
	   70 D(6,1,7,14)     =   -143.284004    -0.000000    -0.053498  -143.337502
	   71 D(6,5,4,10)     =    179.762663     0.000000     0.013863   179.776527
	   72 D(7,1,2,8)      =      2.972713    -0.000000    -0.003207     2.969505
	   73 D(7,1,6,12)     =      2.756675     0.000000    -0.001721     2.754954
	   74 D(8,2,3,9)      =     -1.991172     0.000000     0.006854    -1.984317
	   75 D(9,3,4,10)     =     -0.858117    -0.000000    -0.004705    -0.862822
	   76 D(10,4,5,11)    =     -0.853483     0.000000     0.001450    -0.852033
	   77 D(11,5,6,12)    =     -1.991467    -0.000000     0.000792    -1.990674
	   78 D(13,7,14,15)   =      6.778601     0.000000     0.026283     6.804884
	   79 D(13,7,14,16)   =   -169.273574     0.000000     0.080522  -169.193052
	   80 D(14,7,13,17)   =      9.805374    -0.000000    -0.009441     9.795934
	   81 D(14,7,13,18)   =   -170.000976     0.000000     0.072626  -169.928350
	 ---------------------------------------------------------------------------
	Successfully symmetrized geometry.

  ==> Convergence Check <==

  Measures of convergence in internal coordinates in au.
  Criteria marked as inactive (o), active & met (*), and active & unmet ( ).
  ---------------------------------------------------------------------------------------------
   Step     Total Energy     Delta E     MAX Force     RMS Force      MAX Disp      RMS Disp   
  ---------------------------------------------------------------------------------------------
    Convergence Criteria    1.00e-06 *    3.00e-04 *             o    1.20e-03 *             o
  ---------------------------------------------------------------------------------------------
      4    -381.47045935   -7.41e-07 *    7.40e-05 *    1.58e-05 o    1.43e-03      4.17e-04 o  ~
  ---------------------------------------------------------------------------------------------


  **** Optimization is complete! (in 4 steps) ****

  ==> Optimization Summary <==

  Measures of convergence in internal coordinates in au.
  --------------------------------------------------------------------------------------------------------------- ~
   Step         Total Energy             Delta E       MAX Force       RMS Force        MAX Disp        RMS Disp  ~
  --------------------------------------------------------------------------------------------------------------- ~
      1    -381.470420109202   -381.470420109202      0.00123668      0.00032393      0.02641514      0.00611052  ~
      2    -381.470446562161     -0.000026452959      0.00052906      0.00013837      0.01937689      0.00310584  ~
      3    -381.470458614067     -0.000012051906      0.00024861      0.00005391      0.00297448      0.00069864  ~
      4    -381.470459354692     -0.000000740625      0.00007395      0.00001577      0.00143234      0.00041679  ~
  --------------------------------------------------------------------------------------------------------------- ~

	Writing optimization data to binary file.
	Final energy is   -381.4704593546922
	Final (previous) structure:
	Cartesian Geometry (in Angstrom)
	    C     0.0028464483  -0.0012902481  -0.1796634546
	    C     0.0321957311   1.2180034935   0.5230129160
	    C     0.0252733992   1.2112544477   1.9142141838
	    C    -0.0017199408  -0.0023969874   2.6082576471
	    C    -0.0267610157  -1.2154003659   1.9131051356
	    C    -0.0295647365  -1.2211179693   0.5218169178
	    C     0.0075553379  -0.0012109223  -1.6463106239
	    H     0.0098518882   2.1633098683  -0.0119278012
	    H     0.0303293716   2.1507898499   2.4571649326
	    H    -0.0035322611  -0.0028663963   3.6939140418
	    H    -0.0339890182  -2.1554026383   2.4552145957
	    H    -0.0061916589  -2.1662024402  -0.0134307249
	    N    -0.6984230453  -0.9095523762  -2.3138207271
	    N     0.7213867107   0.9054406963  -2.3078268337
	    H     0.6813352551   1.0084340595  -3.3151169279
	    H     1.3814618556   1.4887545824  -1.8105203737
	    H    -0.6144677100  -1.0461319032  -3.3143284875
	    H    -1.3562986112  -1.4990957505  -1.8210374159
	Saving final (previous) structure.
	Removing binary optimization data file.
			--------------------------
			 OPTKING Finished Execution 
			--------------------------

    Final optimized geometry and variables:
    Molecular point group: c1
    Full point group: C1

    Geometry (in Angstrom), charge = 1, multiplicity = 1:

    C            0.002846448342    -0.001290248141    -0.179663454614
    C            0.032195731053     1.218003493542     0.523012916047
    C            0.025273399162     1.211254447716     1.914214183781
    C           -0.001719940805    -0.002396987389     2.608257647051
    C           -0.026761015681    -1.215400365926     1.913105135643
    C           -0.029564736519    -1.221117969272     0.521816917755
    C            0.007555337917    -0.001210922296    -1.646310623879
    H            0.009851888166     2.163309868281    -0.011927801185
    H            0.030329371554     2.150789849859     2.457164932554
    H           -0.003532261109    -0.002866396273     3.693914041823
    H           -0.033989018161    -2.155402638270     2.455214595719
    H           -0.006191658862    -2.166202440163    -0.013430724936
    N           -0.698423045324    -0.909552376193    -2.313820727095
    N            0.721386710674     0.905440696286    -2.307826833679
    H            0.681335255117     1.008434059474    -3.315116927903
    H            1.381461855637     1.488754582399    -1.810520373715
    H           -0.614467709975    -1.046131903177    -3.314328487465
    H           -1.356298611187    -1.499095750459    -1.821037415901

	Removing binary optimization data file.
	Cleaning optimization helper files.


Properties will be evaluated at   0.000000,   0.000000,   0.000000 [a0]
OEProp: No title given, name of density matrix used for the following properties is 'SCF density'
  Nuclear Dipole Moment: [e a0]
     X:     0.5824      Y:    -0.3026      Z:    -0.1984

  Electronic Dipole Moment: [e a0]
     X:    -0.5381      Y:     0.2748      Z:    -2.0500

  Dipole Moment: [e a0]
     X:     0.0443      Y:    -0.0278      Z:    -2.2484     Total:     2.2491

  Dipole Moment: [D]
     X:     0.1125      Y:    -0.0706      Z:    -5.7150     Total:     5.7165

  Quadrupole Moment: [D A]
    XX:   -49.6005     YY:   -37.7446     ZZ:   -13.3151
    XY:     6.3675     XZ:    -0.3837     YZ:     0.2487

  Traceless Quadrupole Moment: [D A]
    XX:   -16.0471     YY:    -4.1912     ZZ:    20.2383
    XY:     6.3675     XZ:    -0.3837     YZ:     0.2487

  Mulliken Charges: (a.u.)
   Center  Symbol    Alpha    Beta     Spin     Total
       1     C     2.95696  2.95696  0.00000  0.08609
       2     C     3.08197  3.08197  0.00000 -0.16393
       3     C     3.06248  3.06248  0.00000 -0.12495
       4     C     3.05142  3.05142  0.00000 -0.10285
       5     C     3.06249  3.06249  0.00000 -0.12498
       6     C     3.08186  3.08186  0.00000 -0.16372
       7     C     2.72221  2.72221  0.00000  0.55558
       8     H     0.41408  0.41408  0.00000  0.17184
       9     H     0.40539  0.40539  0.00000  0.18921
      10     H     0.40383  0.40383  0.00000  0.19234
      11     H     0.40542  0.40542  0.00000  0.18915
      12     H     0.41453  0.41453  0.00000  0.17094
      13     N     3.86358  3.86358  0.00000 -0.72715
      14     N     3.86311  3.86311  0.00000 -0.72623
      15     H     0.30562  0.30562  0.00000  0.38876
      16     H     0.29973  0.29973  0.00000  0.40054
      17     H     0.30560  0.30560  0.00000  0.38880
      18     H     0.29971  0.29971  0.00000  0.40057

   Total alpha = 32.00000, Total beta = 32.00000, Total charge =  1.00000


    Psi4 stopped on: Saturday, 29 September 2018 08:27PM
    Psi4 wall time for execution: 0:02:35.05

*** Psi4 exiting successfully. Buy a developer a beer!
