
    -----------------------------------------------------------------------
          Psi4: An Open-Source Ab Initio Electronic Structure Package
                               Psi4 1.2.1 release

                         Git: Rev {HEAD} 406f4de 


    R. M. Parrish, L. A. Burns, D. G. A. Smith, A. C. Simmonett,
    A. E. DePrince III, E. G. Hohenstein, U. Bozkaya, A. Yu. Sokolov,
    R. Di Remigio, R. M. Richard, J. F. Gonthier, A. M. James,
    H. R. McAlexander, A. Kumar, M. Saitow, X. Wang, B. P. Pritchard,
    P. Verma, H. F. Schaefer III, K. Patkowski, R. A. King, E. F. Valeev,
    F. A. Evangelista, J. M. Turney, T. D. Crawford, and C. D. Sherrill,
    J. Chem. Theory Comput. 13(7) pp 3185--3197 (2017).
    (doi: 10.1021/acs.jctc.7b00174)


                         Additional Contributions by
    P. Kraus, H. Kruse, M. H. Lechner, M. C. Schieber, and R. A. Shaw

    -----------------------------------------------------------------------


    Psi4 started on: Saturday, 29 September 2018 04:49PM

    Process ID: 4526
    Host:       loro.prib.upf.edu
    PSIDATADIR: /shared/joao/test_parameterize/miniconda3/share/psi4
    Memory:     500.0 MiB
    Threads:    1
    
  ==> Input File <==

--------------------------------------------------------------------------
set_num_threads(1)
set_memory('5348 MB')

set { scf_mem_safety_factor 0.7 }

set { reference rks }
set { basis cc-pVDZ }

molecule MOL {
    0 1
    noreorient
    nocom
    symmetry c1
    O    1.141000   0.017000   0.083000
    C    2.558000   0.086000  -0.005000
    C    3.192000  -0.789000   1.067000
    O    2.463759  -2.003666   1.199740
    H    0.789000   0.590000  -0.620000
    H    2.874000   1.128000   0.115000
    H    2.871000  -0.243000  -1.001000
    H    3.200213  -0.268513   2.029789
    H    4.230471  -1.021570   0.805529
    H    2.909309  -2.520747   1.893280
}

set optking { frozen_dihedral = (" 1 2 3 4 ") }

energy, wfn = energy('B3LYP-D3', return_wfn=True)

import os
os.chdir(os.environ['HTMD_PSI4_WORKDIR'])

oeprop(wfn, 'DIPOLE', 'QUADRUPOLE', 'MULLIKEN_CHARGES')

with open('psi4out.xyz', 'w') as f:
    f.write('10 ' )
    f.write('%.12f\n' % energy)
    f.write(MOL.save_string_xyz())
--------------------------------------------------------------------------
  Threads set to 1 by Python driver.

  Memory set to   4.981 GiB by Python driver.

*** tstart() called on loro.prib.upf.edu
*** at Sat Sep 29 16:49:34 2018

   => Loading Basis Set <=

    Name: CC-PVDZ
    Role: ORBITAL
    Keyword: BASIS
    atoms 1, 4 entry O          line   198 file /shared/joao/test_parameterize/miniconda3/share/psi4/basis/cc-pvdz.gbs 
    atoms 2-3  entry C          line   138 file /shared/joao/test_parameterize/miniconda3/share/psi4/basis/cc-pvdz.gbs 
    atoms 5-10 entry H          line    22 file /shared/joao/test_parameterize/miniconda3/share/psi4/basis/cc-pvdz.gbs 


         ---------------------------------------------------------
                                   SCF
            by Justin Turney, Rob Parrish, Andy Simmonett
                             and Daniel Smith
                              RKS Reference
                        1 Threads,   5100 MiB Core
         ---------------------------------------------------------

  ==> Geometry <==

    Molecular point group: c1
    Full point group: C1

    Geometry (in Angstrom), charge = 0, multiplicity = 1:

       Center              X                  Y                   Z               Mass       
    ------------   -----------------  -----------------  -----------------  -----------------
         O            1.141000000000     0.017000000000     0.083000000000    15.994914619560
         C            2.558000000000     0.086000000000    -0.005000000000    12.000000000000
         C            3.192000000000    -0.789000000000     1.067000000000    12.000000000000
         O            2.463759000000    -2.003666000000     1.199740000000    15.994914619560
         H            0.789000000000     0.590000000000    -0.620000000000     1.007825032070
         H            2.874000000000     1.128000000000     0.115000000000     1.007825032070
         H            2.871000000000    -0.243000000000    -1.001000000000     1.007825032070
         H            3.200213000000    -0.268513000000     2.029789000000     1.007825032070
         H            4.230471000000    -1.021570000000     0.805529000000     1.007825032070
         H            2.909309000000    -2.520747000000     1.893280000000     1.007825032070

  Running in c1 symmetry.

  Rotational constants: A =      0.30951  B =      0.03735  C =      0.03405 [cm^-1]
  Rotational constants: A =   9278.73314  B =   1119.77694  C =   1020.64366 [MHz]
  Nuclear repulsion =  132.526752946922414

  Charge       = 0
  Multiplicity = 1
  Electrons    = 34
  Nalpha       = 17
  Nbeta        = 17

  ==> Algorithm <==

  SCF Algorithm Type is DF.
  DIIS enabled.
  MOM disabled.
  Fractional occupation disabled.
  Guess Type is SAD.
  Energy threshold   = 1.00e-06
  Density threshold  = 1.00e-06
  Integral threshold = 0.00e+00

  ==> Primary Basis <==

  Basis Set: CC-PVDZ
    Blend: CC-PVDZ
    Number of shells: 42
    Number of basis function: 86
    Number of Cartesian functions: 90
    Spherical Harmonics?: true
    Max angular momentum: 2

  ==> DFT Potential <==

   => Composite Functional: B3LYP-D3ZERO <= 

    B3LYP-d3zero Hyb-GGA Exchange-Correlation Functional

    P. J. Stephens, F. J. Devlin, C. F. Chabalowski, and M. J. Frisch, J. Phys. Chem. 98, 11623 (1994)

    Deriv               =              1
    GGA                 =           TRUE
    Meta                =          FALSE

    Exchange Hybrid     =           TRUE
    MP2 Hybrid          =          FALSE

   => Exchange Functionals <=

    0.0800   Slater exchange
    0.7200         Becke 88

   => Exact (HF) Exchange <=

    0.2000               HF 

   => Correlation Functionals <=

    0.1900   Vosko, Wilk & Nusair (VWN5_RPA)
    0.8100   Lee, Yang & Parr

   => Molecular Quadrature <=

    Radial Scheme       =       TREUTLER
    Pruning Scheme      =           FLAT
    Nuclear Scheme      =       TREUTLER

    BS radius alpha     =              1
    Pruning alpha       =              1
    Radial Points       =             75
    Spherical Points    =            302
    Total Points        =         222575
    Total Blocks        =           1737
    Max Points          =            256
    Max Functions       =             86

   => -D3ZERO: Empirical Dispersion <=

    Grimme's -D3 (zero-damping) Dispersion Correction
    Grimme S.; Antony J.; Ehrlich S.; Krieg H. (2010), J. Chem. Phys., 132: 154104

        S6 =   1.000000E+00
        S8 =   1.703000E+00
       SR6 =   1.261000E+00
       SR8 =   1.000000E+00
    ALPHA6 =   1.400000E+01

   => Loading Basis Set <=

    Name: (CC-PVDZ AUX)
    Role: JKFIT
    Keyword: DF_BASIS_SCF
    atoms 1, 4 entry O          line   221 file /shared/joao/test_parameterize/miniconda3/share/psi4/basis/cc-pvdz-jkfit.gbs 
    atoms 2-3  entry C          line   121 file /shared/joao/test_parameterize/miniconda3/share/psi4/basis/cc-pvdz-jkfit.gbs 
    atoms 5-10 entry H          line    51 file /shared/joao/test_parameterize/miniconda3/share/psi4/basis/cc-pvdz-jkfit.gbs 

  ==> Pre-Iterations <==

   -------------------------------------------------------
    Irrep   Nso     Nmo     Nalpha   Nbeta   Ndocc  Nsocc
   -------------------------------------------------------
     A         86      86       0       0       0       0
   -------------------------------------------------------
    Total      86      86      17      17      17       0
   -------------------------------------------------------

  ==> Integral Setup <==

  DFHelper Memory: AOs need 0.030 [GiB]; user supplied 3.486 [GiB]. Using in-core AOs.

  ==> MemDFJK: Density-Fitted J/K Matrices <==

    J tasked:                   Yes
    K tasked:                   Yes
    wK tasked:                   No
    OpenMP threads:               1
    Memory (MB):               3570
    Algorithm:                 Core
    Schwarz Cutoff:           1E-12
    Mask sparsity (%):       0.0000
    Fitting Condition:        1E-12

   => Auxiliary Basis Set <=

  Basis Set: (CC-PVDZ AUX)
    Blend: CC-PVDZ-JKFIT
    Number of shells: 150
    Number of basis function: 418
    Number of Cartesian functions: 474
    Spherical Harmonics?: true
    Max angular momentum: 3

  Minimum eigenvalue in the overlap matrix is 5.0767920683E-03.
  Using Symmetric Orthogonalization.

  SCF Guess: Superposition of Atomic Densities via on-the-fly atomic UHF.

  ==> Iterations <==

                           Total Energy        Delta E     RMS |[F,P]|

   @DF-RKS iter   0:  -230.85437738683066   -2.30854e+02   3.94851e-02 
   @DF-RKS iter   1:  -230.13358422883206    7.20793e-01   6.22479e-03 
   @DF-RKS iter   2:  -230.01477508971504    1.18809e-01   9.14729e-03 DIIS
   @DF-RKS iter   3:  -230.25016068472019   -2.35386e-01   6.65072e-04 DIIS
   @DF-RKS iter   4:  -230.25125875360808   -1.09807e-03   3.32160e-04 DIIS
   @DF-RKS iter   5:  -230.25164125770007   -3.82504e-04   5.79589e-05 DIIS
   @DF-RKS iter   6:  -230.25165258992351   -1.13322e-05   6.48505e-06 DIIS
   @DF-RKS iter   7:  -230.25165269958066   -1.09657e-07   3.41678e-06 DIIS
   @DF-RKS iter   8:  -230.25165273297344   -3.33928e-08   8.73788e-07 DIIS

  ==> Post-Iterations <==

    Orbital Energies [Eh]
    ---------------------

    Doubly Occupied:                                                      

       1A    -19.123613     2A    -19.123573     3A    -10.227002  
       4A    -10.226814     5A     -1.016440     6A     -0.996465  
       7A     -0.733988     8A     -0.600783     9A     -0.523860  
      10A     -0.491311    11A     -0.448372    12A     -0.414234  
      13A     -0.398869    14A     -0.335086    15A     -0.320397  
      16A     -0.261215    17A     -0.253317  

    Virtual:                                                              

      18A      0.042492    19A      0.073312    20A      0.092516  
      21A      0.109326    22A      0.135301    23A      0.161782  
      24A      0.179939    25A      0.234664    26A      0.249481  
      27A      0.456862    28A      0.461693    29A      0.498287  
      30A      0.522873    31A      0.550571    32A      0.552576  
      33A      0.614921    34A      0.627362    35A      0.643921  
      36A      0.649221    37A      0.674179    38A      0.696951  
      39A      0.854832    40A      0.890854    41A      0.919335  
      42A      0.989715    43A      1.005970    44A      1.042009  
      45A      1.067139    46A      1.175898    47A      1.195013  
      48A      1.246164    49A      1.251440    50A      1.341986  
      51A      1.347107    52A      1.404499    53A      1.489060  
      54A      1.529961    55A      1.605854    56A      1.610575  
      57A      1.612027    58A      1.621794    59A      1.630541  
      60A      1.714678    61A      1.740353    62A      1.743369  
      63A      1.860201    64A      1.883622    65A      1.960376  
      66A      1.990828    67A      2.016285    68A      2.018480  
      69A      2.134130    70A      2.180053    71A      2.189898  
      72A      2.287115    73A      2.406960    74A      2.414639  
      75A      2.518752    76A      2.527852    77A      2.912876  
      78A      2.969516    79A      3.002961    80A      3.015915  
      81A      3.050982    82A      3.167979    83A      3.204235  
      84A      3.212643    85A      3.665789    86A      3.736778  

    Final Occupation by Irrep:
              A 
    DOCC [    17 ]

  Energy converged.

  @DF-RKS Final Energy:  -230.25165273297344

   => Energetics <=

    Nuclear Repulsion Energy =            132.5267529469224144
    One-Electron Energy =                -576.9350870432210741
    Two-Electron Energy =                 238.6979271466117325
    DFT Exchange-Correlation Energy =     -24.5370599532865299
    Empirical Dispersion Energy =          -0.0041858300000000
    VV10 Nonlocal Energy =                  0.0000000000000000
    Total Energy =                       -230.2516527329734402



Properties will be evaluated at   0.000000,   0.000000,   0.000000 [a0]

Properties computed using the SCF density matrix

  Nuclear Dipole Moment: [e a0]
     X:   151.5788      Y:   -42.4190      Z:    37.5234

  Electronic Dipole Moment: [e a0]
     X:  -150.8676      Y:    42.8454      Z:   -37.5968

  Dipole Moment: [e a0]
     X:     0.7113      Y:     0.4264      Z:    -0.0734     Total:     0.8325

  Dipole Moment: [D]
     X:     1.8078      Y:     1.0838      Z:    -0.1866     Total:     2.1161


*** tstop() called on loro.prib.upf.edu at Sat Sep 29 16:49:50 2018
Module time:
	user time   =      12.97 seconds =       0.22 minutes
	system time =       0.20 seconds =       0.00 minutes
	total time  =         16 seconds =       0.27 minutes
Total time:
	user time   =      12.97 seconds =       0.22 minutes
	system time =       0.20 seconds =       0.00 minutes
	total time  =         16 seconds =       0.27 minutes


Properties will be evaluated at   0.000000,   0.000000,   0.000000 [a0]
OEProp: No title given, name of density matrix used for the following properties is 'SCF density'
  Nuclear Dipole Moment: [e a0]
     X:   151.5788      Y:   -42.4190      Z:    37.5234

  Electronic Dipole Moment: [e a0]
     X:  -150.8676      Y:    42.8454      Z:   -37.5968

  Dipole Moment: [e a0]
     X:     0.7113      Y:     0.4264      Z:    -0.0734     Total:     0.8325

  Dipole Moment: [D]
     X:     1.8078      Y:     1.0838      Z:    -0.1866     Total:     2.1161

  Quadrupole Moment: [D A]
    XX:   -15.7302     YY:   -23.6096     ZZ:   -21.0529
    XY:    -1.5474     XZ:     3.6806     YZ:    -3.4146

  Traceless Quadrupole Moment: [D A]
    XX:     4.4007     YY:    -3.4787     ZZ:    -0.9220
    XY:    -1.5474     XZ:     3.6806     YZ:    -3.4146

  Mulliken Charges: (a.u.)
   Center  Symbol    Alpha    Beta     Spin     Total
       1     O     4.13185  4.13185  0.00000 -0.26369
       2     C     2.93414  2.93414  0.00000  0.13172
       3     C     2.93429  2.93429  0.00000  0.13141
       4     O     4.13207  4.13207  0.00000 -0.26413
       5     H     0.43078  0.43078  0.00000  0.13844
       6     H     0.50300  0.50300  0.00000 -0.00600
       7     H     0.50019  0.50019  0.00000 -0.00037
       8     H     0.50007  0.50007  0.00000 -0.00014
       9     H     0.50289  0.50289  0.00000 -0.00578
      10     H     0.43073  0.43073  0.00000  0.13854

   Total alpha = 17.00000, Total beta = 17.00000, Total charge = -0.00000


    Psi4 stopped on: Saturday, 29 September 2018 04:49PM
    Psi4 wall time for execution: 0:00:16.37

*** Psi4 exiting successfully. Buy a developer a beer!
