
    -----------------------------------------------------------------------
          Psi4: An Open-Source Ab Initio Electronic Structure Package
                               Psi4 1.2.1 release

                         Git: Rev {HEAD} 406f4de 


    R. M. Parrish, L. A. Burns, D. G. A. Smith, A. C. Simmonett,
    A. E. DePrince III, E. G. Hohenstein, U. Bozkaya, A. Yu. Sokolov,
    R. Di Remigio, R. M. Richard, J. F. Gonthier, A. M. James,
    H. R. McAlexander, A. Kumar, M. Saitow, X. Wang, B. P. Pritchard,
    P. Verma, H. F. Schaefer III, K. Patkowski, R. A. King, E. F. Valeev,
    F. A. Evangelista, J. M. Turney, T. D. Crawford, and C. D. Sherrill,
    J. Chem. Theory Comput. 13(7) pp 3185--3197 (2017).
    (doi: 10.1021/acs.jctc.7b00174)


                         Additional Contributions by
    P. Kraus, H. Kruse, M. H. Lechner, M. C. Schieber, and R. A. Shaw

    -----------------------------------------------------------------------


    Psi4 started on: Saturday, 29 September 2018 04:46PM

    Process ID: 2748
    Host:       loro.prib.upf.edu
    PSIDATADIR: /shared/joao/test_parameterize/miniconda3/share/psi4
    Memory:     500.0 MiB
    Threads:    1
    
  ==> Input File <==

--------------------------------------------------------------------------
set_num_threads(1)
set_memory('5348 MB')

set { scf_mem_safety_factor 0.7 }

set { reference rks }
set { basis cc-pVDZ }

molecule MOL {
    0 1
    noreorient
    nocom
    symmetry c1
    C    0.940800  -0.041500  -0.056200
    C    2.276600  -0.041500  -0.056200
    H    0.380900   0.578300  -0.749400
    H    0.380900  -0.661400   0.637000
    H    2.836500   0.578300  -0.749400
    H    2.836500  -0.661400   0.637000
}

set optking { frozen_dihedral = (" 3 1 2 5 ") }

energy, wfn = energy('B3LYP-D3', return_wfn=True)

import os
os.chdir(os.environ['HTMD_PSI4_WORKDIR'])

oeprop(wfn, 'DIPOLE', 'QUADRUPOLE', 'MULLIKEN_CHARGES')

with open('psi4out.xyz', 'w') as f:
    f.write('6 ' )
    f.write('%.12f\n' % energy)
    f.write(MOL.save_string_xyz())
--------------------------------------------------------------------------
  Threads set to 1 by Python driver.

  Memory set to   4.981 GiB by Python driver.

*** tstart() called on loro.prib.upf.edu
*** at Sat Sep 29 16:46:52 2018

   => Loading Basis Set <=

    Name: CC-PVDZ
    Role: ORBITAL
    Keyword: BASIS
    atoms 1-2 entry C          line   138 file /shared/joao/test_parameterize/miniconda3/share/psi4/basis/cc-pvdz.gbs 
    atoms 3-6 entry H          line    22 file /shared/joao/test_parameterize/miniconda3/share/psi4/basis/cc-pvdz.gbs 


         ---------------------------------------------------------
                                   SCF
            by Justin Turney, Rob Parrish, Andy Simmonett
                             and Daniel Smith
                              RKS Reference
                        1 Threads,   5100 MiB Core
         ---------------------------------------------------------

  ==> Geometry <==

    Molecular point group: c1
    Full point group: C1

    Geometry (in Angstrom), charge = 0, multiplicity = 1:

       Center              X                  Y                   Z               Mass       
    ------------   -----------------  -----------------  -----------------  -----------------
         C            0.940800000000    -0.041500000000    -0.056200000000    12.000000000000
         C            2.276600000000    -0.041500000000    -0.056200000000    12.000000000000
         H            0.380900000000     0.578300000000    -0.749400000000     1.007825032070
         H            0.380900000000    -0.661400000000     0.637000000000     1.007825032070
         H            2.836500000000     0.578300000000    -0.749400000000     1.007825032070
         H            2.836500000000    -0.661400000000     0.637000000000     1.007825032070

  Running in c1 symmetry.

  Rotational constants: A =      4.80067  B =      0.18843  C =      0.18141 [cm^-1]
  Rotational constants: A = 143920.41377  B =   5649.09684  C =   5438.61456 [MHz]
  Nuclear repulsion =   33.320161404555137

  Charge       = 0
  Multiplicity = 1
  Electrons    = 16
  Nalpha       = 8
  Nbeta        = 8

  ==> Algorithm <==

  SCF Algorithm Type is DF.
  DIIS enabled.
  MOM disabled.
  Fractional occupation disabled.
  Guess Type is SAD.
  Energy threshold   = 1.00e-06
  Density threshold  = 1.00e-06
  Integral threshold = 0.00e+00

  ==> Primary Basis <==

  Basis Set: CC-PVDZ
    Blend: CC-PVDZ
    Number of shells: 24
    Number of basis function: 48
    Number of Cartesian functions: 50
    Spherical Harmonics?: true
    Max angular momentum: 2

  ==> DFT Potential <==

   => Composite Functional: B3LYP-D3ZERO <= 

    B3LYP-d3zero Hyb-GGA Exchange-Correlation Functional

    P. J. Stephens, F. J. Devlin, C. F. Chabalowski, and M. J. Frisch, J. Phys. Chem. 98, 11623 (1994)

    Deriv               =              1
    GGA                 =           TRUE
    Meta                =          FALSE

    Exchange Hybrid     =           TRUE
    MP2 Hybrid          =          FALSE

   => Exchange Functionals <=

    0.0800   Slater exchange
    0.7200         Becke 88

   => Exact (HF) Exchange <=

    0.2000               HF 

   => Correlation Functionals <=

    0.1900   Vosko, Wilk & Nusair (VWN5_RPA)
    0.8100   Lee, Yang & Parr

   => Molecular Quadrature <=

    Radial Scheme       =       TREUTLER
    Pruning Scheme      =           FLAT
    Nuclear Scheme      =       TREUTLER

    BS radius alpha     =              1
    Pruning alpha       =              1
    Radial Points       =             75
    Spherical Points    =            302
    Total Points        =         133224
    Total Blocks        =           1094
    Max Points          =            255
    Max Functions       =             48

   => -D3ZERO: Empirical Dispersion <=

    Grimme's -D3 (zero-damping) Dispersion Correction
    Grimme S.; Antony J.; Ehrlich S.; Krieg H. (2010), J. Chem. Phys., 132: 154104

        S6 =   1.000000E+00
        S8 =   1.703000E+00
       SR6 =   1.261000E+00
       SR8 =   1.000000E+00
    ALPHA6 =   1.400000E+01

   => Loading Basis Set <=

    Name: (CC-PVDZ AUX)
    Role: JKFIT
    Keyword: DF_BASIS_SCF
    atoms 1-2 entry C          line   121 file /shared/joao/test_parameterize/miniconda3/share/psi4/basis/cc-pvdz-jkfit.gbs 
    atoms 3-6 entry H          line    51 file /shared/joao/test_parameterize/miniconda3/share/psi4/basis/cc-pvdz-jkfit.gbs 

  ==> Pre-Iterations <==

   -------------------------------------------------------
    Irrep   Nso     Nmo     Nalpha   Nbeta   Ndocc  Nsocc
   -------------------------------------------------------
     A         48      48       0       0       0       0
   -------------------------------------------------------
    Total      48      48       8       8       8       0
   -------------------------------------------------------

  ==> Integral Setup <==

  DFHelper Memory: AOs need 0.005 [GiB]; user supplied 3.486 [GiB]. Using in-core AOs.

  ==> MemDFJK: Density-Fitted J/K Matrices <==

    J tasked:                   Yes
    K tasked:                   Yes
    wK tasked:                   No
    OpenMP threads:               1
    Memory (MB):               3570
    Algorithm:                 Core
    Schwarz Cutoff:           1E-12
    Mask sparsity (%):       0.0000
    Fitting Condition:        1E-12

   => Auxiliary Basis Set <=

  Basis Set: (CC-PVDZ AUX)
    Blend: CC-PVDZ-JKFIT
    Number of shells: 84
    Number of basis function: 232
    Number of Cartesian functions: 262
    Spherical Harmonics?: true
    Max angular momentum: 3

  Minimum eigenvalue in the overlap matrix is 4.8433344787E-03.
  Using Symmetric Orthogonalization.

  SCF Guess: Superposition of Atomic Densities via on-the-fly atomic UHF.

  ==> Iterations <==

                           Total Energy        Delta E     RMS |[F,P]|

   @DF-RKS iter   0:   -78.93706725637779   -7.89371e+01   4.98705e-02 
   @DF-RKS iter   1:   -78.55076733894735    3.86300e-01   5.42234e-03 
   @DF-RKS iter   2:   -78.54821903997919    2.54830e-03   5.75215e-03 DIIS
   @DF-RKS iter   3:   -78.59178166040175   -4.35626e-02   8.14294e-05 DIIS
   @DF-RKS iter   4:   -78.59179492242997   -1.32620e-05   1.92941e-05 DIIS
   @DF-RKS iter   5:   -78.59179548891966   -5.66490e-07   2.66925e-06 DIIS
   @DF-RKS iter   6:   -78.59179550397280   -1.50531e-08   2.40556e-07 DIIS

  ==> Post-Iterations <==

    Orbital Energies [Eh]
    ---------------------

    Doubly Occupied:                                                      

       1A    -10.188232     2A    -10.187453     3A     -0.760290  
       4A     -0.578758     5A     -0.469326     6A     -0.416594  
       7A     -0.356820     8A     -0.272953  

    Virtual:                                                              

       9A      0.007158    10A      0.080641    11A      0.105349  
      12A      0.114006    13A      0.185478    14A      0.307918  
      15A      0.404405    16A      0.429067    17A      0.478232  
      18A      0.496179    19A      0.551998    20A      0.568226  
      21A      0.646973    22A      0.680710    23A      0.722454  
      24A      0.803820    25A      0.903065    26A      1.021810  
      27A      1.023264    28A      1.027441    29A      1.048726  
      30A      1.339933    31A      1.458570    32A      1.478684  
      33A      1.550307    34A      1.582479    35A      1.595795  
      36A      1.640835    37A      1.697198    38A      1.705551  
      39A      1.930203    40A      1.939414    41A      2.082956  
      42A      2.118706    43A      2.195802    44A      2.312234  
      45A      2.381510    46A      2.450989    47A      2.785348  
      48A      3.032233  

    Final Occupation by Irrep:
              A 
    DOCC [     8 ]

  Energy converged.

  @DF-RKS Final Energy:   -78.59179550397280

   => Energetics <=

    Nuclear Repulsion Energy =             33.3201614045551366
    One-Electron Energy =                -170.2016968698468702
    Two-Electron Energy =                  68.2414042649693044
    DFT Exchange-Correlation Energy =      -9.9508181736503740
    Empirical Dispersion Energy =          -0.0008461300000000
    VV10 Nonlocal Energy =                  0.0000000000000000
    Total Energy =                        -78.5917955039728042



Properties will be evaluated at   0.000000,   0.000000,   0.000000 [a0]

Properties computed using the SCF density matrix

  Nuclear Dipole Moment: [e a0]
     X:    48.6400      Y:    -1.2552      Z:    -1.6992

  Electronic Dipole Moment: [e a0]
     X:   -48.6400      Y:     1.2551      Z:     1.6992

  Dipole Moment: [e a0]
     X:    -0.0000      Y:    -0.0000      Z:    -0.0000     Total:     0.0000

  Dipole Moment: [D]
     X:    -0.0000      Y:    -0.0000      Z:    -0.0001     Total:     0.0001


*** tstop() called on loro.prib.upf.edu at Sat Sep 29 16:46:57 2018
Module time:
	user time   =       3.76 seconds =       0.06 minutes
	system time =       0.09 seconds =       0.00 minutes
	total time  =          5 seconds =       0.08 minutes
Total time:
	user time   =       3.76 seconds =       0.06 minutes
	system time =       0.09 seconds =       0.00 minutes
	total time  =          5 seconds =       0.08 minutes


Properties will be evaluated at   0.000000,   0.000000,   0.000000 [a0]
OEProp: No title given, name of density matrix used for the following properties is 'SCF density'
  Nuclear Dipole Moment: [e a0]
     X:    48.6400      Y:    -1.2552      Z:    -1.6992

  Electronic Dipole Moment: [e a0]
     X:   -48.6400      Y:     1.2551      Z:     1.6992

  Dipole Moment: [e a0]
     X:    -0.0000      Y:    -0.0000      Z:    -0.0000     Total:     0.0000

  Dipole Moment: [D]
     X:    -0.0000      Y:    -0.0000      Z:    -0.0001     Total:     0.0001

  Quadrupole Moment: [D A]
    XX:   -12.3492     YY:   -13.8609     ZZ:   -13.5439
    XY:    -0.0001     XZ:    -0.0001     YZ:    -1.4141

  Traceless Quadrupole Moment: [D A]
    XX:     0.9022     YY:    -0.6096     ZZ:    -0.2926
    XY:    -0.0001     XZ:    -0.0001     YZ:    -1.4141

  Mulliken Charges: (a.u.)
   Center  Symbol    Alpha    Beta     Spin     Total
       1     C     3.01917  3.01917  0.00000 -0.03835
       2     C     3.01918  3.01918  0.00000 -0.03835
       3     H     0.49042  0.49042  0.00000  0.01917
       4     H     0.49041  0.49041  0.00000  0.01918
       5     H     0.49042  0.49042  0.00000  0.01917
       6     H     0.49041  0.49041  0.00000  0.01918

   Total alpha =  8.00000, Total beta =  8.00000, Total charge =  0.00000


    Psi4 stopped on: Saturday, 29 September 2018 04:46PM
    Psi4 wall time for execution: 0:00:05.42

*** Psi4 exiting successfully. Buy a developer a beer!
