
    -----------------------------------------------------------------------
          Psi4: An Open-Source Ab Initio Electronic Structure Package
                               Psi4 1.2.1 release

                         Git: Rev {HEAD} 406f4de 


    R. M. Parrish, L. A. Burns, D. G. A. Smith, A. C. Simmonett,
    A. E. DePrince III, E. G. Hohenstein, U. Bozkaya, A. Yu. Sokolov,
    R. Di Remigio, R. M. Richard, J. F. Gonthier, A. M. James,
    H. R. McAlexander, A. Kumar, M. Saitow, X. Wang, B. P. Pritchard,
    P. Verma, H. F. Schaefer III, K. Patkowski, R. A. King, E. F. Valeev,
    F. A. Evangelista, J. M. Turney, T. D. Crawford, and C. D. Sherrill,
    J. Chem. Theory Comput. 13(7) pp 3185--3197 (2017).
    (doi: 10.1021/acs.jctc.7b00174)


                         Additional Contributions by
    P. Kraus, H. Kruse, M. H. Lechner, M. C. Schieber, and R. A. Shaw

    -----------------------------------------------------------------------


    Psi4 started on: Saturday, 29 September 2018 04:49PM

    Process ID: 4185
    Host:       loro.prib.upf.edu
    PSIDATADIR: /shared/joao/test_parameterize/miniconda3/share/psi4
    Memory:     500.0 MiB
    Threads:    1
    
  ==> Input File <==

--------------------------------------------------------------------------
set_num_threads(1)
set_memory('5348 MB')

set { scf_mem_safety_factor 0.7 }

set { reference rks }
set { basis cc-pVDZ }

molecule MOL {
    0 1
    noreorient
    nocom
    symmetry c1
    O    1.141000   0.017000   0.083000
    C    2.558000   0.086000  -0.005000
    C    3.192000  -0.789000   1.067000
    O    4.448277  -0.248743   1.458485
    H    0.789000   0.590000  -0.620000
    H    2.874000   1.128000   0.115000
    H    2.871000  -0.243000  -1.001000
    H    3.340205  -1.806414   0.691712
    H    2.539746  -0.850023   1.945475
    H    4.806505  -0.843437   2.140318
}

set optking { frozen_dihedral = (" 1 2 3 4 ") }

energy, wfn = energy('B3LYP-D3', return_wfn=True)

import os
os.chdir(os.environ['HTMD_PSI4_WORKDIR'])

oeprop(wfn, 'DIPOLE', 'QUADRUPOLE', 'MULLIKEN_CHARGES')

with open('psi4out.xyz', 'w') as f:
    f.write('10 ' )
    f.write('%.12f\n' % energy)
    f.write(MOL.save_string_xyz())
--------------------------------------------------------------------------
  Threads set to 1 by Python driver.

  Memory set to   4.981 GiB by Python driver.

*** tstart() called on loro.prib.upf.edu
*** at Sat Sep 29 16:49:18 2018

   => Loading Basis Set <=

    Name: CC-PVDZ
    Role: ORBITAL
    Keyword: BASIS
    atoms 1, 4 entry O          line   198 file /shared/joao/test_parameterize/miniconda3/share/psi4/basis/cc-pvdz.gbs 
    atoms 2-3  entry C          line   138 file /shared/joao/test_parameterize/miniconda3/share/psi4/basis/cc-pvdz.gbs 
    atoms 5-10 entry H          line    22 file /shared/joao/test_parameterize/miniconda3/share/psi4/basis/cc-pvdz.gbs 


         ---------------------------------------------------------
                                   SCF
            by Justin Turney, Rob Parrish, Andy Simmonett
                             and Daniel Smith
                              RKS Reference
                        1 Threads,   5100 MiB Core
         ---------------------------------------------------------

  ==> Geometry <==

    Molecular point group: c1
    Full point group: C1

    Geometry (in Angstrom), charge = 0, multiplicity = 1:

       Center              X                  Y                   Z               Mass       
    ------------   -----------------  -----------------  -----------------  -----------------
         O            1.141000000000     0.017000000000     0.083000000000    15.994914619560
         C            2.558000000000     0.086000000000    -0.005000000000    12.000000000000
         C            3.192000000000    -0.789000000000     1.067000000000    12.000000000000
         O            4.448277000000    -0.248743000000     1.458485000000    15.994914619560
         H            0.789000000000     0.590000000000    -0.620000000000     1.007825032070
         H            2.874000000000     1.128000000000     0.115000000000     1.007825032070
         H            2.871000000000    -0.243000000000    -1.001000000000     1.007825032070
         H            3.340205000000    -1.806414000000     0.691712000000     1.007825032070
         H            2.539746000000    -0.850023000000     1.945475000000     1.007825032070
         H            4.806505000000    -0.843437000000     2.140318000000     1.007825032070

  Running in c1 symmetry.

  Rotational constants: A =      0.71683  B =      0.02586  C =      0.02541 [cm^-1]
  Rotational constants: A =  21489.97513  B =    775.21978  C =    761.62941 [MHz]
  Nuclear repulsion =  129.618400456857700

  Charge       = 0
  Multiplicity = 1
  Electrons    = 34
  Nalpha       = 17
  Nbeta        = 17

  ==> Algorithm <==

  SCF Algorithm Type is DF.
  DIIS enabled.
  MOM disabled.
  Fractional occupation disabled.
  Guess Type is SAD.
  Energy threshold   = 1.00e-06
  Density threshold  = 1.00e-06
  Integral threshold = 0.00e+00

  ==> Primary Basis <==

  Basis Set: CC-PVDZ
    Blend: CC-PVDZ
    Number of shells: 42
    Number of basis function: 86
    Number of Cartesian functions: 90
    Spherical Harmonics?: true
    Max angular momentum: 2

  ==> DFT Potential <==

   => Composite Functional: B3LYP-D3ZERO <= 

    B3LYP-d3zero Hyb-GGA Exchange-Correlation Functional

    P. J. Stephens, F. J. Devlin, C. F. Chabalowski, and M. J. Frisch, J. Phys. Chem. 98, 11623 (1994)

    Deriv               =              1
    GGA                 =           TRUE
    Meta                =          FALSE

    Exchange Hybrid     =           TRUE
    MP2 Hybrid          =          FALSE

   => Exchange Functionals <=

    0.0800   Slater exchange
    0.7200         Becke 88

   => Exact (HF) Exchange <=

    0.2000               HF 

   => Correlation Functionals <=

    0.1900   Vosko, Wilk & Nusair (VWN5_RPA)
    0.8100   Lee, Yang & Parr

   => Molecular Quadrature <=

    Radial Scheme       =       TREUTLER
    Pruning Scheme      =           FLAT
    Nuclear Scheme      =       TREUTLER

    BS radius alpha     =              1
    Pruning alpha       =              1
    Radial Points       =             75
    Spherical Points    =            302
    Total Points        =         222570
    Total Blocks        =           1729
    Max Points          =            256
    Max Functions       =             86

   => -D3ZERO: Empirical Dispersion <=

    Grimme's -D3 (zero-damping) Dispersion Correction
    Grimme S.; Antony J.; Ehrlich S.; Krieg H. (2010), J. Chem. Phys., 132: 154104

        S6 =   1.000000E+00
        S8 =   1.703000E+00
       SR6 =   1.261000E+00
       SR8 =   1.000000E+00
    ALPHA6 =   1.400000E+01

   => Loading Basis Set <=

    Name: (CC-PVDZ AUX)
    Role: JKFIT
    Keyword: DF_BASIS_SCF
    atoms 1, 4 entry O          line   221 file /shared/joao/test_parameterize/miniconda3/share/psi4/basis/cc-pvdz-jkfit.gbs 
    atoms 2-3  entry C          line   121 file /shared/joao/test_parameterize/miniconda3/share/psi4/basis/cc-pvdz-jkfit.gbs 
    atoms 5-10 entry H          line    51 file /shared/joao/test_parameterize/miniconda3/share/psi4/basis/cc-pvdz-jkfit.gbs 

  ==> Pre-Iterations <==

   -------------------------------------------------------
    Irrep   Nso     Nmo     Nalpha   Nbeta   Ndocc  Nsocc
   -------------------------------------------------------
     A         86      86       0       0       0       0
   -------------------------------------------------------
    Total      86      86      17      17      17       0
   -------------------------------------------------------

  ==> Integral Setup <==

  DFHelper Memory: AOs need 0.030 [GiB]; user supplied 3.486 [GiB]. Using in-core AOs.

  ==> MemDFJK: Density-Fitted J/K Matrices <==

    J tasked:                   Yes
    K tasked:                   Yes
    wK tasked:                   No
    OpenMP threads:               1
    Memory (MB):               3570
    Algorithm:                 Core
    Schwarz Cutoff:           1E-12
    Mask sparsity (%):       0.5408
    Fitting Condition:        1E-12

   => Auxiliary Basis Set <=

  Basis Set: (CC-PVDZ AUX)
    Blend: CC-PVDZ-JKFIT
    Number of shells: 150
    Number of basis function: 418
    Number of Cartesian functions: 474
    Spherical Harmonics?: true
    Max angular momentum: 3

  Minimum eigenvalue in the overlap matrix is 4.9185680837E-03.
  Using Symmetric Orthogonalization.

  SCF Guess: Superposition of Atomic Densities via on-the-fly atomic UHF.

  ==> Iterations <==

                           Total Energy        Delta E     RMS |[F,P]|

   @DF-RKS iter   0:  -231.00460405321326   -2.31005e+02   4.10717e-02 
   @DF-RKS iter   1:  -230.18104286244525    8.23561e-01   4.95047e-03 
   @DF-RKS iter   2:  -230.14839278983942    3.26501e-02   6.28593e-03 DIIS
   @DF-RKS iter   3:  -230.25367193161264   -1.05279e-01   7.05873e-04 DIIS
   @DF-RKS iter   4:  -230.25499968335686   -1.32775e-03   2.25254e-04 DIIS
   @DF-RKS iter   5:  -230.25517450364214   -1.74820e-04   5.01618e-05 DIIS
   @DF-RKS iter   6:  -230.25518336226949   -8.85863e-06   5.65968e-06 DIIS
   @DF-RKS iter   7:  -230.25518344759911   -8.53296e-08   2.99096e-06 DIIS
   @DF-RKS iter   8:  -230.25518347049251   -2.28934e-08   8.09123e-07 DIIS

  ==> Post-Iterations <==

    Orbital Energies [Eh]
    ---------------------

    Doubly Occupied:                                                      

       1A    -19.130733     2A    -19.130693     3A    -10.225749  
       4A    -10.225557     5A     -1.018356     6A     -1.007584  
       7A     -0.732417     8A     -0.603435     9A     -0.524756  
      10A     -0.493243    11A     -0.457373    12A     -0.411846  
      13A     -0.398093    14A     -0.349063    15A     -0.319822  
      16A     -0.264549    17A     -0.260827  

    Virtual:                                                              

      18A      0.044968    19A      0.057187    20A      0.103693  
      21A      0.125481    22A      0.126058    23A      0.155427  
      24A      0.196793    25A      0.242080    26A      0.244418  
      27A      0.451851    28A      0.456768    29A      0.493646  
      30A      0.533729    31A      0.534500    32A      0.596566  
      33A      0.616960    34A      0.624879    35A      0.647373  
      36A      0.650583    37A      0.657700    38A      0.689459  
      39A      0.855153    40A      0.856969    41A      0.925717  
      42A      0.967610    43A      1.007279    44A      1.045194  
      45A      1.055731    46A      1.205048    47A      1.206879  
      48A      1.225849    49A      1.275799    50A      1.315262  
      51A      1.332175    52A      1.358417    53A      1.499949  
      54A      1.544397    55A      1.570318    56A      1.593695  
      57A      1.606117    58A      1.634641    59A      1.663427  
      60A      1.738508    61A      1.752997    62A      1.780715  
      63A      1.805888    64A      1.933887    65A      1.934401  
      66A      1.974033    67A      2.026293    68A      2.057520  
      69A      2.117164    70A      2.165789    71A      2.211945  
      72A      2.258916    73A      2.407306    74A      2.417945  
      75A      2.498662    76A      2.509353    77A      2.908522  
      78A      2.970471    79A      2.997840    80A      3.035504  
      81A      3.046901    82A      3.137985    83A      3.179798  
      84A      3.203469    85A      3.675362    86A      3.698158  

    Final Occupation by Irrep:
              A 
    DOCC [    17 ]

  Energy converged.

  @DF-RKS Final Energy:  -230.25518347049251

   => Energetics <=

    Nuclear Repulsion Energy =            129.6184004568576995
    One-Electron Energy =                -571.0052887518186253
    Two-Electron Energy =                 235.6764255542103115
    DFT Exchange-Correlation Energy =     -24.5403903597418811
    Empirical Dispersion Energy =          -0.0043303700000000
    VV10 Nonlocal Energy =                  0.0000000000000000
    Total Energy =                       -230.2551834704925113



Properties will be evaluated at   0.000000,   0.000000,   0.000000 [a0]

Properties computed using the SCF density matrix

  Nuclear Dipole Moment: [e a0]
     X:   182.2351      Y:   -15.3008      Z:    41.5275

  Electronic Dipole Moment: [e a0]
     X:  -182.1814      Y:    15.1391      Z:   -41.6920

  Dipole Moment: [e a0]
     X:     0.0538      Y:    -0.1616      Z:    -0.1645     Total:     0.2368

  Dipole Moment: [D]
     X:     0.1366      Y:    -0.4108      Z:    -0.4182     Total:     0.6020


*** tstop() called on loro.prib.upf.edu at Sat Sep 29 16:49:32 2018
Module time:
	user time   =      12.43 seconds =       0.21 minutes
	system time =       0.21 seconds =       0.00 minutes
	total time  =         14 seconds =       0.23 minutes
Total time:
	user time   =      12.43 seconds =       0.21 minutes
	system time =       0.21 seconds =       0.00 minutes
	total time  =         14 seconds =       0.23 minutes


Properties will be evaluated at   0.000000,   0.000000,   0.000000 [a0]
OEProp: No title given, name of density matrix used for the following properties is 'SCF density'
  Nuclear Dipole Moment: [e a0]
     X:   182.2351      Y:   -15.3008      Z:    41.5275

  Electronic Dipole Moment: [e a0]
     X:  -182.1814      Y:    15.1391      Z:   -41.6920

  Dipole Moment: [e a0]
     X:     0.0538      Y:    -0.1616      Z:    -0.1645     Total:     0.2368

  Dipole Moment: [D]
     X:     0.1366      Y:    -0.4108      Z:    -0.4182     Total:     0.6020

  Quadrupole Moment: [D A]
    XX:   -25.3459     YY:   -22.8559     ZZ:   -20.9527
    XY:    -5.4807     XZ:     2.7791     YZ:    -3.6722

  Traceless Quadrupole Moment: [D A]
    XX:    -2.2944     YY:     0.1956     ZZ:     2.0988
    XY:    -5.4807     XZ:     2.7791     YZ:    -3.6722

  Mulliken Charges: (a.u.)
   Center  Symbol    Alpha    Beta     Spin     Total
       1     O     4.14053  4.14053  0.00000 -0.28107
       2     C     2.93531  2.93531  0.00000  0.12939
       3     C     2.93548  2.93548  0.00000  0.12904
       4     O     4.14076  4.14076  0.00000 -0.28153
       5     H     0.42846  0.42846  0.00000  0.14307
       6     H     0.49609  0.49609  0.00000  0.00782
       7     H     0.49954  0.49954  0.00000  0.00092
       8     H     0.49941  0.49941  0.00000  0.00119
       9     H     0.49600  0.49600  0.00000  0.00800
      10     H     0.42841  0.42841  0.00000  0.14318

   Total alpha = 17.00000, Total beta = 17.00000, Total charge = -0.00000


    Psi4 stopped on: Saturday, 29 September 2018 04:49PM
    Psi4 wall time for execution: 0:00:14.89

*** Psi4 exiting successfully. Buy a developer a beer!
