
    -----------------------------------------------------------------------
          Psi4: An Open-Source Ab Initio Electronic Structure Package
                               Psi4 1.2.1 release

                         Git: Rev {HEAD} 406f4de 


    R. M. Parrish, L. A. Burns, D. G. A. Smith, A. C. Simmonett,
    A. E. DePrince III, E. G. Hohenstein, U. Bozkaya, A. Yu. Sokolov,
    R. Di Remigio, R. M. Richard, J. F. Gonthier, A. M. James,
    H. R. McAlexander, A. Kumar, M. Saitow, X. Wang, B. P. Pritchard,
    P. Verma, H. F. Schaefer III, K. Patkowski, R. A. King, E. F. Valeev,
    F. A. Evangelista, J. M. Turney, T. D. Crawford, and C. D. Sherrill,
    J. Chem. Theory Comput. 13(7) pp 3185--3197 (2017).
    (doi: 10.1021/acs.jctc.7b00174)


                         Additional Contributions by
    P. Kraus, H. Kruse, M. H. Lechner, M. C. Schieber, and R. A. Shaw

    -----------------------------------------------------------------------


    Psi4 started on: Saturday, 29 September 2018 04:49PM

    Process ID: 4480
    Host:       loro.prib.upf.edu
    PSIDATADIR: /shared/joao/test_parameterize/miniconda3/share/psi4
    Memory:     500.0 MiB
    Threads:    1
    
  ==> Input File <==

--------------------------------------------------------------------------
set_num_threads(1)
set_memory('5348 MB')

set { scf_mem_safety_factor 0.7 }

set { reference rks }
set { basis cc-pVDZ }

molecule MOL {
    0 1
    noreorient
    nocom
    symmetry c1
    O    1.141000   0.017000   0.083000
    C    2.558000   0.086000  -0.005000
    C    3.192000  -0.789000   1.067000
    O    2.253453  -1.753015   1.528708
    H    0.789000   0.590000  -0.620000
    H    2.874000   1.128000   0.115000
    H    2.871000  -0.243000  -1.001000
    H    3.523997  -0.177973   1.912199
    H    4.070010  -1.308190   0.666480
    H    2.708338  -2.281108   2.207740
}

set optking { frozen_dihedral = (" 1 2 3 4 ") }

energy, wfn = energy('B3LYP-D3', return_wfn=True)

import os
os.chdir(os.environ['HTMD_PSI4_WORKDIR'])

oeprop(wfn, 'DIPOLE', 'QUADRUPOLE', 'MULLIKEN_CHARGES')

with open('psi4out.xyz', 'w') as f:
    f.write('10 ' )
    f.write('%.12f\n' % energy)
    f.write(MOL.save_string_xyz())
--------------------------------------------------------------------------
  Threads set to 1 by Python driver.

  Memory set to   4.981 GiB by Python driver.

*** tstart() called on loro.prib.upf.edu
*** at Sat Sep 29 16:49:34 2018

   => Loading Basis Set <=

    Name: CC-PVDZ
    Role: ORBITAL
    Keyword: BASIS
    atoms 1, 4 entry O          line   198 file /shared/joao/test_parameterize/miniconda3/share/psi4/basis/cc-pvdz.gbs 
    atoms 2-3  entry C          line   138 file /shared/joao/test_parameterize/miniconda3/share/psi4/basis/cc-pvdz.gbs 
    atoms 5-10 entry H          line    22 file /shared/joao/test_parameterize/miniconda3/share/psi4/basis/cc-pvdz.gbs 


         ---------------------------------------------------------
                                   SCF
            by Justin Turney, Rob Parrish, Andy Simmonett
                             and Daniel Smith
                              RKS Reference
                        1 Threads,   5100 MiB Core
         ---------------------------------------------------------

  ==> Geometry <==

    Molecular point group: c1
    Full point group: C1

    Geometry (in Angstrom), charge = 0, multiplicity = 1:

       Center              X                  Y                   Z               Mass       
    ------------   -----------------  -----------------  -----------------  -----------------
         O            1.141000000000     0.017000000000     0.083000000000    15.994914619560
         C            2.558000000000     0.086000000000    -0.005000000000    12.000000000000
         C            3.192000000000    -0.789000000000     1.067000000000    12.000000000000
         O            2.253453000000    -1.753015000000     1.528708000000    15.994914619560
         H            0.789000000000     0.590000000000    -0.620000000000     1.007825032070
         H            2.874000000000     1.128000000000     0.115000000000     1.007825032070
         H            2.871000000000    -0.243000000000    -1.001000000000     1.007825032070
         H            3.523997000000    -0.177973000000     1.912199000000     1.007825032070
         H            4.070010000000    -1.308190000000     0.666480000000     1.007825032070
         H            2.708338000000    -2.281108000000     2.207740000000     1.007825032070

  Running in c1 symmetry.

  Rotational constants: A =      0.30552  B =      0.03900  C =      0.03512 [cm^-1]
  Rotational constants: A =   9159.35586  B =   1169.22521  C =   1052.83935 [MHz]
  Nuclear repulsion =  133.078700584925798

  Charge       = 0
  Multiplicity = 1
  Electrons    = 34
  Nalpha       = 17
  Nbeta        = 17

  ==> Algorithm <==

  SCF Algorithm Type is DF.
  DIIS enabled.
  MOM disabled.
  Fractional occupation disabled.
  Guess Type is SAD.
  Energy threshold   = 1.00e-06
  Density threshold  = 1.00e-06
  Integral threshold = 0.00e+00

  ==> Primary Basis <==

  Basis Set: CC-PVDZ
    Blend: CC-PVDZ
    Number of shells: 42
    Number of basis function: 86
    Number of Cartesian functions: 90
    Spherical Harmonics?: true
    Max angular momentum: 2

  ==> DFT Potential <==

   => Composite Functional: B3LYP-D3ZERO <= 

    B3LYP-d3zero Hyb-GGA Exchange-Correlation Functional

    P. J. Stephens, F. J. Devlin, C. F. Chabalowski, and M. J. Frisch, J. Phys. Chem. 98, 11623 (1994)

    Deriv               =              1
    GGA                 =           TRUE
    Meta                =          FALSE

    Exchange Hybrid     =           TRUE
    MP2 Hybrid          =          FALSE

   => Exchange Functionals <=

    0.0800   Slater exchange
    0.7200         Becke 88

   => Exact (HF) Exchange <=

    0.2000               HF 

   => Correlation Functionals <=

    0.1900   Vosko, Wilk & Nusair (VWN5_RPA)
    0.8100   Lee, Yang & Parr

   => Molecular Quadrature <=

    Radial Scheme       =       TREUTLER
    Pruning Scheme      =           FLAT
    Nuclear Scheme      =       TREUTLER

    BS radius alpha     =              1
    Pruning alpha       =              1
    Radial Points       =             75
    Spherical Points    =            302
    Total Points        =         222572
    Total Blocks        =           1731
    Max Points          =            256
    Max Functions       =             86

   => -D3ZERO: Empirical Dispersion <=

    Grimme's -D3 (zero-damping) Dispersion Correction
    Grimme S.; Antony J.; Ehrlich S.; Krieg H. (2010), J. Chem. Phys., 132: 154104

        S6 =   1.000000E+00
        S8 =   1.703000E+00
       SR6 =   1.261000E+00
       SR8 =   1.000000E+00
    ALPHA6 =   1.400000E+01

   => Loading Basis Set <=

    Name: (CC-PVDZ AUX)
    Role: JKFIT
    Keyword: DF_BASIS_SCF
    atoms 1, 4 entry O          line   221 file /shared/joao/test_parameterize/miniconda3/share/psi4/basis/cc-pvdz-jkfit.gbs 
    atoms 2-3  entry C          line   121 file /shared/joao/test_parameterize/miniconda3/share/psi4/basis/cc-pvdz-jkfit.gbs 
    atoms 5-10 entry H          line    51 file /shared/joao/test_parameterize/miniconda3/share/psi4/basis/cc-pvdz-jkfit.gbs 

  ==> Pre-Iterations <==

   -------------------------------------------------------
    Irrep   Nso     Nmo     Nalpha   Nbeta   Ndocc  Nsocc
   -------------------------------------------------------
     A         86      86       0       0       0       0
   -------------------------------------------------------
    Total      86      86      17      17      17       0
   -------------------------------------------------------

  ==> Integral Setup <==

  DFHelper Memory: AOs need 0.030 [GiB]; user supplied 3.486 [GiB]. Using in-core AOs.

  ==> MemDFJK: Density-Fitted J/K Matrices <==

    J tasked:                   Yes
    K tasked:                   Yes
    wK tasked:                   No
    OpenMP threads:               1
    Memory (MB):               3570
    Algorithm:                 Core
    Schwarz Cutoff:           1E-12
    Mask sparsity (%):       0.0000
    Fitting Condition:        1E-12

   => Auxiliary Basis Set <=

  Basis Set: (CC-PVDZ AUX)
    Blend: CC-PVDZ-JKFIT
    Number of shells: 150
    Number of basis function: 418
    Number of Cartesian functions: 474
    Spherical Harmonics?: true
    Max angular momentum: 3

  Minimum eigenvalue in the overlap matrix is 4.9101164187E-03.
  Using Symmetric Orthogonalization.

  SCF Guess: Superposition of Atomic Densities via on-the-fly atomic UHF.

  ==> Iterations <==

                           Total Energy        Delta E     RMS |[F,P]|

   @DF-RKS iter   0:  -230.91582171471620   -2.30916e+02   4.00454e-02 
   @DF-RKS iter   1:  -230.14535812280496    7.70464e-01   5.74030e-03 
   @DF-RKS iter   2:  -230.04974313626857    9.56150e-02   8.35539e-03 DIIS
   @DF-RKS iter   3:  -230.24485363558836   -1.95110e-01   6.49676e-04 DIIS
   @DF-RKS iter   4:  -230.24592364947338   -1.07001e-03   3.02031e-04 DIIS
   @DF-RKS iter   5:  -230.24623905604568   -3.15407e-04   5.81845e-05 DIIS
   @DF-RKS iter   6:  -230.24625045601010   -1.14000e-05   6.01100e-06 DIIS
   @DF-RKS iter   7:  -230.24625054853058   -9.25205e-08   3.23686e-06 DIIS
   @DF-RKS iter   8:  -230.24625057805628   -2.95257e-08   8.25184e-07 DIIS

  ==> Post-Iterations <==

    Orbital Energies [Eh]
    ---------------------

    Doubly Occupied:                                                      

       1A    -19.122462     2A    -19.122413     3A    -10.226056  
       4A    -10.225872     5A     -1.016432     6A     -0.994355  
       7A     -0.733987     8A     -0.599536     9A     -0.526454  
      10A     -0.481968    11A     -0.456336    12A     -0.413641  
      13A     -0.394639    14A     -0.328563    15A     -0.322948  
      16A     -0.266113    17A     -0.245331  

    Virtual:                                                              

      18A      0.039832    19A      0.076240    20A      0.090108  
      21A      0.100988    22A      0.138517    23A      0.165878  
      24A      0.176024    25A      0.239855    26A      0.277180  
      27A      0.446014    28A      0.460471    29A      0.494673  
      30A      0.531645    31A      0.550100    32A      0.555970  
      33A      0.620171    34A      0.628277    35A      0.638771  
      36A      0.644820    37A      0.698026    38A      0.699405  
      39A      0.812909    40A      0.862061    41A      0.915530  
      42A      0.987116    43A      1.013466    44A      1.047813  
      45A      1.063703    46A      1.158651    47A      1.233041  
      48A      1.235350    49A      1.286998    50A      1.361053  
      51A      1.367410    52A      1.423141    53A      1.475055  
      54A      1.541366    55A      1.580170    56A      1.606244  
      57A      1.607320    58A      1.617487    59A      1.625731  
      60A      1.732829    61A      1.746639    62A      1.778127  
      63A      1.843290    64A      1.893316    65A      1.954956  
      66A      1.997566    67A      2.024003    68A      2.028343  
      69A      2.089491    70A      2.158027    71A      2.204083  
      72A      2.335630    73A      2.404028    74A      2.407972  
      75A      2.527428    76A      2.534368    77A      2.902689  
      78A      2.977336    79A      2.979228    80A      3.014871  
      81A      3.065605    82A      3.179111    83A      3.180252  
      84A      3.224764    85A      3.689808    86A      3.719851  

    Final Occupation by Irrep:
              A 
    DOCC [    17 ]

  Energy converged.

  @DF-RKS Final Energy:  -230.24625057805628

   => Energetics <=

    Nuclear Repulsion Energy =            133.0787005849257980
    One-Electron Energy =                -578.0630192459841510
    Two-Electron Energy =                 239.2819704386999433
    DFT Exchange-Correlation Energy =     -24.5398709556978787
    Empirical Dispersion Energy =          -0.0040314000000000
    VV10 Nonlocal Energy =                  0.0000000000000000
    Total Energy =                       -230.2462505780563049



Properties will be evaluated at   0.000000,   0.000000,   0.000000 [a0]

Properties computed using the SCF density matrix

  Nuclear Dipole Moment: [e a0]
     X:   148.3283      Y:   -38.5474      Z:    42.6059

  Electronic Dipole Moment: [e a0]
     X:  -147.5628      Y:    38.8837      Z:   -42.7849

  Dipole Moment: [e a0]
     X:     0.7655      Y:     0.3363      Z:    -0.1790     Total:     0.8551

  Dipole Moment: [D]
     X:     1.9457      Y:     0.8548      Z:    -0.4550     Total:     2.1734


*** tstop() called on loro.prib.upf.edu at Sat Sep 29 16:49:50 2018
Module time:
	user time   =      12.76 seconds =       0.21 minutes
	system time =       0.22 seconds =       0.00 minutes
	total time  =         16 seconds =       0.27 minutes
Total time:
	user time   =      12.76 seconds =       0.21 minutes
	system time =       0.22 seconds =       0.00 minutes
	total time  =         16 seconds =       0.27 minutes


Properties will be evaluated at   0.000000,   0.000000,   0.000000 [a0]
OEProp: No title given, name of density matrix used for the following properties is 'SCF density'
  Nuclear Dipole Moment: [e a0]
     X:   148.3283      Y:   -38.5474      Z:    42.6059

  Electronic Dipole Moment: [e a0]
     X:  -147.5628      Y:    38.8837      Z:   -42.7849

  Dipole Moment: [e a0]
     X:     0.7655      Y:     0.3363      Z:    -0.1790     Total:     0.8551

  Dipole Moment: [D]
     X:     1.9457      Y:     0.8548      Z:    -0.4550     Total:     2.1734

  Quadrupole Moment: [D A]
    XX:   -15.4655     YY:   -23.0549     ZZ:   -21.2363
    XY:    -2.0200     XZ:     3.2929     YZ:    -3.0384

  Traceless Quadrupole Moment: [D A]
    XX:     4.4534     YY:    -3.1360     ZZ:    -1.3174
    XY:    -2.0200     XZ:     3.2929     YZ:    -3.0384

  Mulliken Charges: (a.u.)
   Center  Symbol    Alpha    Beta     Spin     Total
       1     O     4.12939  4.12939  0.00000 -0.25879
       2     C     2.93504  2.93504  0.00000  0.12991
       3     C     2.93519  2.93519  0.00000  0.12963
       4     O     4.12962  4.12962  0.00000 -0.25923
       5     H     0.43159  0.43159  0.00000  0.13682
       6     H     0.50252  0.50252  0.00000 -0.00505
       7     H     0.50141  0.50141  0.00000 -0.00282
       8     H     0.50129  0.50129  0.00000 -0.00257
       9     H     0.50241  0.50241  0.00000 -0.00482
      10     H     0.43154  0.43154  0.00000  0.13692

   Total alpha = 17.00000, Total beta = 17.00000, Total charge =  0.00000


    Psi4 stopped on: Saturday, 29 September 2018 04:49PM
    Psi4 wall time for execution: 0:00:16.04

*** Psi4 exiting successfully. Buy a developer a beer!
