
    -----------------------------------------------------------------------
          Psi4: An Open-Source Ab Initio Electronic Structure Package
                               Psi4 1.2.1 release

                         Git: Rev {HEAD} 406f4de 


    R. M. Parrish, L. A. Burns, D. G. A. Smith, A. C. Simmonett,
    A. E. DePrince III, E. G. Hohenstein, U. Bozkaya, A. Yu. Sokolov,
    R. Di Remigio, R. M. Richard, J. F. Gonthier, A. M. James,
    H. R. McAlexander, A. Kumar, M. Saitow, X. Wang, B. P. Pritchard,
    P. Verma, H. F. Schaefer III, K. Patkowski, R. A. King, E. F. Valeev,
    F. A. Evangelista, J. M. Turney, T. D. Crawford, and C. D. Sherrill,
    J. Chem. Theory Comput. 13(7) pp 3185--3197 (2017).
    (doi: 10.1021/acs.jctc.7b00174)


                         Additional Contributions by
    P. Kraus, H. Kruse, M. H. Lechner, M. C. Schieber, and R. A. Shaw

    -----------------------------------------------------------------------


    Psi4 started on: Saturday, 29 September 2018 08:43PM

    Process ID: 3858
    Host:       rosa.prib.upf.edu
    PSIDATADIR: /shared/joao/test_parameterize/miniconda3/share/psi4
    Memory:     500.0 MiB
    Threads:    1
    
  ==> Input File <==

--------------------------------------------------------------------------
set_num_threads(4)
set_memory('3000 MB')

set { scf_mem_safety_factor 0.7 }

set { reference rks }
set { basis 6-31G* }

molecule MOL {
    1 1
    noreorient
    nocom
    symmetry c1
    C   -0.000000  -0.000000  -0.177864
    C    0.036678   1.219374   0.524165
    C    0.031765   1.213120   1.915444
    C    0.000000   0.000000   2.610107
    C   -0.031765  -1.213120   1.915444
    C   -0.036678  -1.219375   0.524165
    C   -0.000000   0.000000  -1.644734
    H    0.018170   2.164705  -0.010854
    H    0.042402   2.152895   2.457886
    H    0.000000   0.000000   3.695756
    H   -0.042402  -2.152895   2.457886
    H   -0.018170  -2.164705  -0.010853
    N   -1.152098   0.034654  -2.308460
    N    1.152097  -0.034654  -2.308461
    H    1.209665   0.056579  -3.315997
    H    2.013552  -0.224422  -1.813317
    H   -2.013552   0.224422  -1.813316
    H   -1.209665  -0.056578  -3.315997
}

set optking { frozen_dihedral = (" 2 1 7 13 ") }

set optking { dynamic_level = 1 
 geom_maxiter = 250
 print_trajectory_xyz_file = True }

energy, wfn = optimize('B3LYP-D3', return_wfn=True)

import os
os.chdir(os.environ['HTMD_PSI4_WORKDIR'])

oeprop(wfn, 'DIPOLE', 'QUADRUPOLE', 'MULLIKEN_CHARGES')

with open('psi4out.xyz', 'w') as f:
    f.write('18 ' )
    f.write('%.12f\n' % energy)
    f.write(MOL.save_string_xyz())
--------------------------------------------------------------------------
  Threads set to 4 by Python driver.

  Memory set to   2.794 GiB by Python driver.
gradient() will perform analytic gradient computation.

*** tstart() called on rosa.prib.upf.edu
*** at Sat Sep 29 20:43:18 2018

   => Loading Basis Set <=

    Name: 6-31G*
    Role: ORBITAL
    Keyword: BASIS
    atoms 1-7         entry C          line   111 file /shared/joao/test_parameterize/miniconda3/share/psi4/basis/6-31gs.gbs 
    atoms 8-12, 15-18 entry H          line    44 file /shared/joao/test_parameterize/miniconda3/share/psi4/basis/6-31gs.gbs 
    atoms 13-14       entry N          line   128 file /shared/joao/test_parameterize/miniconda3/share/psi4/basis/6-31gs.gbs 


         ---------------------------------------------------------
                                   SCF
            by Justin Turney, Rob Parrish, Andy Simmonett
                             and Daniel Smith
                              RKS Reference
                        4 Threads,   2861 MiB Core
         ---------------------------------------------------------

  ==> Geometry <==

    Molecular point group: c1
    Full point group: C1

    Geometry (in Angstrom), charge = 1, multiplicity = 1:

       Center              X                  Y                   Z               Mass       
    ------------   -----------------  -----------------  -----------------  -----------------
         C            0.000000000000     0.000000000000    -0.177864000000    12.000000000000
         C            0.036678000000     1.219374000000     0.524165000000    12.000000000000
         C            0.031765000000     1.213120000000     1.915444000000    12.000000000000
         C            0.000000000000     0.000000000000     2.610107000000    12.000000000000
         C           -0.031765000000    -1.213120000000     1.915444000000    12.000000000000
         C           -0.036678000000    -1.219375000000     0.524165000000    12.000000000000
         C            0.000000000000     0.000000000000    -1.644734000000    12.000000000000
         H            0.018170000000     2.164705000000    -0.010854000000     1.007825032070
         H            0.042402000000     2.152895000000     2.457886000000     1.007825032070
         H            0.000000000000     0.000000000000     3.695756000000     1.007825032070
         H           -0.042402000000    -2.152895000000     2.457886000000     1.007825032070
         H           -0.018170000000    -2.164705000000    -0.010853000000     1.007825032070
         N           -1.152098000000     0.034654000000    -2.308460000000    14.003074004780
         N            1.152097000000    -0.034654000000    -2.308461000000    14.003074004780
         H            1.209665000000     0.056579000000    -3.315997000000     1.007825032070
         H            2.013552000000    -0.224422000000    -1.813317000000     1.007825032070
         H           -2.013552000000     0.224422000000    -1.813316000000     1.007825032070
         H           -1.209665000000    -0.056578000000    -3.315997000000     1.007825032070

  Running in c1 symmetry.

  Rotational constants: A =      0.12190  B =      0.03652  C =      0.03350 [cm^-1]
  Rotational constants: A =   3654.48756  B =   1094.90662  C =   1004.41505 [MHz]
  Nuclear repulsion =  415.782933998414421

  Charge       = 1
  Multiplicity = 1
  Electrons    = 64
  Nalpha       = 32
  Nbeta        = 32

  ==> Algorithm <==

  SCF Algorithm Type is DF.
  DIIS enabled.
  MOM disabled.
  Fractional occupation disabled.
  Guess Type is SAD.
  Energy threshold   = 1.00e-08
  Density threshold  = 1.00e-08
  Integral threshold = 0.00e+00

  ==> Primary Basis <==

  Basis Set: 6-31G*
    Blend: 6-31G*
    Number of shells: 72
    Number of basis function: 153
    Number of Cartesian functions: 153
    Spherical Harmonics?: false
    Max angular momentum: 2

  ==> DFT Potential <==

   => Composite Functional: B3LYP-D3ZERO <= 

    B3LYP-d3zero Hyb-GGA Exchange-Correlation Functional

    P. J. Stephens, F. J. Devlin, C. F. Chabalowski, and M. J. Frisch, J. Phys. Chem. 98, 11623 (1994)

    Deriv               =              1
    GGA                 =           TRUE
    Meta                =          FALSE

    Exchange Hybrid     =           TRUE
    MP2 Hybrid          =          FALSE

   => Exchange Functionals <=

    0.0800   Slater exchange
    0.7200         Becke 88

   => Exact (HF) Exchange <=

    0.2000               HF 

   => Correlation Functionals <=

    0.1900   Vosko, Wilk & Nusair (VWN5_RPA)
    0.8100   Lee, Yang & Parr

   => Molecular Quadrature <=

    Radial Scheme       =       TREUTLER
    Pruning Scheme      =           FLAT
    Nuclear Scheme      =       TREUTLER

    BS radius alpha     =              1
    Pruning alpha       =              1
    Radial Points       =             75
    Spherical Points    =            302
    Total Points        =         397340
    Total Blocks        =           3008
    Max Points          =            256
    Max Functions       =            150

   => -D3ZERO: Empirical Dispersion <=

    Grimme's -D3 (zero-damping) Dispersion Correction
    Grimme S.; Antony J.; Ehrlich S.; Krieg H. (2010), J. Chem. Phys., 132: 154104

        S6 =   1.000000E+00
        S8 =   1.703000E+00
       SR6 =   1.261000E+00
       SR8 =   1.000000E+00
    ALPHA6 =   1.400000E+01

   => Loading Basis Set <=

    Name: (6-31G* AUX)
    Role: JKFIT
    Keyword: DF_BASIS_SCF
    atoms 1-7         entry C          line   121 file /shared/joao/test_parameterize/miniconda3/share/psi4/basis/cc-pvdz-jkfit.gbs 
    atoms 8-12, 15-18 entry H          line    51 file /shared/joao/test_parameterize/miniconda3/share/psi4/basis/cc-pvdz-jkfit.gbs 
    atoms 13-14       entry N          line   171 file /shared/joao/test_parameterize/miniconda3/share/psi4/basis/cc-pvdz-jkfit.gbs 

  ==> Pre-Iterations <==

   -------------------------------------------------------
    Irrep   Nso     Nmo     Nalpha   Nbeta   Ndocc  Nsocc
   -------------------------------------------------------
     A        153     153       0       0       0       0
   -------------------------------------------------------
    Total     153     153      32      32      32       0
   -------------------------------------------------------

  ==> Integral Setup <==

  ==> DiskDFJK: Density-Fitted J/K Matrices <==

    J tasked:                  Yes
    K tasked:                  Yes
    wK tasked:                  No
    OpenMP threads:              4
    Integrals threads:           4
    Memory (MB):              2002
    Algorithm:                Core
    Integral Cache:           NONE
    Schwarz Cutoff:          1E-12
    Fitting Condition:       1E-12

   => Auxiliary Basis Set <=

  Basis Set: (6-31G* AUX)
    Blend: CC-PVDZ-JKFIT
    Number of shells: 297
    Number of basis function: 954
    Number of Cartesian functions: 954
    Spherical Harmonics?: false
    Max angular momentum: 3

  Minimum eigenvalue in the overlap matrix is 4.8871038060E-04.
  Using Symmetric Orthogonalization.

  SCF Guess: Superposition of Atomic Densities via on-the-fly atomic UHF.

  ==> Iterations <==

                           Total Energy        Delta E     RMS |[F,P]|

   @DF-RKS iter   0:  -379.66954045202010   -3.79670e+02   6.75314e-02 
   @DF-RKS iter   1:  -381.05058223100457   -1.38104e+00   1.15029e-02 
   @DF-RKS iter   2:  -380.99269651656726    5.78857e-02   1.24102e-02 DIIS
   @DF-RKS iter   3:  -381.45660107625531   -4.63905e-01   1.37624e-03 DIIS
   @DF-RKS iter   4:  -381.46007943423473   -3.47836e-03   8.19291e-04 DIIS
   @DF-RKS iter   5:  -381.46177282775409   -1.69339e-03   2.42388e-04 DIIS
   @DF-RKS iter   6:  -381.46192483485254   -1.52007e-04   7.64563e-05 DIIS
   @DF-RKS iter   7:  -381.46194079989459   -1.59650e-05   1.52159e-05 DIIS
   @DF-RKS iter   8:  -381.46194136544233   -5.65548e-07   5.62169e-06 DIIS
   @DF-RKS iter   9:  -381.46194145298591   -8.75436e-08   1.93933e-06 DIIS
   @DF-RKS iter  10:  -381.46194146380532   -1.08194e-08   6.06633e-07 DIIS
   @DF-RKS iter  11:  -381.46194146495236   -1.14704e-09   1.04712e-07 DIIS
   @DF-RKS iter  12:  -381.46194146497538   -2.30216e-11   6.22819e-08 DIIS
   @DF-RKS iter  13:  -381.46194146498613   -1.07434e-11   1.69222e-08 DIIS
   @DF-RKS iter  14:  -381.46194146498806   -1.93268e-12   9.22773e-09 DIIS

  ==> Post-Iterations <==

    Orbital Energies [Eh]
    ---------------------

    Doubly Occupied:                                                      

       1A    -14.576612     2A    -14.576605     3A    -10.505213  
       4A    -10.367609     5A    -10.348921     6A    -10.348913  
       7A    -10.333086     8A    -10.332728     9A    -10.332321  
      10A     -1.190247    11A     -1.097864    12A     -1.008350  
      13A     -0.923810    14A     -0.894632    15A     -0.845805  
      16A     -0.788688    17A     -0.762836    18A     -0.755150  
      19A     -0.728667    20A     -0.693502    21A     -0.667820  
      22A     -0.621846    23A     -0.617575    24A     -0.574681  
      25A     -0.573677    26A     -0.566473    27A     -0.514377  
      28A     -0.497645    29A     -0.490042    30A     -0.479418  
      31A     -0.403559    32A     -0.397953  

    Virtual:                                                              

      33A     -0.202596    34A     -0.164146    35A     -0.146207  
      36A     -0.114976    37A     -0.068280    38A     -0.063836  
      39A     -0.034846    40A     -0.028379    41A      0.009717  
      42A      0.014425    43A      0.025394    44A      0.054615  
      45A      0.060819    46A      0.073670    47A      0.141122  
      48A      0.148924    49A      0.165945    50A      0.189859  
      51A      0.202814    52A      0.207629    53A      0.292319  
      54A      0.344373    55A      0.356471    56A      0.376387  
      57A      0.394183    58A      0.397321    59A      0.402359  
      60A      0.425190    61A      0.440590    62A      0.453365  
      63A      0.457781    64A      0.466501    65A      0.477453  
      66A      0.481738    67A      0.481795    68A      0.495434  
      69A      0.514992    70A      0.530383    71A      0.565059  
      72A      0.572961    73A      0.599166    74A      0.629468  
      75A      0.666850    76A      0.675735    77A      0.680997  
      78A      0.682389    79A      0.701062    80A      0.711923  
      81A      0.732947    82A      0.749859    83A      0.779746  
      84A      0.784706    85A      0.812793    86A      0.831563  
      87A      0.852700    88A      0.940979    89A      0.967665  
      90A      1.009148    91A      1.020604    92A      1.024610  
      93A      1.033976    94A      1.087130    95A      1.131340  
      96A      1.182702    97A      1.206908    98A      1.292650  
      99A      1.293045   100A      1.331474   101A      1.332638  
     102A      1.364494   103A      1.364842   104A      1.388415  
     105A      1.441193   106A      1.465788   107A      1.506503  
     108A      1.575406   109A      1.603967   110A      1.659838  
     111A      1.682311   112A      1.739567   113A      1.765461  
     114A      1.798011   115A      1.823490   116A      1.842946  
     117A      1.892611   118A      1.910548   119A      1.971098  
     120A      1.995164   121A      1.997531   122A      1.999545  
     123A      2.039716   124A      2.068301   125A      2.114365  
     126A      2.136650   127A      2.163363   128A      2.201563  
     129A      2.212531   130A      2.281911   131A      2.385986  
     132A      2.399600   133A      2.400025   134A      2.429888  
     135A      2.509096   136A      2.575151   137A      2.578402  
     138A      2.590329   139A      2.630117   140A      2.640467  
     141A      2.704433   142A      2.887501   143A      2.908055  
     144A      3.257907   145A      3.626293   146A      3.632974  
     147A      3.945883   148A      3.968314   149A      3.989963  
     150A      4.131814   151A      4.178277   152A      4.263612  
     153A      4.555860  

    Final Occupation by Irrep:
              A 
    DOCC [    32 ]

  Energy converged.

  @DF-RKS Final Energy:  -381.46194146498806

   => Energetics <=

    Nuclear Repulsion Energy =            415.7829339984144212
    One-Electron Energy =               -1326.9119641892132222
    Two-Electron Energy =                 574.0805821048796815
    DFT Exchange-Correlation Energy =     -44.4019287590689018
    Empirical Dispersion Energy =          -0.0115646200000000
    VV10 Nonlocal Energy =                  0.0000000000000000
    Total Energy =                       -381.4619414649880582



Properties will be evaluated at   0.000000,   0.000000,   0.000000 [a0]

Properties computed using the SCF density matrix

  Nuclear Dipole Moment: [e a0]
     X:    -0.0000      Y:    -0.0000      Z:     0.0248

  Electronic Dipole Moment: [e a0]
     X:     0.0000      Y:     0.0000      Z:    -2.6034

  Dipole Moment: [e a0]
     X:     0.0000      Y:     0.0000      Z:    -2.5786     Total:     2.5786

  Dipole Moment: [D]
     X:     0.0000      Y:     0.0000      Z:    -6.5542     Total:     6.5542


*** tstop() called on rosa.prib.upf.edu at Sat Sep 29 20:43:46 2018
Module time:
	user time   =     100.55 seconds =       1.68 minutes
	system time =       0.74 seconds =       0.01 minutes
	total time  =         28 seconds =       0.47 minutes
Total time:
	user time   =     100.55 seconds =       1.68 minutes
	system time =       0.74 seconds =       0.01 minutes
	total time  =         28 seconds =       0.47 minutes

*** tstart() called on rosa.prib.upf.edu
*** at Sat Sep 29 20:43:46 2018


         ------------------------------------------------------------
                                   SCF GRAD                          
                          Rob Parrish, Justin Turney,                
                       Andy Simmonett, and Alex Sokolov              
         ------------------------------------------------------------

  ==> Geometry <==

    Molecular point group: c1
    Full point group: C1

    Geometry (in Angstrom), charge = 1, multiplicity = 1:

       Center              X                  Y                   Z               Mass       
    ------------   -----------------  -----------------  -----------------  -----------------
         C            0.000000000000     0.000000000000    -0.177864000000    12.000000000000
         C            0.036678000000     1.219374000000     0.524165000000    12.000000000000
         C            0.031765000000     1.213120000000     1.915444000000    12.000000000000
         C            0.000000000000     0.000000000000     2.610107000000    12.000000000000
         C           -0.031765000000    -1.213120000000     1.915444000000    12.000000000000
         C           -0.036678000000    -1.219375000000     0.524165000000    12.000000000000
         C            0.000000000000     0.000000000000    -1.644734000000    12.000000000000
         H            0.018170000000     2.164705000000    -0.010854000000     1.007825032070
         H            0.042402000000     2.152895000000     2.457886000000     1.007825032070
         H            0.000000000000     0.000000000000     3.695756000000     1.007825032070
         H           -0.042402000000    -2.152895000000     2.457886000000     1.007825032070
         H           -0.018170000000    -2.164705000000    -0.010853000000     1.007825032070
         N           -1.152098000000     0.034654000000    -2.308460000000    14.003074004780
         N            1.152097000000    -0.034654000000    -2.308461000000    14.003074004780
         H            1.209665000000     0.056579000000    -3.315997000000     1.007825032070
         H            2.013552000000    -0.224422000000    -1.813317000000     1.007825032070
         H           -2.013552000000     0.224422000000    -1.813316000000     1.007825032070
         H           -1.209665000000    -0.056578000000    -3.315997000000     1.007825032070

  Nuclear repulsion =  415.782933998414421

  ==> Basis Set <==

  Basis Set: 6-31G*
    Blend: 6-31G*
    Number of shells: 72
    Number of basis function: 153
    Number of Cartesian functions: 153
    Spherical Harmonics?: false
    Max angular momentum: 2

  ==> DFJKGrad: Density-Fitted SCF Gradients <==

    Gradient:                    1
    J tasked:                  Yes
    K tasked:                  Yes
    wK tasked:                  No
    OpenMP threads:              4
    Integrals threads:           4
    Memory (MB):              2002
    Schwarz Cutoff:          0E+00
    Fitting Condition:       1E-12

   => Auxiliary Basis Set <=

  Basis Set: (6-31G* AUX)
    Blend: CC-PVDZ-JKFIT
    Number of shells: 297
    Number of basis function: 954
    Number of Cartesian functions: 954
    Spherical Harmonics?: false
    Max angular momentum: 3

  ==> DFT Potential <==

   => Composite Functional: B3LYP-D3ZERO <= 

    B3LYP-d3zero Hyb-GGA Exchange-Correlation Functional

    P. J. Stephens, F. J. Devlin, C. F. Chabalowski, and M. J. Frisch, J. Phys. Chem. 98, 11623 (1994)

    Deriv               =              1
    GGA                 =           TRUE
    Meta                =          FALSE

    Exchange Hybrid     =           TRUE
    MP2 Hybrid          =          FALSE

   => Exchange Functionals <=

    0.0800   Slater exchange
    0.7200         Becke 88

   => Exact (HF) Exchange <=

    0.2000               HF 

   => Correlation Functionals <=

    0.1900   Vosko, Wilk & Nusair (VWN5_RPA)
    0.8100   Lee, Yang & Parr

   => Molecular Quadrature <=

    Radial Scheme       =       TREUTLER
    Pruning Scheme      =           FLAT
    Nuclear Scheme      =       TREUTLER

    BS radius alpha     =              1
    Pruning alpha       =              1
    Radial Points       =             75
    Spherical Points    =            302
    Total Points        =         397340
    Total Blocks        =           3008
    Max Points          =            256
    Max Functions       =            150


  -Total Gradient:
     Atom            X                  Y                   Z
    ------   -----------------  -----------------  -----------------
       1       -0.000000064450     0.000000749612    -0.016420452172
       2        0.003401094274     0.000313924634     0.005150365898
       3        0.000744479713     0.002640814722    -0.002265067241
       4        0.000000000136    -0.000000006593     0.000173265869
       5       -0.000744472232    -0.002640620231    -0.002264887070
       6       -0.003401104359    -0.000315372216     0.005149939055
       7        0.000000435071    -0.000000155471     0.016705091073
       8       -0.002277854026     0.000216639565     0.000880264740
       9       -0.000428635799    -0.000158146511     0.000190197475
      10       -0.000000000320     0.000000003449     0.000005052009
      11        0.000428635207     0.000158095824     0.000190170315
      12        0.002277840741    -0.000215941285     0.000880700411
      13       -0.004857058708    -0.001924855039    -0.003849129140
      14        0.004855906087     0.001925076536    -0.003850244936
      15       -0.000162509236     0.001967436509     0.001605894334
      16       -0.000767244769    -0.002725254166    -0.001943650851
      17        0.000767882115     0.002725110235    -0.001943970090
      18        0.000162670738    -0.001967499552     0.001605132207


*** tstop() called on rosa.prib.upf.edu at Sat Sep 29 20:43:53 2018
Module time:
	user time   =      26.50 seconds =       0.44 minutes
	system time =       0.39 seconds =       0.01 minutes
	total time  =          7 seconds =       0.12 minutes
Total time:
	user time   =     127.11 seconds =       2.12 minutes
	system time =       1.14 seconds =       0.02 minutes
	total time  =         35 seconds =       0.58 minutes

			-----------------------------------------
			 OPTKING 2.0: for geometry optimizations 
			  - R.A. King,  Bethel University        
			-----------------------------------------
	At level 1: Red. Int., RFO, no backsteps, dynamic trust

	Internal coordinates to be generated automatically.
	Detected frag 1 with atoms:  1 2 3 4 5 6 7 8 9 10 11 12 13 14 15 16 17 18
	---Fragment 1 Bond Connectivity---
	 1 : 2 6 7
	 2 : 1 3 8
	 3 : 2 4 9
	 4 : 3 5 10
	 5 : 4 6 11
	 6 : 1 5 12
	 7 : 1 13 14
	 8 : 2
	 9 : 3
	 10 : 4
	 11 : 5
	 12 : 6
	 13 : 7 17 18
	 14 : 7 15 16
	 15 : 14
	 16 : 14
	 17 : 13
	 18 : 13

	Assuming in current code that numbering for constraints corresponds to unified fragment.
	Frozen dihedral atom list: 
	     2     1     7    13
	---Fragment 1 Geometry and Gradient---
	 C           0.0000000000        0.0000000000       -0.3361142489
	 C           0.0693113751        2.3042829136        0.9905282984
	 C           0.0600271506        2.2924645663        3.6196645829
	 C           0.0000000000        0.0000000000        4.9323874075
	 C          -0.0600271506       -2.2924645663        3.6196645829
	 C          -0.0693113751       -2.3042848033        0.9905282984
	 C           0.0000000000        0.0000000000       -3.1080968214
	 H           0.0343363238        4.0906996085       -0.0205110874
	 H           0.0801281675        4.0683819429        4.6447314059
	 H           0.0000000000        0.0000000000        6.9839666940
	 H          -0.0801281675       -4.0683819429        4.6447314059
	 H          -0.0343363238       -4.0906996085       -0.0205091977
	 N          -2.1771496982        0.0654865694       -4.3623571887
	 N           2.1771478085       -0.0654865694       -4.3623590784
	 H           2.2859355625        0.1069188149       -6.2663261875
	 H           3.8050618343       -0.4240961182       -3.4266725221
	 H          -3.8050618343        0.4240961182       -3.4266706324
	 H          -2.2859355625       -0.1069169251       -6.2663261875
	            -0.0000000645        0.0000007496       -0.0164204522
	             0.0034010943        0.0003139246        0.0051503659
	             0.0007444797        0.0026408147       -0.0022650672
	             0.0000000001       -0.0000000066        0.0001732659
	            -0.0007444722       -0.0026406202       -0.0022648871
	            -0.0034011044       -0.0003153722        0.0051499391
	             0.0000004351       -0.0000001555        0.0167050911
	            -0.0022778540        0.0002166396        0.0008802647
	            -0.0004286358       -0.0001581465        0.0001901975
	            -0.0000000003        0.0000000034        0.0000050520
	             0.0004286352        0.0001580958        0.0001901703
	             0.0022778407       -0.0002159413        0.0008807004
	            -0.0048570587       -0.0019248550       -0.0038491291
	             0.0048559061        0.0019250765       -0.0038502449
	            -0.0001625092        0.0019674365        0.0016058943
	            -0.0007672448       -0.0027252542       -0.0019436509
	             0.0007678821        0.0027251102       -0.0019439701
	             0.0001626707       -0.0019674996        0.0016051322

	Previous optimization step data not found.  Starting new optimization.

	---Fragment 1 Intrafragment Coordinates---
	 - Coordinate -           - BOHR/RAD -       - ANG/DEG -
	 R(1,2)           =         2.659794	       1.407502
	 R(1,6)           =         2.659796	       1.407503
	 R(1,7)           =         2.771983	       1.466870
	 R(2,3)           =         2.629179	       1.391302
	 R(2,8)           =         2.052976	       1.086388
	 R(3,4)           =         2.642393	       1.398294
	 R(3,9)           =         2.050622	       1.085142
	 R(4,5)           =         2.642393	       1.398294
	 R(4,10)          =         2.051579	       1.085649
	 R(5,6)           =         2.629179	       1.391302
	 R(5,11)          =         2.050622	       1.085142
	 R(6,12)          =         2.052973	       1.086386
	 R(7,13)          =         2.513451	       1.330061
	 R(7,14)          =         2.513451	       1.330061
	 R(13,17)         =         1.911598	       1.011574
	 R(13,18)         =         1.914851	       1.013296
	 R(14,15)         =         1.914850	       1.013295
	 R(14,16)         =         1.911600	       1.011575
	 B(1,2,3)         =         2.088380	     119.655376
	 B(1,2,8)         =         2.103396	     120.515689
	 B(1,6,5)         =         2.088379	     119.655315
	 B(1,6,12)        =         2.103396	     120.515729
	 B(1,7,13)        =         2.093263	     119.935127
	 B(1,7,14)        =         2.093264	     119.935186
	 B(2,1,6)         =         2.097220	     120.161857
	 B(2,1,7)         =         2.092983	     119.919082
	 B(2,3,4)         =         2.095279	     120.050636
	 B(2,3,9)         =         2.089719	     119.732108
	 B(3,2,8)         =         2.090149	     119.756722
	 B(3,4,5)         =         2.101793	     120.423859
	 B(3,4,10)        =         2.090696	     119.788070
	 B(4,3,9)         =         2.098135	     120.214297
	 B(4,5,6)         =         2.095280	     120.050677
	 B(4,5,11)        =         2.098135	     120.214297
	 B(5,4,10)        =         2.090696	     119.788070
	 B(5,6,12)        =         2.090149	     119.756743
	 B(6,1,7)         =         2.092982	     119.919061
	 B(6,5,11)        =         2.089719	     119.732067
	 B(7,13,17)       =         2.092412	     119.886371
	 B(7,13,18)       =         2.144859	     122.891342
	 B(7,14,15)       =         2.144860	     122.891454
	 B(7,14,16)       =         2.092411	     119.886342
	 B(13,7,14)       =         2.096659	     120.129687
	 B(15,14,16)      =         2.043399	     117.078145
	 B(17,13,18)      =         2.043400	     117.078222
	 D(1,2,3,4)       =         0.007799	       0.446825
	 D(1,2,3,9)       =        -3.122896	    -178.928735
	 D(1,6,5,4)       =         0.007799	       0.446822
	 D(1,6,5,11)      =        -3.122896	    -178.928737
	 D(1,7,13,17)     =         0.187845	      10.762717
	 D(1,7,13,18)     =        -3.032166	    -173.730329
	 D(1,7,14,15)     =        -3.032165	    -173.730246
	 D(1,7,14,16)     =         0.187845	      10.762701
	 D(2,1,6,5)       =        -0.003906	      -0.223802
	 D(2,1,6,12)      =        -3.091437	    -177.126283
	*D(2,1,7,13)      =        -1.570797	     -90.000019
	 D(2,1,7,14)      =         1.570796	      89.999983
	 D(2,3,4,5)       =        -0.003942	      -0.225875
	 D(2,3,4,10)      =         3.137650	     179.774125
	 D(3,2,1,6)       =        -0.003906	      -0.223806
	 D(3,2,1,7)       =         3.137687	     179.776196
	 D(3,4,5,6)       =        -0.003942	      -0.225874
	 D(3,4,5,11)      =         3.126699	     179.146646
	 D(4,3,2,8)       =         3.095744	     177.373058
	 D(4,5,6,12)      =         3.095744	     177.373055
	 D(5,4,3,9)       =         3.126699	     179.146646
	 D(5,6,1,7)       =         3.137687	     179.776197
	 D(6,1,2,8)       =        -3.091437	    -177.126287
	 D(6,1,7,13)      =         1.570796	      89.999983
	 D(6,1,7,14)      =        -1.570797	     -90.000016
	 D(6,5,4,10)      =         3.137650	     179.774126
	 D(7,1,2,8)       =         0.050156	       2.873714
	 D(7,1,6,12)      =         0.050156	       2.873716
	 D(8,2,3,9)       =        -0.034950	      -2.002503
	 D(9,3,4,10)      =        -0.014894	      -0.853354
	 D(10,4,5,11)     =        -0.014894	      -0.853354
	 D(11,5,6,12)     =        -0.034950	      -2.002504
	 D(13,7,14,15)    =         0.109428	       6.269755
	 D(13,7,14,16)    =        -2.953748	    -169.237297
	 D(14,7,13,17)    =        -2.953748	    -169.237284
	 D(14,7,13,18)    =         0.109426	       6.269669

	Current energy   :      -381.4619414650

	Generating empirical Hessian (Schlegel '84) for each fragment.
	Taking RFO optimization step.
	Going to follow RFO solution 1.
	Using RFO vector 1.
	Norm of target step-size    0.30948
	Projected energy change by RFO approximation:         0.0002299906

	Back-transformation to cartesian coordinates...
	Could not converge backtransformation.
	Using first guess instead.

	Back-transformation to cartesian coordinates to adjust frozen coordinates...
	Successfully converged to displaced geometry.

	--- Internal Coordinate Step in ANG or DEG, aJ/ANG or AJ/DEG ---
	 ---------------------------------------------------------------------------
	   Coordinate                Previous        Force       Change         New 
	   ----------                --------       ------       ------       ------
	    1 R(1,2)          =      1.407502    -0.031589    -0.004614     1.402889
	    2 R(1,6)          =      1.407503    -0.031592    -0.004595     1.402908
	    3 R(1,7)          =      1.466870     0.068626     0.012135     1.479005
	    4 R(2,3)          =      1.391302     0.016399     0.002225     1.393527
	    5 R(2,8)          =      1.086388     0.001699     0.001693     1.088080
	    6 R(3,4)          =      1.398294    -0.007205    -0.000829     1.397464
	    7 R(3,9)          =      1.085142     0.000379     0.000319     1.085461
	    8 R(4,5)          =      1.398294    -0.007203    -0.000856     1.397438
	    9 R(4,10)         =      1.085649    -0.000042     0.000007     1.085656
	   10 R(5,6)          =      1.391302     0.016402     0.002272     1.393573
	   11 R(5,11)         =      1.085142     0.000379     0.000533     1.085675
	   12 R(6,12)         =      1.086386     0.001706     0.001761     1.088147
	   13 R(7,13)         =      1.330061    -0.044987    -0.004660     1.325402
	   14 R(7,14)         =      1.330061    -0.044985    -0.004503     1.325558
	   15 R(13,17)        =      1.011574     0.009014     0.007316     1.018890
	   16 R(13,18)        =      1.013296     0.011767     0.004039     1.017335
	   17 R(14,15)        =      1.013295     0.011773     0.003092     1.016387
	   18 R(14,16)        =      1.011575     0.009008     0.007214     1.018789
	   19 B(1,2,3)        =    119.655376    -0.000126    -0.415530   119.239846
	   20 B(1,2,8)        =    120.515689     0.000000    -0.063197   120.452493
	   21 B(1,6,5)        =    119.655315    -0.000126    -0.413705   119.241609
	   22 B(1,6,12)       =    120.515729    -0.000000    -0.031541   120.484188
	   23 B(1,7,13)       =    119.935127    -0.000179    -0.537316   119.397812
	   24 B(1,7,14)       =    119.935186    -0.000179    -0.541190   119.393996
	   25 B(2,1,6)        =    120.161857     0.000252     0.702664   120.864521
	   26 B(2,1,7)        =    119.919082    -0.000126    -0.356277   119.562805
	   27 B(2,3,4)        =    120.050636     0.000022     0.108486   120.159122
	   28 B(2,3,9)        =    119.732108    -0.000031    -0.149784   119.582323
	   29 B(3,2,8)        =    119.756722     0.000130     0.550024   120.306745
	   30 B(3,4,5)        =    120.423859    -0.000044    -0.086763   120.337097
	   31 B(3,4,10)       =    119.788070     0.000022     0.045172   119.833242
	   32 B(4,3,9)        =    120.214297     0.000009     0.043580   120.257877
	   33 B(4,5,6)        =    120.050677     0.000022     0.104678   120.155355
	   34 B(4,5,11)       =    120.214297     0.000009     0.037975   120.252272
	   35 B(5,4,10)       =    119.788070     0.000022     0.041422   119.829492
	   36 B(5,6,12)       =    119.756743     0.000130     0.517160   120.273903
	   37 B(6,1,7)        =    119.919061    -0.000126    -0.356968   119.562093
	   38 B(6,5,11)       =    119.732067    -0.000031    -0.141205   119.590862
	   39 B(7,13,17)      =    119.886371    -0.000114    -0.606829   119.279542
	   40 B(7,13,18)      =    122.891342     0.000078     0.273571   123.164913
	   41 B(7,14,15)      =    122.891454     0.000078     0.254820   123.146274
	   42 B(7,14,16)      =    119.886342    -0.000114    -0.528688   119.357654
	   43 B(13,7,14)      =    120.129687     0.000357     1.068466   121.198152
	   44 B(15,14,16)     =    117.078145     0.000040     0.371091   117.449236
	   45 B(17,13,18)     =    117.078222     0.000040     0.430437   117.508659
	   46 D(1,2,3,4)      =      0.446825    -0.000004    -0.674862    -0.228037
	   47 D(1,2,3,9)      =   -178.928735    -0.000010    -1.598024  -180.526760
	   48 D(1,6,5,4)      =      0.446822    -0.000002    -0.234405     0.212417
	   49 D(1,6,5,11)     =   -178.928737    -0.000008    -1.304911  -180.233648
	   50 D(1,7,13,17)    =     10.762717    -0.000047    -6.644348     4.118369
	   51 D(1,7,13,18)    =   -173.730329    -0.000033    -4.705935  -178.436264
	   52 D(1,7,14,15)    =   -173.730246    -0.000027    -3.579553  -177.309799
	   53 D(1,7,14,16)    =     10.762701    -0.000041    -5.517859     5.244843
	   54 D(2,1,6,5)      =     -0.223802    -0.000001    -0.331989    -0.555790
	   55 D(2,1,6,12)     =   -177.126283    -0.000023    -3.627969  -180.754252
	   56 *D(2,1,7,13)    =    -90.000019    -0.000000    -0.000000   -90.000019
	   57 D(2,1,7,14)     =     89.999983    -0.000006    -1.138603    88.861380
	   58 D(2,3,4,5)      =     -0.225875     0.000001     0.117359    -0.108517
	   59 D(2,3,4,10)     =    179.774125     0.000002     0.267117   180.041241
	   60 D(3,2,1,6)      =     -0.223806     0.000004     0.787391     0.563585
	   61 D(3,2,1,7)      =    179.776196    -0.000001    -0.401115   179.375081
	   62 D(3,4,5,6)      =     -0.225874     0.000002     0.342314     0.116440
	   63 D(3,4,5,11)     =    179.146646     0.000009     1.418832   180.565478
	   64 D(4,3,2,8)      =    177.373058     0.000017     2.745400   180.118458
	   65 D(4,5,6,12)     =    177.373055     0.000019     3.037396   180.410451
	   66 D(5,4,3,9)      =    179.146646     0.000007     1.045593   180.192239
	   67 D(5,6,1,7)      =    179.776197     0.000004     0.856508   180.632705
	   68 D(6,1,2,8)      =   -177.126287    -0.000018    -2.657140  -179.783427
	   69 D(6,1,7,13)     =     89.999983    -0.000005    -1.172874    88.827109
	   70 D(6,1,7,14)     =    -90.000016    -0.000011    -2.311477   -92.311493
	   71 D(6,5,4,10)     =    179.774126     0.000001     0.192562   179.966688
	   72 D(7,1,2,8)      =      2.873714    -0.000024    -3.845646    -0.971931
	   73 D(7,1,6,12)     =      2.873716    -0.000017    -2.439472     0.434244
	   74 D(8,2,3,9)      =     -2.002503     0.000011     1.822238    -0.180264
	   75 D(9,3,4,10)     =     -0.853354     0.000008     1.195351     0.341997
	   76 D(10,4,5,11)    =     -0.853354     0.000008     1.269079     0.415726
	   77 D(11,5,6,12)    =     -2.002504     0.000012     1.966891    -0.035613
	   78 D(13,7,14,15)   =      6.269755    -0.000033    -4.739259     1.530496
	   79 D(13,7,14,16)   =   -169.237297    -0.000047    -6.677565  -175.914862
	   80 D(14,7,13,17)   =   -169.237284    -0.000041    -5.484599  -174.721883
	   81 D(14,7,13,18)   =      6.269669    -0.000027    -3.546186     2.723484
	 ---------------------------------------------------------------------------
	Successfully symmetrized geometry.

  ==> Convergence Check <==

  Measures of convergence in internal coordinates in au.
  Criteria marked as inactive (o), active & met (*), and active & unmet ( ).
  --------------------------------------------------------------------------------------------- ~
   Step     Total Energy     Delta E     MAX Force     RMS Force      MAX Disp      RMS Disp    ~
  --------------------------------------------------------------------------------------------- ~
    Convergence Criteria    1.00e-06 *    3.00e-04 *             o    1.20e-03 *             o  ~
  --------------------------------------------------------------------------------------------- ~
      1    -381.46194146   -3.81e+02      8.33e-03      1.90e-03 o    1.17e-01      3.44e-02 o  ~
  ---------------------------------------------------------------------------------------------

	Writing optimization data to binary file.
	Structure for next step:
	Cartesian Geometry (in Angstrom)
	    C     0.0122757004  -0.0055000615  -0.1745507117
	    C     0.0447055888   1.2157771459   0.5150342955
	    C     0.0388214206   1.2110149956   1.9085405252
	    C    -0.0038161274   0.0009802999   2.6063262925
	    C    -0.0431264388  -1.2121505726   1.9137948542
	    C    -0.0376111737  -1.2232348869   0.5202765290
	    C     0.0042537283  -0.0084115042  -1.6535307114
	    H     0.0798085253   2.1564545175  -0.0306881834
	    H     0.0724712710   2.1524626795   2.4477713115
	    H    -0.0088750121   0.0034639035   3.6919676178
	    H    -0.0854768354  -2.1510746986   2.4572265191
	    H    -0.0749009897  -2.1664923912  -0.0209622764
	    N    -1.1536721500   0.0174560492  -2.2979123625
	    N     1.1556127063  -0.0138964277  -2.3103759418
	    H     1.2172352440   0.0238066411  -3.3241920670
	    H     2.0273138167  -0.0971952548  -1.7896750594
	    H    -2.0183214558   0.1027392656  -1.7657038856
	    H    -1.2266988186  -0.0061997002  -3.3123467456
			--------------------------
			 OPTKING Finished Execution 
			--------------------------

    Structure for next step:
    Molecular point group: c1
    Full point group: C1

    Geometry (in Angstrom), charge = 1, multiplicity = 1:

    C            0.012275700406    -0.005500061514    -0.174550711657
    C            0.044705588830     1.215777145890     0.515034295481
    C            0.038821420607     1.211014995552     1.908540525164
    C           -0.003816127427     0.000980299876     2.606326292542
    C           -0.043126438770    -1.212150572635     1.913794854182
    C           -0.037611173732    -1.223234886893     0.520276528963
    C            0.004253728266    -0.008411504180    -1.653530711444
    H            0.079808525331     2.156454517510    -0.030688183371
    H            0.072471270965     2.152462679503     2.447771311477
    H           -0.008875012053     0.003463903540     3.691967617808
    H           -0.085476835359    -2.151074698591     2.457226519065
    H           -0.074900989653    -2.166492391229    -0.020962276439
    N           -1.153672149976     0.017456049199    -2.297912362457
    N            1.155612706331    -0.013896427704    -2.310375941789
    H            1.217235243953     0.023806641055    -3.324192066962
    H            2.027313816674    -0.097195254835    -1.789675059379
    H           -2.018321455789     0.102739265623    -1.765703885554
    H           -1.226698818605    -0.006199700168    -3.312346745631

gradient() will perform analytic gradient computation.

*** tstart() called on rosa.prib.upf.edu
*** at Sat Sep 29 20:43:54 2018

   => Loading Basis Set <=

    Name: 6-31G*
    Role: ORBITAL
    Keyword: BASIS
    atoms 1-7         entry C          line   111 file /shared/joao/test_parameterize/miniconda3/share/psi4/basis/6-31gs.gbs 
    atoms 8-12, 15-18 entry H          line    44 file /shared/joao/test_parameterize/miniconda3/share/psi4/basis/6-31gs.gbs 
    atoms 13-14       entry N          line   128 file /shared/joao/test_parameterize/miniconda3/share/psi4/basis/6-31gs.gbs 


         ---------------------------------------------------------
                                   SCF
            by Justin Turney, Rob Parrish, Andy Simmonett
                             and Daniel Smith
                              RKS Reference
                        4 Threads,   2861 MiB Core
         ---------------------------------------------------------

  ==> Geometry <==

    Molecular point group: c1
    Full point group: C1

    Geometry (in Angstrom), charge = 1, multiplicity = 1:

       Center              X                  Y                   Z               Mass       
    ------------   -----------------  -----------------  -----------------  -----------------
         C            0.012275700406    -0.005500061514    -0.174550711657    12.000000000000
         C            0.044705588830     1.215777145890     0.515034295481    12.000000000000
         C            0.038821420607     1.211014995552     1.908540525164    12.000000000000
         C           -0.003816127427     0.000980299876     2.606326292542    12.000000000000
         C           -0.043126438770    -1.212150572635     1.913794854182    12.000000000000
         C           -0.037611173732    -1.223234886893     0.520276528963    12.000000000000
         C            0.004253728266    -0.008411504180    -1.653530711444    12.000000000000
         H            0.079808525331     2.156454517510    -0.030688183371     1.007825032070
         H            0.072471270965     2.152462679503     2.447771311477     1.007825032070
         H           -0.008875012053     0.003463903540     3.691967617808     1.007825032070
         H           -0.085476835359    -2.151074698591     2.457226519065     1.007825032070
         H           -0.074900989653    -2.166492391229    -0.020962276439     1.007825032070
         N           -1.153672149976     0.017456049199    -2.297912362457    14.003074004780
         N            1.155612706331    -0.013896427704    -2.310375941789    14.003074004780
         H            1.217235243953     0.023806641055    -3.324192066962     1.007825032070
         H            2.027313816674    -0.097195254835    -1.789675059379     1.007825032070
         H           -2.018321455789     0.102739265623    -1.765703885554     1.007825032070
         H           -1.226698818605    -0.006199700168    -3.312346745631     1.007825032070

  Running in c1 symmetry.

  Rotational constants: A =      0.12180  B =      0.03661  C =      0.03360 [cm^-1]
  Rotational constants: A =   3651.46550  B =   1097.49281  C =   1007.29456 [MHz]
  Nuclear repulsion =  415.954399531014474

  Charge       = 1
  Multiplicity = 1
  Electrons    = 64
  Nalpha       = 32
  Nbeta        = 32

  ==> Algorithm <==

  SCF Algorithm Type is DF.
  DIIS enabled.
  MOM disabled.
  Fractional occupation disabled.
  Guess Type is READ.
  Energy threshold   = 1.00e-08
  Density threshold  = 1.00e-08
  Integral threshold = 0.00e+00

  ==> Primary Basis <==

  Basis Set: 6-31G*
    Blend: 6-31G*
    Number of shells: 72
    Number of basis function: 153
    Number of Cartesian functions: 153
    Spherical Harmonics?: false
    Max angular momentum: 2

  ==> DFT Potential <==

   => Composite Functional: B3LYP-D3ZERO <= 

    B3LYP-d3zero Hyb-GGA Exchange-Correlation Functional

    P. J. Stephens, F. J. Devlin, C. F. Chabalowski, and M. J. Frisch, J. Phys. Chem. 98, 11623 (1994)

    Deriv               =              1
    GGA                 =           TRUE
    Meta                =          FALSE

    Exchange Hybrid     =           TRUE
    MP2 Hybrid          =          FALSE

   => Exchange Functionals <=

    0.0800   Slater exchange
    0.7200         Becke 88

   => Exact (HF) Exchange <=

    0.2000               HF 

   => Correlation Functionals <=

    0.1900   Vosko, Wilk & Nusair (VWN5_RPA)
    0.8100   Lee, Yang & Parr

   => Molecular Quadrature <=

    Radial Scheme       =       TREUTLER
    Pruning Scheme      =           FLAT
    Nuclear Scheme      =       TREUTLER

    BS radius alpha     =              1
    Pruning alpha       =              1
    Radial Points       =             75
    Spherical Points    =            302
    Total Points        =         397377
    Total Blocks        =           2996
    Max Points          =            256
    Max Functions       =            151

   => -D3ZERO: Empirical Dispersion <=

    Grimme's -D3 (zero-damping) Dispersion Correction
    Grimme S.; Antony J.; Ehrlich S.; Krieg H. (2010), J. Chem. Phys., 132: 154104

        S6 =   1.000000E+00
        S8 =   1.703000E+00
       SR6 =   1.261000E+00
       SR8 =   1.000000E+00
    ALPHA6 =   1.400000E+01

   => Loading Basis Set <=

    Name: (6-31G* AUX)
    Role: JKFIT
    Keyword: DF_BASIS_SCF
    atoms 1-7         entry C          line   121 file /shared/joao/test_parameterize/miniconda3/share/psi4/basis/cc-pvdz-jkfit.gbs 
    atoms 8-12, 15-18 entry H          line    51 file /shared/joao/test_parameterize/miniconda3/share/psi4/basis/cc-pvdz-jkfit.gbs 
    atoms 13-14       entry N          line   171 file /shared/joao/test_parameterize/miniconda3/share/psi4/basis/cc-pvdz-jkfit.gbs 

  Reading orbitals from file 180, no projection.

  ==> Pre-Iterations <==

   -------------------------------------------------------
    Irrep   Nso     Nmo     Nalpha   Nbeta   Ndocc  Nsocc
   -------------------------------------------------------
     A        153     153       0       0       0       0
   -------------------------------------------------------
    Total     153     153      32      32      32       0
   -------------------------------------------------------

  ==> Integral Setup <==

  ==> DiskDFJK: Density-Fitted J/K Matrices <==

    J tasked:                  Yes
    K tasked:                  Yes
    wK tasked:                  No
    OpenMP threads:              4
    Integrals threads:           4
    Memory (MB):              2002
    Algorithm:                Core
    Integral Cache:           NONE
    Schwarz Cutoff:          1E-12
    Fitting Condition:       1E-12

   => Auxiliary Basis Set <=

  Basis Set: (6-31G* AUX)
    Blend: CC-PVDZ-JKFIT
    Number of shells: 297
    Number of basis function: 954
    Number of Cartesian functions: 954
    Spherical Harmonics?: false
    Max angular momentum: 3

  Minimum eigenvalue in the overlap matrix is 4.8488658565E-04.
  Using Symmetric Orthogonalization.

  SCF Guess: Orbitals guess was supplied from a previous computation.

  ==> Iterations <==

                           Total Energy        Delta E     RMS |[F,P]|

   @DF-RKS iter   0:  -381.45203192299965   -3.81452e+02   1.12740e-03 
   @DF-RKS iter   1:  -381.46355275248641   -1.15208e-02   9.63297e-05 
   @DF-RKS iter   2:  -381.46357462491432   -2.18724e-05   1.47820e-04 DIIS
   @DF-RKS iter   3:  -381.46363405675788   -5.94318e-05   5.88611e-05 DIIS
   @DF-RKS iter   4:  -381.46364488250595   -1.08257e-05   1.41300e-05 DIIS
   @DF-RKS iter   5:  -381.46364537740220   -4.94896e-07   7.09467e-06 DIIS
   @DF-RKS iter   6:  -381.46364553049307   -1.53091e-07   6.37260e-07 DIIS
   @DF-RKS iter   7:  -381.46364553135493   -8.61860e-10   3.36896e-07 DIIS
   @DF-RKS iter   8:  -381.46364553165239   -2.97462e-10   7.79419e-08 DIIS
   @DF-RKS iter   9:  -381.46364553166535   -1.29603e-11   4.17692e-08 DIIS
   @DF-RKS iter  10:  -381.46364553167086   -5.51381e-12   7.37698e-09 DIIS

  ==> Post-Iterations <==

    Orbital Energies [Eh]
    ---------------------

    Doubly Occupied:                                                      

       1A    -14.577399     2A    -14.577322     3A    -10.503831  
       4A    -10.367385     5A    -10.348479     6A    -10.348346  
       7A    -10.332952     8A    -10.332741     9A    -10.332018  
      10A     -1.190323    11A     -1.098171    12A     -1.008291  
      13A     -0.922058    14A     -0.894171    15A     -0.844667  
      16A     -0.787673    17A     -0.763137    18A     -0.755630  
      19A     -0.727621    20A     -0.690846    21A     -0.666674  
      22A     -0.623363    23A     -0.615526    24A     -0.576361  
      25A     -0.572810    26A     -0.566286    27A     -0.514920  
      28A     -0.496292    29A     -0.490373    30A     -0.479978  
      31A     -0.403819    32A     -0.397480  

    Virtual:                                                              

      33A     -0.198012    34A     -0.162786    35A     -0.146375  
      36A     -0.117254    37A     -0.071595    38A     -0.065037  
      39A     -0.035029    40A     -0.030703    41A      0.009541  
      42A      0.014695    43A      0.024878    44A      0.054885  
      45A      0.060189    46A      0.073884    47A      0.138378  
      48A      0.150204    49A      0.165557    50A      0.192253  
      51A      0.200506    52A      0.210601    53A      0.291710  
      54A      0.341348    55A      0.357114    56A      0.381276  
      57A      0.392361    58A      0.400043    59A      0.402436  
      60A      0.426868    61A      0.439988    62A      0.453122  
      63A      0.456751    64A      0.464194    65A      0.478338  
      66A      0.479351    67A      0.481915    68A      0.494110  
      69A      0.515767    70A      0.526917    71A      0.566129  
      72A      0.577202    73A      0.599129    74A      0.626603  
      75A      0.664573    76A      0.674808    77A      0.677173  
      78A      0.677422    79A      0.699654    80A      0.712374  
      81A      0.733159    82A      0.749124    83A      0.780334  
      84A      0.789235    85A      0.812995    86A      0.833966  
      87A      0.852218    88A      0.942456    89A      0.966888  
      90A      1.013178    91A      1.015861    92A      1.027231  
      93A      1.035076    94A      1.091403    95A      1.139961  
      96A      1.183830    97A      1.207554    98A      1.293355  
      99A      1.305186   100A      1.326864   101A      1.332921  
     102A      1.362955   103A      1.365975   104A      1.387640  
     105A      1.441143   106A      1.468439   107A      1.510021  
     108A      1.575647   109A      1.586725   110A      1.662895  
     111A      1.681017   112A      1.742194   113A      1.770838  
     114A      1.796612   115A      1.820709   116A      1.849280  
     117A      1.898612   118A      1.914335   119A      1.974349  
     120A      1.994665   121A      1.998594   122A      1.999500  
     123A      2.041530   124A      2.076263   125A      2.120079  
     126A      2.141901   127A      2.155021   128A      2.181925  
     129A      2.220100   130A      2.286895   131A      2.381117  
     132A      2.403699   133A      2.405851   134A      2.429316  
     135A      2.510720   136A      2.572561   137A      2.573455  
     138A      2.593360   139A      2.633910   140A      2.642874  
     141A      2.700213   142A      2.890408   143A      2.906806  
     144A      3.260771   145A      3.631599   146A      3.633511  
     147A      3.946749   148A      3.967594   149A      3.992122  
     150A      4.130919   151A      4.178633   152A      4.264012  
     153A      4.556451  

    Final Occupation by Irrep:
              A 
    DOCC [    32 ]

  Energy converged.

  @DF-RKS Final Energy:  -381.46364553167086

   => Energetics <=

    Nuclear Repulsion Energy =            415.9543995310144737
    One-Electron Energy =               -1327.2810436357258368
    Two-Electron Energy =                 574.2716943998509578
    DFT Exchange-Correlation Energy =     -44.3970905568104897
    Empirical Dispersion Energy =          -0.0116052700000000
    VV10 Nonlocal Energy =                  0.0000000000000000
    Total Energy =                       -381.4636455316709203



Properties will be evaluated at   0.000000,   0.000000,   0.000000 [a0]

Properties computed using the SCF density matrix

  Nuclear Dipole Moment: [e a0]
     X:     0.1685      Y:    -0.1630      Z:    -0.1687

  Electronic Dipole Moment: [e a0]
     X:    -0.1727      Y:     0.1685      Z:    -2.4155

  Dipole Moment: [e a0]
     X:    -0.0042      Y:     0.0055      Z:    -2.5842     Total:     2.5843

  Dipole Moment: [D]
     X:    -0.0107      Y:     0.0139      Z:    -6.5685     Total:     6.5685


*** tstop() called on rosa.prib.upf.edu at Sat Sep 29 20:44:15 2018
Module time:
	user time   =      77.00 seconds =       1.28 minutes
	system time =       0.74 seconds =       0.01 minutes
	total time  =         21 seconds =       0.35 minutes
Total time:
	user time   =     205.00 seconds =       3.42 minutes
	system time =       1.93 seconds =       0.03 minutes
	total time  =         57 seconds =       0.95 minutes

*** tstart() called on rosa.prib.upf.edu
*** at Sat Sep 29 20:44:15 2018


         ------------------------------------------------------------
                                   SCF GRAD                          
                          Rob Parrish, Justin Turney,                
                       Andy Simmonett, and Alex Sokolov              
         ------------------------------------------------------------

  ==> Geometry <==

    Molecular point group: c1
    Full point group: C1

    Geometry (in Angstrom), charge = 1, multiplicity = 1:

       Center              X                  Y                   Z               Mass       
    ------------   -----------------  -----------------  -----------------  -----------------
         C            0.012275700406    -0.005500061514    -0.174550711657    12.000000000000
         C            0.044705588830     1.215777145890     0.515034295481    12.000000000000
         C            0.038821420607     1.211014995552     1.908540525164    12.000000000000
         C           -0.003816127427     0.000980299876     2.606326292542    12.000000000000
         C           -0.043126438770    -1.212150572635     1.913794854182    12.000000000000
         C           -0.037611173732    -1.223234886893     0.520276528963    12.000000000000
         C            0.004253728266    -0.008411504180    -1.653530711444    12.000000000000
         H            0.079808525331     2.156454517510    -0.030688183371     1.007825032070
         H            0.072471270965     2.152462679503     2.447771311477     1.007825032070
         H           -0.008875012053     0.003463903540     3.691967617808     1.007825032070
         H           -0.085476835359    -2.151074698591     2.457226519065     1.007825032070
         H           -0.074900989653    -2.166492391229    -0.020962276439     1.007825032070
         N           -1.153672149976     0.017456049199    -2.297912362457    14.003074004780
         N            1.155612706331    -0.013896427704    -2.310375941789    14.003074004780
         H            1.217235243953     0.023806641055    -3.324192066962     1.007825032070
         H            2.027313816674    -0.097195254835    -1.789675059379     1.007825032070
         H           -2.018321455789     0.102739265623    -1.765703885554     1.007825032070
         H           -1.226698818605    -0.006199700168    -3.312346745631     1.007825032070

  Nuclear repulsion =  415.954399531014474

  ==> Basis Set <==

  Basis Set: 6-31G*
    Blend: 6-31G*
    Number of shells: 72
    Number of basis function: 153
    Number of Cartesian functions: 153
    Spherical Harmonics?: false
    Max angular momentum: 2

  ==> DFJKGrad: Density-Fitted SCF Gradients <==

    Gradient:                    1
    J tasked:                  Yes
    K tasked:                  Yes
    wK tasked:                  No
    OpenMP threads:              4
    Integrals threads:           4
    Memory (MB):              2002
    Schwarz Cutoff:          0E+00
    Fitting Condition:       1E-12

   => Auxiliary Basis Set <=

  Basis Set: (6-31G* AUX)
    Blend: CC-PVDZ-JKFIT
    Number of shells: 297
    Number of basis function: 954
    Number of Cartesian functions: 954
    Spherical Harmonics?: false
    Max angular momentum: 3

  ==> DFT Potential <==

   => Composite Functional: B3LYP-D3ZERO <= 

    B3LYP-d3zero Hyb-GGA Exchange-Correlation Functional

    P. J. Stephens, F. J. Devlin, C. F. Chabalowski, and M. J. Frisch, J. Phys. Chem. 98, 11623 (1994)

    Deriv               =              1
    GGA                 =           TRUE
    Meta                =          FALSE

    Exchange Hybrid     =           TRUE
    MP2 Hybrid          =          FALSE

   => Exchange Functionals <=

    0.0800   Slater exchange
    0.7200         Becke 88

   => Exact (HF) Exchange <=

    0.2000               HF 

   => Correlation Functionals <=

    0.1900   Vosko, Wilk & Nusair (VWN5_RPA)
    0.8100   Lee, Yang & Parr

   => Molecular Quadrature <=

    Radial Scheme       =       TREUTLER
    Pruning Scheme      =           FLAT
    Nuclear Scheme      =       TREUTLER

    BS radius alpha     =              1
    Pruning alpha       =              1
    Radial Points       =             75
    Spherical Points    =            302
    Total Points        =         397377
    Total Blocks        =           2996
    Max Points          =            256
    Max Functions       =            151


  -Total Gradient:
     Atom            X                  Y                   Z
    ------   -----------------  -----------------  -----------------
       1        0.001494066341     0.000948168591    -0.005027497838
       2       -0.001233646702    -0.001330478526     0.002116363932
       3       -0.000368348430     0.000233160519    -0.000704125422
       4        0.000080251749     0.000019456863     0.000436740293
       5        0.000352264595    -0.000087782387    -0.000800586869
       6        0.000306915546     0.001285392068     0.001884051212
       7       -0.000663097445    -0.002561211234     0.005499354632
       8        0.000043708767     0.000968553140    -0.000524909687
       9        0.000319879679     0.000060752865     0.000083686152
      10       -0.000023323264    -0.000007785165     0.000064865972
      11       -0.000327652656    -0.000188861068     0.000152184300
      12       -0.000193827301    -0.001043077901    -0.000499572551
      13        0.002792947209    -0.000638203830    -0.002068311385
      14       -0.002590727597     0.001905941434    -0.002605986833
      15       -0.000646985194     0.000834568561    -0.001255933007
      16        0.004599129375    -0.001474902301     0.002564584714
      17       -0.004528541964     0.001806463335     0.002790645217
      18        0.000591712567    -0.000731620536    -0.002101860234


*** tstop() called on rosa.prib.upf.edu at Sat Sep 29 20:44:22 2018
Module time:
	user time   =      28.85 seconds =       0.48 minutes
	system time =       0.36 seconds =       0.01 minutes
	total time  =          7 seconds =       0.12 minutes
Total time:
	user time   =     233.92 seconds =       3.90 minutes
	system time =       2.31 seconds =       0.04 minutes
	total time  =         64 seconds =       1.07 minutes

			-----------------------------------------
			 OPTKING 2.0: for geometry optimizations 
			  - R.A. King,  Bethel University        
			-----------------------------------------
	At level 1: Red. Int., RFO, no backsteps, dynamic trust

	Previous internal coordinate definitions found.
	---Fragment 1 Geometry and Gradient---
	 C           0.0231977119       -0.0103936100       -0.3298530413
	 C           0.0844813195        2.2974858444        0.9732737675
	 C           0.0733618530        2.2884866844        3.6066189061
	 C          -0.0072114357        0.0018524983        4.9252429058
	 C          -0.0814971584       -2.2906326141        3.6165481489
	 C          -0.0710748179       -2.3115789324        0.9831801531
	 C           0.0080383815       -0.0158954393       -3.1247201969
	 H           0.1508162559        4.0751084561       -0.0579922621
	 H           0.1369508546        4.0675649755        4.6256174146
	 H          -0.0167713422        0.0065458290        6.9768076891
	 H          -0.1615278095       -4.0649420717        4.6434851675
	 H          -0.1415423575       -4.0940772884       -0.0396129616
	 N          -2.1801244106        0.0329871523       -4.3424250424
	 N           2.1837915306       -0.0262604426       -4.3659777940
	 H           2.3002412504        0.0449880317       -6.2818126197
	 H           3.8310678989       -0.1836724131       -3.3819957291
	 H          -3.8140747996        0.1941490751       -3.3366967755
	 H          -2.3181248147       -0.0117157354       -6.2594282064
	             0.0014940663        0.0009481686       -0.0050274978
	            -0.0012336467       -0.0013304785        0.0021163639
	            -0.0003683484        0.0002331605       -0.0007041254
	             0.0000802517        0.0000194569        0.0004367403
	             0.0003522646       -0.0000877824       -0.0008005869
	             0.0003069155        0.0012853921        0.0018840512
	            -0.0006630974       -0.0025612112        0.0054993546
	             0.0000437088        0.0009685531       -0.0005249097
	             0.0003198797        0.0000607529        0.0000836862
	            -0.0000233233       -0.0000077852        0.0000648660
	            -0.0003276527       -0.0001888611        0.0001521843
	            -0.0001938273       -0.0010430779       -0.0004995726
	             0.0027929472       -0.0006382038       -0.0020683114
	            -0.0025907276        0.0019059414       -0.0026059868
	            -0.0006469852        0.0008345686       -0.0012559330
	             0.0045991294       -0.0014749023        0.0025645847
	            -0.0045285420        0.0018064633        0.0027906452
	             0.0005917126       -0.0007316205       -0.0021018602

	---Fragment 1 Intrafragment Coordinates---
	 - Coordinate -           - BOHR/RAD -       - ANG/DEG -
	 R(1,2)           =         2.651076	       1.402889
	 R(1,6)           =         2.651112	       1.402908
	 R(1,7)           =         2.794914	       1.479005
	 R(2,3)           =         2.633384	       1.393527
	 R(2,8)           =         2.056174	       1.088080
	 R(3,4)           =         2.640825	       1.397464
	 R(3,9)           =         2.051224	       1.085461
	 R(4,5)           =         2.640774	       1.397438
	 R(4,10)          =         2.051592	       1.085656
	 R(5,6)           =         2.633472	       1.393573
	 R(5,11)          =         2.051628	       1.085675
	 R(6,12)          =         2.056301	       1.088147
	 R(7,13)          =         2.504646	       1.325402
	 R(7,14)          =         2.504941	       1.325558
	 R(13,17)         =         1.925424	       1.018890
	 R(13,18)         =         1.922484	       1.017335
	 R(14,15)         =         1.920693	       1.016387
	 R(14,16)         =         1.925232	       1.018789
	 B(1,2,3)         =         2.081128	     119.239846
	 B(1,2,8)         =         2.102293	     120.452493
	 B(1,6,5)         =         2.081159	     119.241609
	 B(1,6,12)        =         2.102846	     120.484188
	 B(1,7,13)        =         2.083885	     119.397812
	 B(1,7,14)        =         2.083818	     119.393996
	 B(2,1,6)         =         2.109484	     120.864521
	 B(2,1,7)         =         2.086765	     119.562805
	 B(2,3,4)         =         2.097172	     120.159122
	 B(2,3,9)         =         2.087105	     119.582323
	 B(3,2,8)         =         2.099749	     120.306745
	 B(3,4,5)         =         2.100279	     120.337097
	 B(3,4,10)        =         2.091485	     119.833242
	 B(4,3,9)         =         2.098896	     120.257877
	 B(4,5,6)         =         2.097107	     120.155355
	 B(4,5,11)        =         2.098798	     120.252272
	 B(5,4,10)        =         2.091419	     119.829492
	 B(5,6,12)        =         2.099176	     120.273903
	 B(6,1,7)         =         2.086752	     119.562093
	 B(6,5,11)        =         2.087254	     119.590862
	 B(7,13,17)       =         2.081821	     119.279542
	 B(7,13,18)       =         2.149633	     123.164913
	 B(7,14,15)       =         2.149308	     123.146274
	 B(7,14,16)       =         2.083184	     119.357654
	 B(13,7,14)       =         2.115307	     121.198152
	 B(15,14,16)      =         2.049876	     117.449236
	 B(17,13,18)      =         2.050913	     117.508659
	 D(1,2,3,4)       =        -0.003980	      -0.228037
	 D(1,2,3,9)       =         3.132399	     179.473240
	 D(1,6,5,4)       =         0.003707	       0.212417
	 D(1,6,5,11)      =         3.137515	     179.766352
	 D(1,7,13,17)     =         0.071879	       4.118369
	 D(1,7,13,18)     =        -3.114300	    -178.436264
	 D(1,7,14,15)     =        -3.094640	    -177.309799
	 D(1,7,14,16)     =         0.091540	       5.244843
	 D(2,1,6,5)       =        -0.009700	      -0.555790
	 D(2,1,6,12)      =         3.128428	     179.245748
	*D(2,1,7,13)      =        -1.570797	     -90.000019
	 D(2,1,7,14)      =         1.550924	      88.861380
	 D(2,3,4,5)       =        -0.001894	      -0.108517
	 D(2,3,4,10)      =        -3.140873	    -179.958759
	 D(3,2,1,6)       =         0.009836	       0.563585
	 D(3,2,1,7)       =         3.130686	     179.375081
	 D(3,4,5,6)       =         0.002032	       0.116440
	 D(3,4,5,11)      =        -3.131723	    -179.434522
	 D(4,3,2,8)       =        -3.139525	    -179.881542
	 D(4,5,6,12)      =        -3.134429	    -179.589549
	 D(5,4,3,9)       =        -3.138237	    -179.807761
	 D(5,6,1,7)       =        -3.130550	    -179.367295
	 D(6,1,2,8)       =        -3.137813	    -179.783427
	 D(6,1,7,13)      =         1.550326	      88.827109
	 D(6,1,7,14)      =        -1.611139	     -92.311493
	 D(6,5,4,10)      =         3.141011	     179.966688
	 D(7,1,2,8)       =        -0.016963	      -0.971931
	 D(7,1,6,12)      =         0.007579	       0.434244
	 D(8,2,3,9)       =        -0.003146	      -0.180264
	 D(9,3,4,10)      =         0.005969	       0.341997
	 D(10,4,5,11)     =         0.007256	       0.415726
	 D(11,5,6,12)     =        -0.000622	      -0.035613
	 D(13,7,14,15)    =         0.026712	       1.530496
	 D(13,7,14,16)    =        -3.070294	    -175.914862
	 D(14,7,13,17)    =        -3.049472	    -174.721883
	 D(14,7,13,18)    =         0.047534	       2.723484

	Current energy   :      -381.4636455317

	Energy change for the previous step:
		Projected    :         0.0002299906
		Actual       :        -0.0017040667

	Performing BFGS update.
	Previous computed or guess Hessian on step 1.
	Steps to be used in Hessian update: 1
	Taking RFO optimization step.
	Going to follow RFO solution 1.
	Using RFO vector 1.
	Norm of target step-size    0.16347
	Projected energy change by RFO approximation:         0.0002039141

	Back-transformation to cartesian coordinates...
	Could not converge backtransformation.
	Using first guess instead.

	Back-transformation to cartesian coordinates to adjust frozen coordinates...
	Successfully converged to displaced geometry.

	--- Internal Coordinate Step in ANG or DEG, aJ/ANG or AJ/DEG ---
	 ---------------------------------------------------------------------------
	   Coordinate                Previous        Force       Change         New 
	   ----------                --------       ------       ------       ------
	    1 R(1,2)          =      1.402889    -0.004531    -0.001307     1.401582
	    2 R(1,6)          =      1.402908    -0.004554    -0.001292     1.401617
	    3 R(1,7)          =      1.479005     0.023208     0.006426     1.485431
	    4 R(2,3)          =      1.393527     0.003172     0.000793     1.394320
	    5 R(2,8)          =      1.088080    -0.009081    -0.001522     1.086558
	    6 R(3,4)          =      1.397464    -0.000607    -0.000163     1.397302
	    7 R(3,9)          =      1.085461    -0.000858    -0.000072     1.085390
	    8 R(4,5)          =      1.397438    -0.000808    -0.000215     1.397223
	    9 R(4,10)         =      1.085656    -0.000533    -0.000113     1.085543
	   10 R(5,6)          =      1.393573     0.003190     0.000795     1.394369
	   11 R(5,11)         =      1.085675    -0.002077    -0.000268     1.085407
	   12 R(6,12)         =      1.088147    -0.009551    -0.001599     1.086549
	   13 R(7,13)         =      1.325402    -0.013842    -0.002275     1.323127
	   14 R(7,14)         =      1.325558    -0.014988    -0.002211     1.323346
	   15 R(13,17)        =      1.018890    -0.044920    -0.003889     1.015001
	   16 R(13,18)        =      1.017335    -0.017058    -0.001537     1.015798
	   17 R(14,15)        =      1.016387    -0.010256    -0.000194     1.016192
	   18 R(14,16)        =      1.018789    -0.044207    -0.004568     1.014221
	   19 B(1,2,3)        =    119.239846    -0.000048    -0.238298   119.001548
	   20 B(1,2,8)        =    120.452493     0.000022     0.071294   120.523786
	   21 B(1,6,5)        =    119.241609    -0.000044    -0.222535   119.019074
	   22 B(1,6,12)       =    120.484188     0.000015     0.048709   120.532897
	   23 B(1,7,13)       =    119.397812    -0.000083    -0.362568   119.035244
	   24 B(1,7,14)       =    119.393996    -0.000067    -0.311870   119.082126
	   25 B(2,1,6)        =    120.864521     0.000085     0.393677   121.258198
	   26 B(2,1,7)        =    119.562805    -0.000062    -0.266251   119.296553
	   27 B(2,3,4)        =    120.159122    -0.000006    -0.005533   120.153589
	   28 B(2,3,9)        =    119.582323     0.000000    -0.023687   119.558636
	   29 B(3,2,8)        =    120.306745     0.000027     0.167626   120.474372
	   30 B(3,4,5)        =    120.337097     0.000023     0.094533   120.431630
	   31 B(3,4,10)       =    119.833242    -0.000012    -0.050288   119.782954
	   32 B(4,3,9)        =    120.257877     0.000006     0.029890   120.287767
	   33 B(4,5,6)        =    120.155355    -0.000009    -0.021427   120.133928
	   34 B(4,5,11)       =    120.252272     0.000007     0.035492   120.287763
	   35 B(5,4,10)       =    119.829492    -0.000011    -0.044076   119.785416
	   36 B(5,6,12)       =    120.273903     0.000029     0.174099   120.448002
	   37 B(6,1,7)        =    119.562093    -0.000024    -0.127186   119.434907
	   38 B(6,5,11)       =    119.590862     0.000002    -0.012625   119.578237
	   39 B(7,13,17)      =    119.279542    -0.000033    -0.327041   118.952501
	   40 B(7,13,18)      =    123.164913     0.000074     0.442746   123.607659
	   41 B(7,14,15)      =    123.146274     0.000078     0.467488   123.613762
	   42 B(7,14,16)      =    119.357654    -0.000047    -0.403913   118.953741
	   43 B(13,7,14)      =    121.198152     0.000151     0.684421   121.882574
	   44 B(15,14,16)     =    117.449236    -0.000031    -0.033707   117.415529
	   45 B(17,13,18)     =    117.508659    -0.000039    -0.069833   117.438826
	   46 D(1,2,3,4)      =     -0.228037     0.000001     0.263652     0.035615
	   47 D(1,2,3,9)      =    179.473240     0.000003     0.594701   180.067941
	   48 D(1,6,5,4)      =      0.212417     0.000001     0.230837     0.443254
	   49 D(1,6,5,11)     =    179.766352     0.000003     0.579874   180.346226
	   50 D(1,7,13,17)    =      4.118369    -0.000018    -3.688770     0.429599
	   51 D(1,7,13,18)    =   -178.436264    -0.000007    -1.510295  -179.946559
	   52 D(1,7,14,15)    =   -177.309799    -0.000013    -2.874007  -180.183807
	   53 D(1,7,14,16)    =      5.244843    -0.000018    -3.889633     1.355209
	   54 D(2,1,6,5)      =     -0.555790    -0.000000     0.007809    -0.547982
	   55 D(2,1,6,12)     =    179.245748     0.000002     0.265232   179.510980
	   56 *D(2,1,7,13)    =    -90.000019    -0.000000     0.000000   -90.000019
	   57 D(2,1,7,14)     =     88.861380     0.000005     1.053771    89.915150
	   58 D(2,3,4,5)      =     -0.108517    -0.000000    -0.025925    -0.134442
	   59 D(2,3,4,10)     =   -179.958759    -0.000001    -0.167713  -180.126472
	   60 D(3,2,1,6)      =      0.563585    -0.000001    -0.254858     0.308727
	   61 D(3,2,1,7)      =    179.375081    -0.000001    -0.242945   179.132135
	   62 D(3,4,5,6)      =      0.116440    -0.000001    -0.225627    -0.109187
	   63 D(3,4,5,11)     =   -179.434522    -0.000003    -0.576943  -180.011465
	   64 D(4,3,2,8)      =   -179.881542    -0.000000     0.113320  -179.768222
	   65 D(4,5,6,12)     =   -179.589549    -0.000001    -0.026108  -179.615657
	   66 D(5,4,3,9)      =   -179.807761    -0.000002    -0.359245  -180.167006
	   67 D(5,6,1,7)      =   -179.367295     0.000000    -0.002496  -179.369791
	   68 D(6,1,2,8)      =   -179.783427     0.000001    -0.104109  -179.887536
	   69 D(6,1,7,13)     =     88.827109     0.000000     0.018004    88.845113
	   70 D(6,1,7,14)     =    -92.311493     0.000005     1.071775   -91.239718
	   71 D(6,5,4,10)     =    179.966688    -0.000000    -0.083845   179.882842
	   72 D(7,1,2,8)      =     -0.971931     0.000000    -0.092196    -1.064127
	   73 D(7,1,6,12)     =      0.434244     0.000002     0.254927     0.689171
	   74 D(8,2,3,9)      =     -0.180264     0.000001     0.444368     0.264104
	   75 D(9,3,4,10)     =      0.341997    -0.000003    -0.501033    -0.159036
	   76 D(10,4,5,11)    =      0.415726    -0.000002    -0.435161    -0.019435
	   77 D(11,5,6,12)    =     -0.035613     0.000001     0.322928     0.287315
	   78 D(13,7,14,15)   =      1.530496    -0.000009    -1.801650    -0.271154
	   79 D(13,7,14,16)   =   -175.914862    -0.000013    -2.817276  -178.732138
	   80 D(14,7,13,17)   =   -174.721883    -0.000022    -4.761210  -179.483093
	   81 D(14,7,13,18)   =      2.723484    -0.000011    -2.582735     0.140748
	 ---------------------------------------------------------------------------
	Successfully symmetrized geometry.

  ==> Convergence Check <==

  Measures of convergence in internal coordinates in au.
  Criteria marked as inactive (o), active & met (*), and active & unmet ( ).
  ---------------------------------------------------------------------------------------------
   Step     Total Energy     Delta E     MAX Force     RMS Force      MAX Disp      RMS Disp   
  ---------------------------------------------------------------------------------------------
    Convergence Criteria    1.00e-06 *    3.00e-04 *             o    1.20e-03 *             o
  ---------------------------------------------------------------------------------------------
      2    -381.46364553   -1.70e-03      5.45e-03      1.11e-03 o    8.31e-02      1.81e-02 o  ~
  ---------------------------------------------------------------------------------------------

	Writing optimization data to binary file.
	Structure for next step:
	Cartesian Geometry (in Angstrom)
	    C     0.0132077486  -0.0008210840  -0.1733631750
	    C     0.0490726736   1.2203044162   0.5136583993
	    C     0.0385751580   1.2120985615   1.9079145466
	    C    -0.0063508437   0.0004193801   2.6023692065
	    C    -0.0439426956  -1.2118721168   1.9087069257
	    C    -0.0391644715  -1.2209854053   0.5143760895
	    C     0.0045220861   0.0008611863  -1.6587674680
	    H     0.0877322827   2.1593504368  -0.0316001485
	    H     0.0649883075   2.1525662221   2.4491108534
	    H    -0.0122146155   0.0009795940   3.6878958052
	    H    -0.0786195510  -2.1517388633   2.4505149696
	    H    -0.0745599024  -2.1605248081  -0.0302346826
	    N    -1.1556580405   0.0317291266  -2.2941361790
	    N     1.1568957463  -0.0268305729  -2.3087779485
	    H     1.2311710599  -0.0303704572  -3.3222459289
	    H     2.0195672002  -0.0695627392  -1.7771613823
	    H    -2.0126741389   0.0602002230  -1.7510521586
	    H    -1.2425490037   0.0341969002  -3.3062077245
			--------------------------
			 OPTKING Finished Execution 
			--------------------------

    Structure for next step:
    Molecular point group: c1
    Full point group: C1

    Geometry (in Angstrom), charge = 1, multiplicity = 1:

    C            0.013207748628    -0.000821084026    -0.173363175035
    C            0.049072673600     1.220304416154     0.513658399282
    C            0.038575157956     1.212098561507     1.907914546646
    C           -0.006350843721     0.000419380111     2.602369206503
    C           -0.043942695621    -1.211872116799     1.908706925705
    C           -0.039164471546    -1.220985405305     0.514376089515
    C            0.004522086097     0.000861186344    -1.658767468041
    H            0.087732282676     2.159350436825    -0.031600148487
    H            0.064988307539     2.152566222107     2.449110853411
    H           -0.012214615500     0.000979593996     3.687895805193
    H           -0.078619550980    -2.151738863319     2.450514969649
    H           -0.074559902392    -2.160524808121    -0.030234682634
    N           -1.155658040539     0.031729126636    -2.294136178962
    N            1.156895746341    -0.026830572906    -2.308777948501
    H            1.231171059899    -0.030370457201    -3.322245928891
    H            2.019567200180    -0.069562739191    -1.777161382264
    H           -2.012674138918     0.060200223003    -1.751052158619
    H           -1.242549003699     0.034196900184    -3.306207724469

gradient() will perform analytic gradient computation.

*** tstart() called on rosa.prib.upf.edu
*** at Sat Sep 29 20:44:23 2018

   => Loading Basis Set <=

    Name: 6-31G*
    Role: ORBITAL
    Keyword: BASIS
    atoms 1-7         entry C          line   111 file /shared/joao/test_parameterize/miniconda3/share/psi4/basis/6-31gs.gbs 
    atoms 8-12, 15-18 entry H          line    44 file /shared/joao/test_parameterize/miniconda3/share/psi4/basis/6-31gs.gbs 
    atoms 13-14       entry N          line   128 file /shared/joao/test_parameterize/miniconda3/share/psi4/basis/6-31gs.gbs 


         ---------------------------------------------------------
                                   SCF
            by Justin Turney, Rob Parrish, Andy Simmonett
                             and Daniel Smith
                              RKS Reference
                        4 Threads,   2861 MiB Core
         ---------------------------------------------------------

  ==> Geometry <==

    Molecular point group: c1
    Full point group: C1

    Geometry (in Angstrom), charge = 1, multiplicity = 1:

       Center              X                  Y                   Z               Mass       
    ------------   -----------------  -----------------  -----------------  -----------------
[...]
	            -0.0000122117       -0.0000037697       -0.0000082793
	             0.0000125968        0.0000012322        0.0000079939
	            -0.0000253311        0.0000200041       -0.0000189785
	             0.0000287438       -0.0000011107       -0.0000432810
	            -0.0000110075        0.0000002792        0.0000024881
	             0.0000021142       -0.0000030537        0.0000022526
	             0.0000048944       -0.0000002903        0.0000023819
	            -0.0000001652        0.0000017072        0.0000021969
	             0.0000109951       -0.0000010940        0.0000028143
	            -0.0000193608        0.0000275181        0.0000301647
	            -0.0000206285        0.0000254559        0.0000109682
	             0.0000017863       -0.0000093512        0.0000231965
	            -0.0000079682       -0.0000088578       -0.0000169025
	             0.0000227234       -0.0000092976       -0.0000233648
	            -0.0000030563       -0.0000072731        0.0000055354

	---Fragment 1 Intrafragment Coordinates---
	 - Coordinate -           - BOHR/RAD -       - ANG/DEG -
	 R(1,2)           =         2.649128	       1.401858
	 R(1,6)           =         2.649027	       1.401805
	 R(1,7)           =         2.807079	       1.485442
	 R(2,3)           =         2.634962	       1.394362
	 R(2,8)           =         2.052880	       1.086337
	 R(3,4)           =         2.640455	       1.397269
	 R(3,9)           =         2.050945	       1.085313
	 R(4,5)           =         2.640424	       1.397252
	 R(4,10)          =         2.051492	       1.085603
	 R(5,6)           =         2.634997	       1.394380
	 R(5,11)          =         2.050947	       1.085314
	 R(6,12)          =         2.052884	       1.086340
	 R(7,13)          =         2.500524	       1.323221
	 R(7,14)          =         2.500461	       1.323187
	 R(13,17)         =         1.913585	       1.012625
	 R(13,18)         =         1.918110	       1.015020
	 R(14,15)         =         1.918073	       1.015000
	 R(14,16)         =         1.913623	       1.012645
	 B(1,2,3)         =         2.077099	     119.008989
	 B(1,2,8)         =         2.104208	     120.562261
	 B(1,6,5)         =         2.077099	     119.009002
	 B(1,6,12)        =         2.104231	     120.563541
	 B(1,7,13)        =         2.078411	     119.084165
	 B(1,7,14)        =         2.078590	     119.094453
	 B(2,1,6)         =         2.116380	     121.259669
	 B(2,1,7)         =         2.083203	     119.358738
	 B(2,3,4)         =         2.096670	     120.130315
	 B(2,3,9)         =         2.087569	     119.608867
	 B(3,2,8)         =         2.101878	     120.428746
	 B(3,4,5)         =         2.102441	     120.460975
	 B(3,4,10)        =         2.090372	     119.769510
	 B(4,3,9)         =         2.098947	     120.260818
	 B(4,5,6)         =         2.096682	     120.131048
	 B(4,5,11)        =         2.098957	     120.261392
	 B(5,4,10)        =         2.090372	     119.769514
	 B(5,6,12)        =         2.101856	     120.427455
	 B(6,1,7)         =         2.083602	     119.381591
	 B(6,5,11)        =         2.087546	     119.607559
	 B(7,13,17)       =         2.078368	     119.081719
	 B(7,13,18)       =         2.157523	     123.616953
	 B(7,14,15)       =         2.157516	     123.616534
	 B(7,14,16)       =         2.078403	     119.083724
	 B(13,7,14)       =         2.126184	     121.821380
	 B(15,14,16)      =         2.047266	     117.299713
	 B(17,13,18)      =         2.047294	     117.301304
	 D(1,2,3,4)       =         0.000218	       0.012502
	 D(1,2,3,9)       =        -3.141505	    -179.994955
	 D(1,6,5,4)       =         0.000240	       0.013745
	 D(1,6,5,11)      =        -3.141456	    -179.992191
	 D(1,7,13,17)     =        -0.000629	      -0.036018
	 D(1,7,13,18)     =        -3.141198	    -179.977386
	 D(1,7,14,15)     =         3.141213	     179.978240
	 D(1,7,14,16)     =         0.000735	       0.042116
	 D(2,1,6,5)       =        -0.000072	      -0.004103
	 D(2,1,6,12)      =        -3.141321	    -179.984424
	*D(2,1,7,13)      =        -1.570797	     -90.000019
	 D(2,1,7,14)      =         1.570501	      89.983054
	 D(2,3,4,5)       =        -0.000052	      -0.003003
	 D(2,3,4,10)      =         3.141397	     179.988762
	 D(3,2,1,6)       =        -0.000157	      -0.009010
	 D(3,2,1,7)       =         3.141189	     179.976847
	 D(3,4,5,6)       =        -0.000181	      -0.010353
	 D(3,4,5,11)      =         3.141516	     179.995622
	 D(4,3,2,8)       =         3.141388	     179.988251
	 D(4,5,6,12)      =         3.141490	     179.994093
	 D(5,4,3,9)       =        -3.141514	    -179.995497
	 D(5,6,1,7)       =        -3.141417	    -179.989957
	 D(6,1,2,8)       =        -3.141326	    -179.984725
	 D(6,1,7,13)      =         1.570554	      89.986107
	 D(6,1,7,14)      =        -1.571334	     -90.030820
	 D(6,5,4,10)      =         3.141556	     179.997883
	 D(7,1,2,8)       =         0.000020	       0.001132
	 D(7,1,6,12)      =         0.000519	       0.029722
	 D(8,2,3,9)       =        -0.000335	      -0.019206
	 D(9,3,4,10)      =        -0.000065	      -0.003732
	 D(10,4,5,11)     =         0.000067	       0.003857
	 D(11,5,6,12)     =        -0.000207	      -0.011842
	 D(13,7,14,15)    =        -0.000684	      -0.039169
	 D(13,7,14,16)    =        -3.141161	    -179.975293
	 D(14,7,13,17)    =         3.141268	     179.981389
	 D(14,7,13,18)    =         0.000698	       0.040021

	Current energy   :      -381.4640107225

	Energy change for the previous step:
		Projected    :        -0.0000012846
		Actual       :        -0.0000004978

	Performing BFGS update.
	Previous computed or guess Hessian on step 1.
	Steps to be used in Hessian update: 5 4
	Taking RFO optimization step.
	Going to follow RFO solution 1.
	Using RFO vector 1.
	Norm of target step-size    0.00190
	Projected energy change by RFO approximation:        -0.0000000152

	Back-transformation to cartesian coordinates...
	Could not converge backtransformation.
	Using first guess instead.

	Back-transformation to cartesian coordinates to adjust frozen coordinates...
	Successfully converged to displaced geometry.

	--- Internal Coordinate Step in ANG or DEG, aJ/ANG or AJ/DEG ---
	 ---------------------------------------------------------------------------
	   Coordinate                Previous        Force       Change         New 
	   ----------                --------       ------       ------       ------
	    1 R(1,2)          =      1.401858     0.000006    -0.000002     1.401857
	    2 R(1,6)          =      1.401805     0.000179     0.000030     1.401834
	    3 R(1,7)          =      1.485442    -0.000130    -0.000038     1.485404
	    4 R(2,3)          =      1.394362     0.000009    -0.000002     1.394360
	    5 R(2,8)          =      1.086337     0.000010     0.000002     1.086339
	    6 R(3,4)          =      1.397269     0.000002     0.000001     1.397269
	    7 R(3,9)          =      1.085313     0.000013     0.000002     1.085316
	    8 R(4,5)          =      1.397252     0.000040     0.000006     1.397258
	    9 R(4,10)         =      1.085603    -0.000017    -0.000004     1.085599
	   10 R(5,6)          =      1.394380    -0.000045    -0.000009     1.394371
	   11 R(5,11)         =      1.085314     0.000004     0.000001     1.085316
	   12 R(6,12)         =      1.086340     0.000005     0.000001     1.086340
	   13 R(7,13)         =      1.323221     0.000045     0.000006     1.323227
	   14 R(7,14)         =      1.323187     0.000261     0.000030     1.323217
	   15 R(13,17)        =      1.012625     0.000264     0.000050     1.012675
	   16 R(13,18)        =      1.015020     0.000041     0.000009     1.015029
	   17 R(14,15)        =      1.015000     0.000187     0.000034     1.015035
	   18 R(14,16)        =      1.012645     0.000129     0.000023     1.012669
	   19 B(1,2,3)        =    119.008989     0.000000     0.001778   119.010767
	   20 B(1,2,8)        =    120.562261    -0.000000    -0.001553   120.560708
	   21 B(1,6,5)        =    119.009002     0.000000     0.001705   119.010706
	   22 B(1,6,12)       =    120.563541    -0.000000    -0.001850   120.561690
	   23 B(1,7,13)       =    119.084165     0.000001     0.004910   119.089075
	   24 B(1,7,14)       =    119.094453    -0.000001    -0.003884   119.090569
	   25 B(2,1,6)        =    121.259669    -0.000001    -0.003240   121.256429
	   26 B(2,1,7)        =    119.358738     0.000003     0.009708   119.368446
	   27 B(2,3,4)        =    120.130315     0.000000     0.000682   120.130997
	   28 B(2,3,9)        =    119.608867    -0.000000    -0.001624   119.607243
	   29 B(3,2,8)        =    120.428746    -0.000000    -0.000221   120.428525
	   30 B(3,4,5)        =    120.460975    -0.000000    -0.001208   120.459768
	   31 B(3,4,10)       =    119.769510     0.000000     0.000631   119.770141
	   32 B(4,3,9)        =    120.260818     0.000000     0.000942   120.261760
	   33 B(4,5,6)        =    120.131048     0.000000     0.000284   120.131332
	   34 B(4,5,11)       =    120.261392     0.000000     0.000834   120.262226
	   35 B(5,4,10)       =    119.769514     0.000000     0.000577   119.770091
	   36 B(5,6,12)       =    120.427455     0.000000     0.000149   120.427603
	   37 B(6,1,7)        =    119.381591    -0.000002    -0.006467   119.375124
	   38 B(6,5,11)       =    119.607559    -0.000000    -0.001118   119.606442
	   39 B(7,13,17)      =    119.081719    -0.000001    -0.002442   119.079277
	   40 B(7,13,18)      =    123.616953     0.000000     0.000311   123.617263
	   41 B(7,14,15)      =    123.616534     0.000000     0.000466   123.617000
	   42 B(7,14,16)      =    119.083724    -0.000001    -0.003792   119.079932
	   43 B(13,7,14)      =    121.821380    -0.000000    -0.001024   121.820356
	   44 B(15,14,16)     =    117.299713     0.000001     0.003355   117.303068
	   45 B(17,13,18)     =    117.301304     0.000001     0.002152   117.303456
	   46 D(1,2,3,4)      =      0.012502    -0.000000    -0.018777    -0.006275
	   47 D(1,2,3,9)      =   -179.994955    -0.000000    -0.006410  -180.001365
	   48 D(1,6,5,4)      =      0.013745    -0.000000    -0.019361    -0.005616
	   49 D(1,6,5,11)     =   -179.992191    -0.000000    -0.007809  -180.000000
	   50 D(1,7,13,17)    =     -0.036018     0.000000     0.020008    -0.016010
	   51 D(1,7,13,18)    =   -179.977386    -0.000000    -0.014229  -179.991615
	   52 D(1,7,14,15)    =    179.978240     0.000000     0.021760   180.000000
	   53 D(1,7,14,16)    =      0.042116    -0.000000    -0.040145     0.001972
	   54 D(2,1,6,5)      =     -0.004103     0.000000     0.004103     0.000000
	   55 D(2,1,6,12)     =   -179.984424    -0.000000    -0.015576  -180.000000
	   56 *D(2,1,7,13)    =    -90.000019     0.000000     0.000000   -90.000019
	   57 D(2,1,7,14)     =     89.983054    -0.000000     0.011452    89.994506
	   58 D(2,3,4,5)      =     -0.003003     0.000000     0.004216     0.001213
	   59 D(2,3,4,10)     =    179.988762     0.000000     0.015840   180.004602
	   60 D(3,2,1,6)      =     -0.009010     0.000000     0.014488     0.005477
	   61 D(3,2,1,7)      =    179.976847     0.000000     0.030280   180.007127
	   62 D(3,4,5,6)      =     -0.010353     0.000000     0.015191     0.004838
	   63 D(3,4,5,11)     =    179.995622     0.000000     0.004378   180.000000
	   64 D(4,3,2,8)      =    179.988251     0.000000     0.009379   179.997629
	   65 D(4,5,6,12)     =    179.994093     0.000000     0.001371   179.995464
	   66 D(5,4,3,9)      =   -179.995497    -0.000000    -0.008233  -180.003730
	   67 D(5,6,1,7)      =   -179.989957    -0.000000    -0.011229  -180.001186
	   68 D(6,1,2,8)      =   -179.984725    -0.000000    -0.013707  -179.998433
	   69 D(6,1,7,13)     =     89.986107     0.000000     0.015492    90.001599
	   70 D(6,1,7,14)     =    -90.030820     0.000000     0.026944   -90.003876
	   71 D(6,5,4,10)     =    179.997883     0.000000     0.003566   180.001449
	   72 D(7,1,2,8)      =      0.001132    -0.000000     0.002085     0.003217
	   73 D(7,1,6,12)     =      0.029722    -0.000000    -0.031990    -0.002268
	   74 D(8,2,3,9)      =     -0.019206     0.000000     0.021746     0.002540
	   75 D(9,3,4,10)     =     -0.003732     0.000000     0.003732     0.000000
	   76 D(10,4,5,11)    =      0.003857    -0.000000    -0.007752    -0.003894
	   77 D(11,5,6,12)    =     -0.011842     0.000000     0.011842     0.000000
	   78 D(13,7,14,15)   =     -0.039169     0.000000     0.033999    -0.005170
	   79 D(13,7,14,16)   =   -179.975293    -0.000000    -0.028366  -180.003659
	   80 D(14,7,13,17)   =    179.981389     0.000000     0.008232   179.989621
	   81 D(14,7,13,18)   =      0.040021    -0.000000    -0.026005     0.014016
	 ---------------------------------------------------------------------------
	Successfully symmetrized geometry.

  ==> Convergence Check <==

  Measures of convergence in internal coordinates in au.
  Criteria marked as inactive (o), active & met (*), and active & unmet ( ).
  ---------------------------------------------------------------------------------------------
   Step     Total Energy     Delta E     MAX Force     RMS Force      MAX Disp      RMS Disp   
  ---------------------------------------------------------------------------------------------
    Convergence Criteria    1.00e-06 *    3.00e-04 *             o    1.20e-03 *             o
  ---------------------------------------------------------------------------------------------
      6    -381.46401072   -4.98e-07 *    3.38e-05 *    9.39e-06 o    7.01e-04 *    2.10e-04 o  ~
  ---------------------------------------------------------------------------------------------


  **** Optimization is complete! (in 6 steps) ****

  ==> Optimization Summary <==

  Measures of convergence in internal coordinates in au.
  --------------------------------------------------------------------------------------------------------------- ~
   Step         Total Energy             Delta E       MAX Force       RMS Force        MAX Disp        RMS Disp  ~
  --------------------------------------------------------------------------------------------------------------- ~
      1    -381.461941464988   -381.461941464988      0.00832964      0.00189728      0.11654549      0.03436438  ~
      2    -381.463645531671     -0.001704066683      0.00545228      0.00111208      0.08309880      0.01813379  ~
      3    -381.463982227059     -0.000336695388      0.00206516      0.00033211      0.02175500      0.00505524  ~
      4    -381.464005681290     -0.000023454231      0.00027398      0.00007336      0.01052045      0.00236042  ~
      5    -381.464010224675     -0.000004543385      0.00025500      0.00004273      0.00289760      0.00075336  ~
      6    -381.464010722502     -0.000000497827      0.00003381      0.00000939      0.00070066      0.00021027  ~
  --------------------------------------------------------------------------------------------------------------- ~

	Writing optimization data to binary file.
	Final energy is   -381.4640107225024
	Final (previous) structure:
	Cartesian Geometry (in Angstrom)
	    C     0.0002396452  -0.0001676485  -0.1730937609
	    C     0.0409679871   1.2208909669   0.5143387418
	    C     0.0403259542   1.2122422692   1.9086735008
	    C    -0.0001887089   0.0001057586   2.6025345367
	    C    -0.0404177066  -1.2121407245   1.9088821256
	    C    -0.0406417618  -1.2210519092   0.5145303004
	    C     0.0000971834   0.0000010389  -1.6585360958
	    H     0.0721823839   2.1604784178  -0.0300228085
	    H     0.0715838677   2.1519633135   2.4507547881
	    H    -0.0002764743   0.0001984882   3.6881374528
	    H    -0.0717534781  -2.1517759648   2.4511099693
	    H    -0.0717293167  -2.1607549509  -0.0296438121
	    N    -1.1556950809   0.0385581675  -2.3016302725
	    N     1.1556326248  -0.0380637701  -2.3020519400
	    H     1.2355074449  -0.0409093381  -3.3139005222
	    H     2.0156306909  -0.0671558712  -1.7681907756
	    H    -2.0154908204   0.0665724981  -1.7674235734
	    H    -1.2359754343   0.0410092584  -3.3134678545
	Saving final (previous) structure.
	Removing binary optimization data file.
			--------------------------
			 OPTKING Finished Execution 
			--------------------------

    Final optimized geometry and variables:
    Molecular point group: c1
    Full point group: C1

    Geometry (in Angstrom), charge = 1, multiplicity = 1:

    C            0.000239645248    -0.000167648490    -0.173093760884
    C            0.040967987121     1.220890966948     0.514338741798
    C            0.040325954153     1.212242269178     1.908673500808
    C           -0.000188708893     0.000105758629     2.602534536736
    C           -0.040417706573    -1.212140724454     1.908882125560
    C           -0.040641761756    -1.221051909238     0.514530300401
    C            0.000097183380     0.000001038915    -1.658536095762
    H            0.072182383931     2.160478417758    -0.030022808537
    H            0.071583867678     2.151963313549     2.450754788064
    H           -0.000276474333     0.000198488247     3.688137452843
    H           -0.071753478140    -2.151775964753     2.451109969268
    H           -0.071729316719    -2.160754950899    -0.029643812146
    N           -1.155695080943     0.038558167541    -2.301630272537
    N            1.155632624788    -0.038063770108    -2.302051939979
    H            1.235507444883    -0.040909338074    -3.313900522225
    H            2.015630690915    -0.067155871225    -1.768190775577
    H           -2.015490820441     0.066572498096    -1.767423573370
    H           -1.235975434299     0.041009258380    -3.313467854464

	Removing binary optimization data file.
	Cleaning optimization helper files.


Properties will be evaluated at   0.000000,   0.000000,   0.000000 [a0]
OEProp: No title given, name of density matrix used for the following properties is 'SCF density'
  Nuclear Dipole Moment: [e a0]
     X:     0.0029      Y:     0.0045      Z:    -0.2919

  Electronic Dipole Moment: [e a0]
     X:    -0.0030      Y:    -0.0052      Z:    -2.2972

  Dipole Moment: [e a0]
     X:    -0.0001      Y:    -0.0007      Z:    -2.5891     Total:     2.5891

  Dipole Moment: [D]
     X:    -0.0001      Y:    -0.0019      Z:    -6.5807     Total:     6.5807

  Quadrupole Moment: [D A]
    XX:   -41.8088     YY:   -45.1925     ZZ:   -13.5126
    XY:    -0.1115     XZ:    -0.0020     YZ:     0.0043

  Traceless Quadrupole Moment: [D A]
    XX:    -8.3042     YY:   -11.6879     ZZ:    19.9921
    XY:    -0.1115     XZ:    -0.0020     YZ:     0.0043

  Mulliken Charges: (a.u.)
   Center  Symbol    Alpha    Beta     Spin     Total
       1     C     2.99542  2.99542  0.00000  0.00917
       2     C     3.07008  3.07008  0.00000 -0.14016
       3     C     3.06289  3.06289  0.00000 -0.12579
       4     C     3.05379  3.05379  0.00000 -0.10758
       5     C     3.06290  3.06290  0.00000 -0.12580
       6     C     3.07010  3.07010  0.00000 -0.14020
       7     C     2.74885  2.74885  0.00000  0.50231
       8     H     0.41373  0.41373  0.00000  0.17255
       9     H     0.40754  0.40754  0.00000  0.18492
      10     H     0.40701  0.40701  0.00000  0.18598
      11     H     0.40754  0.40754  0.00000  0.18492
      12     H     0.41373  0.41373  0.00000  0.17254
      13     N     3.84326  3.84326  0.00000 -0.68653
      14     N     3.84327  3.84327  0.00000 -0.68654
      15     H     0.30491  0.30491  0.00000  0.39018
      16     H     0.29503  0.29503  0.00000  0.40993
      17     H     0.29504  0.29504  0.00000  0.40993
      18     H     0.30491  0.30491  0.00000  0.39017

   Total alpha = 32.00000, Total beta = 32.00000, Total charge =  1.00000


    Psi4 stopped on: Saturday, 29 September 2018 08:46PM
    Psi4 wall time for execution: 0:02:53.29

*** Psi4 exiting successfully. Buy a developer a beer!
