
    -----------------------------------------------------------------------
          Psi4: An Open-Source Ab Initio Electronic Structure Package
                               Psi4 1.2.1 release

                         Git: Rev {HEAD} 406f4de 


    R. M. Parrish, L. A. Burns, D. G. A. Smith, A. C. Simmonett,
    A. E. DePrince III, E. G. Hohenstein, U. Bozkaya, A. Yu. Sokolov,
    R. Di Remigio, R. M. Richard, J. F. Gonthier, A. M. James,
    H. R. McAlexander, A. Kumar, M. Saitow, X. Wang, B. P. Pritchard,
    P. Verma, H. F. Schaefer III, K. Patkowski, R. A. King, E. F. Valeev,
    F. A. Evangelista, J. M. Turney, T. D. Crawford, and C. D. Sherrill,
    J. Chem. Theory Comput. 13(7) pp 3185--3197 (2017).
    (doi: 10.1021/acs.jctc.7b00174)


                         Additional Contributions by
    P. Kraus, H. Kruse, M. H. Lechner, M. C. Schieber, and R. A. Shaw

    -----------------------------------------------------------------------


    Psi4 started on: Saturday, 29 September 2018 08:31PM

    Process ID: 16826
    Host:       green.prib.upf.edu
    PSIDATADIR: /shared/joao/test_parameterize/miniconda3/share/psi4
    Memory:     500.0 MiB
    Threads:    1
    
  ==> Input File <==

--------------------------------------------------------------------------
set_num_threads(4)
set_memory('3000 MB')

set { scf_mem_safety_factor 0.7 }

set { reference rks }
set { basis 6-31G* }

molecule MOL {
    1 1
    noreorient
    nocom
    symmetry c1
    C   -0.000000  -0.000000  -0.177864
    C    0.036678   1.219374   0.524165
    C    0.031765   1.213120   1.915444
    C    0.000000   0.000000   2.610107
    C   -0.031765  -1.213120   1.915444
    C   -0.036678  -1.219375   0.524165
    C   -0.000000   0.000000  -1.644734
    H    0.018170   2.164705  -0.010854
    H    0.042402   2.152895   2.457886
    H    0.000000   0.000000   3.695756
    H   -0.042402  -2.152895   2.457886
    H   -0.018170  -2.164705  -0.010853
    N   -0.712590  -0.905950  -2.308461
    N    0.712590   0.905950  -2.308460
    H    0.673432   1.006470  -3.315997
    H    1.377190   1.485970  -1.813316
    H   -1.684641  -1.055027  -2.071444
    H   -0.346373  -1.422110  -3.099808
}

set optking { frozen_dihedral = (" 1 7 13 17 ") }

set optking { dynamic_level = 1 
 geom_maxiter = 250
 print_trajectory_xyz_file = True }

energy, wfn = optimize('B3LYP-D3', return_wfn=True)

import os
os.chdir(os.environ['HTMD_PSI4_WORKDIR'])

oeprop(wfn, 'DIPOLE', 'QUADRUPOLE', 'MULLIKEN_CHARGES')

with open('psi4out.xyz', 'w') as f:
    f.write('18 ' )
    f.write('%.12f\n' % energy)
    f.write(MOL.save_string_xyz())
--------------------------------------------------------------------------
  Threads set to 4 by Python driver.

  Memory set to   2.794 GiB by Python driver.
gradient() will perform analytic gradient computation.

*** tstart() called on green.prib.upf.edu
*** at Sat Sep 29 20:31:21 2018

   => Loading Basis Set <=

    Name: 6-31G*
    Role: ORBITAL
    Keyword: BASIS
    atoms 1-7         entry C          line   111 file /shared/joao/test_parameterize/miniconda3/share/psi4/basis/6-31gs.gbs 
    atoms 8-12, 15-18 entry H          line    44 file /shared/joao/test_parameterize/miniconda3/share/psi4/basis/6-31gs.gbs 
    atoms 13-14       entry N          line   128 file /shared/joao/test_parameterize/miniconda3/share/psi4/basis/6-31gs.gbs 


         ---------------------------------------------------------
                                   SCF
            by Justin Turney, Rob Parrish, Andy Simmonett
                             and Daniel Smith
                              RKS Reference
                        4 Threads,   2861 MiB Core
         ---------------------------------------------------------

  ==> Geometry <==

    Molecular point group: c1
    Full point group: C1

    Geometry (in Angstrom), charge = 1, multiplicity = 1:

       Center              X                  Y                   Z               Mass       
    ------------   -----------------  -----------------  -----------------  -----------------
         C            0.000000000000     0.000000000000    -0.177864000000    12.000000000000
         C            0.036678000000     1.219374000000     0.524165000000    12.000000000000
         C            0.031765000000     1.213120000000     1.915444000000    12.000000000000
         C            0.000000000000     0.000000000000     2.610107000000    12.000000000000
         C           -0.031765000000    -1.213120000000     1.915444000000    12.000000000000
         C           -0.036678000000    -1.219375000000     0.524165000000    12.000000000000
         C            0.000000000000     0.000000000000    -1.644734000000    12.000000000000
         H            0.018170000000     2.164705000000    -0.010854000000     1.007825032070
         H            0.042402000000     2.152895000000     2.457886000000     1.007825032070
         H            0.000000000000     0.000000000000     3.695756000000     1.007825032070
         H           -0.042402000000    -2.152895000000     2.457886000000     1.007825032070
         H           -0.018170000000    -2.164705000000    -0.010853000000     1.007825032070
         N           -0.712590000000    -0.905950000000    -2.308461000000    14.003074004780
         N            0.712590000000     0.905950000000    -2.308460000000    14.003074004780
         H            0.673432000000     1.006470000000    -3.315997000000     1.007825032070
         H            1.377190000000     1.485970000000    -1.813316000000     1.007825032070
         H           -1.684641000000    -1.055027000000    -2.071444000000     1.007825032070
         H           -0.346373000000    -1.422110000000    -3.099808000000     1.007825032070

  Running in c1 symmetry.

  Rotational constants: A =      0.12144  B =      0.03954  C =      0.03133 [cm^-1]
  Rotational constants: A =   3640.66116  B =   1185.30402  C =    939.17003 [MHz]
  Nuclear repulsion =  416.681700455795408

  Charge       = 1
  Multiplicity = 1
  Electrons    = 64
  Nalpha       = 32
  Nbeta        = 32

  ==> Algorithm <==

  SCF Algorithm Type is DF.
  DIIS enabled.
  MOM disabled.
  Fractional occupation disabled.
  Guess Type is SAD.
  Energy threshold   = 1.00e-08
  Density threshold  = 1.00e-08
  Integral threshold = 0.00e+00

  ==> Primary Basis <==

  Basis Set: 6-31G*
    Blend: 6-31G*
    Number of shells: 72
    Number of basis function: 153
    Number of Cartesian functions: 153
    Spherical Harmonics?: false
    Max angular momentum: 2

  ==> DFT Potential <==

   => Composite Functional: B3LYP-D3ZERO <= 

    B3LYP-d3zero Hyb-GGA Exchange-Correlation Functional

    P. J. Stephens, F. J. Devlin, C. F. Chabalowski, and M. J. Frisch, J. Phys. Chem. 98, 11623 (1994)

    Deriv               =              1
    GGA                 =           TRUE
    Meta                =          FALSE

    Exchange Hybrid     =           TRUE
    MP2 Hybrid          =          FALSE

   => Exchange Functionals <=

    0.0800   Slater exchange
    0.7200         Becke 88

   => Exact (HF) Exchange <=

    0.2000               HF 

   => Correlation Functionals <=

    0.1900   Vosko, Wilk & Nusair (VWN5_RPA)
    0.8100   Lee, Yang & Parr

   => Molecular Quadrature <=

    Radial Scheme       =       TREUTLER
    Pruning Scheme      =           FLAT
    Nuclear Scheme      =       TREUTLER

    BS radius alpha     =              1
    Pruning alpha       =              1
    Radial Points       =             75
    Spherical Points    =            302
    Total Points        =         397083
    Total Blocks        =           3008
    Max Points          =            256
    Max Functions       =            149

   => -D3ZERO: Empirical Dispersion <=

    Grimme's -D3 (zero-damping) Dispersion Correction
    Grimme S.; Antony J.; Ehrlich S.; Krieg H. (2010), J. Chem. Phys., 132: 154104

        S6 =   1.000000E+00
        S8 =   1.703000E+00
       SR6 =   1.261000E+00
       SR8 =   1.000000E+00
    ALPHA6 =   1.400000E+01

   => Loading Basis Set <=

    Name: (6-31G* AUX)
    Role: JKFIT
    Keyword: DF_BASIS_SCF
    atoms 1-7         entry C          line   121 file /shared/joao/test_parameterize/miniconda3/share/psi4/basis/cc-pvdz-jkfit.gbs 
    atoms 8-12, 15-18 entry H          line    51 file /shared/joao/test_parameterize/miniconda3/share/psi4/basis/cc-pvdz-jkfit.gbs 
    atoms 13-14       entry N          line   171 file /shared/joao/test_parameterize/miniconda3/share/psi4/basis/cc-pvdz-jkfit.gbs 

  ==> Pre-Iterations <==

   -------------------------------------------------------
    Irrep   Nso     Nmo     Nalpha   Nbeta   Ndocc  Nsocc
   -------------------------------------------------------
     A        153     153       0       0       0       0
   -------------------------------------------------------
    Total     153     153      32      32      32       0
   -------------------------------------------------------

  ==> Integral Setup <==

  ==> DiskDFJK: Density-Fitted J/K Matrices <==

    J tasked:                  Yes
    K tasked:                  Yes
    wK tasked:                  No
    OpenMP threads:              4
    Integrals threads:           4
    Memory (MB):              2002
    Algorithm:                Core
    Integral Cache:           NONE
    Schwarz Cutoff:          1E-12
    Fitting Condition:       1E-12

   => Auxiliary Basis Set <=

  Basis Set: (6-31G* AUX)
    Blend: CC-PVDZ-JKFIT
    Number of shells: 297
    Number of basis function: 954
    Number of Cartesian functions: 954
    Spherical Harmonics?: false
    Max angular momentum: 3

  Minimum eigenvalue in the overlap matrix is 4.8728468981E-04.
  Using Symmetric Orthogonalization.

  SCF Guess: Superposition of Atomic Densities via on-the-fly atomic UHF.

  ==> Iterations <==

                           Total Energy        Delta E     RMS |[F,P]|

   @DF-RKS iter   0:  -379.61430127178824   -3.79614e+02   6.73162e-02 
   @DF-RKS iter   1:  -381.01754499263649   -1.40324e+00   1.20663e-02 
   @DF-RKS iter   2:  -380.88559172893656    1.31953e-01   1.35761e-02 DIIS
   @DF-RKS iter   3:  -381.44025960582644   -5.54668e-01   2.30000e-03 DIIS
   @DF-RKS iter   4:  -381.45294569099855   -1.26861e-02   8.80369e-04 DIIS
   @DF-RKS iter   5:  -381.45482592698733   -1.88024e-03   3.06345e-04 DIIS
   @DF-RKS iter   6:  -381.45506187124397   -2.35944e-04   9.62809e-05 DIIS
   @DF-RKS iter   7:  -381.45508736592967   -2.54947e-05   2.57215e-05 DIIS
   @DF-RKS iter   8:  -381.45508925552076   -1.88959e-06   6.85569e-06 DIIS
   @DF-RKS iter   9:  -381.45508939729450   -1.41774e-07   2.85171e-06 DIIS
   @DF-RKS iter  10:  -381.45508942172341   -2.44289e-08   6.47524e-07 DIIS
   @DF-RKS iter  11:  -381.45508942279980   -1.07639e-09   2.29309e-07 DIIS
   @DF-RKS iter  12:  -381.45508942294646   -1.46656e-10   9.24279e-08 DIIS
   @DF-RKS iter  13:  -381.45508942297687   -3.04112e-11   1.67828e-08 DIIS
   @DF-RKS iter  14:  -381.45508942297681    5.68434e-14   4.44424e-09 DIIS

  ==> Post-Iterations <==

    Orbital Energies [Eh]
    ---------------------

    Doubly Occupied:                                                      

       1A    -14.573787     2A    -14.548741     3A    -10.494418  
       4A    -10.370432     5A    -10.356391     6A    -10.355224  
       7A    -10.345350     8A    -10.340734     9A    -10.339913  
      10A     -1.179149    11A     -1.086424    12A     -1.013649  
      13A     -0.924816    14A     -0.901717    15A     -0.842131  
      16A     -0.779194    17A     -0.768274    18A     -0.741105  
      19A     -0.728429    20A     -0.701436    21A     -0.669925  
      22A     -0.626274    23A     -0.607459    24A     -0.581905  
      25A     -0.577185    26A     -0.558503    27A     -0.518366  
      28A     -0.505446    29A     -0.497358    30A     -0.464499  
      31A     -0.413899    32A     -0.405362  

    Virtual:                                                              

      33A     -0.234178    34A     -0.155252    35A     -0.134722  
      36A     -0.099669    37A     -0.070743    38A     -0.050071  
      39A     -0.037095    40A     -0.017650    41A      0.007556  
      42A      0.011214    43A      0.022403    44A      0.054322  
      45A      0.061682    46A      0.090919    47A      0.134538  
      48A      0.141315    49A      0.155844    50A      0.158596  
      51A      0.206699    52A      0.242538    53A      0.299227  
      54A      0.354834    55A      0.357313    56A      0.382907  
      57A      0.393927    58A      0.397706    59A      0.418112  
      60A      0.423190    61A      0.442909    62A      0.449439  
      63A      0.453141    64A      0.471019    65A      0.473950  
      66A      0.482948    67A      0.487719    68A      0.512161  
      69A      0.524397    70A      0.540875    71A      0.551062  
      72A      0.589235    73A      0.613276    74A      0.645184  
      75A      0.670032    76A      0.686436    77A      0.694991  
      78A      0.702397    79A      0.707455    80A      0.723623  
      81A      0.728531    82A      0.740679    83A      0.772968  
      84A      0.782184    85A      0.808064    86A      0.821160  
      87A      0.855483    88A      0.921186    89A      0.950185  
      90A      0.974111    91A      1.002574    92A      1.020093  
      93A      1.057531    94A      1.073956    95A      1.117756  
      96A      1.143728    97A      1.241183    98A      1.276670  
      99A      1.279794   100A      1.311055   101A      1.320702  
     102A      1.342555   103A      1.361253   104A      1.390709  
     105A      1.432896   106A      1.466701   107A      1.533497  
     108A      1.602731   109A      1.628279   110A      1.662728  
     111A      1.695930   112A      1.734939   113A      1.749143  
     114A      1.789656   115A      1.811932   116A      1.829887  
     117A      1.891289   118A      1.917401   119A      1.966573  
     120A      1.976826   121A      1.982728   122A      1.999570  
     123A      2.025337   124A      2.037913   125A      2.124023  
     126A      2.132136   127A      2.155037   128A      2.194370  
     129A      2.239762   130A      2.350973   131A      2.367971  
     132A      2.375175   133A      2.446067   134A      2.451148  
     135A      2.488098   136A      2.512696   137A      2.554653  
     138A      2.586399   139A      2.600299   140A      2.630689  
     141A      2.735608   142A      2.850216   143A      2.980551  
     144A      3.258227   145A      3.628941   146A      3.674788  
     147A      3.912898   148A      3.946397   149A      3.964124  
     150A      4.045228   151A      4.174254   152A      4.253818  
     153A      4.546395  

    Final Occupation by Irrep:
              A 
    DOCC [    32 ]

  Energy converged.

  @DF-RKS Final Energy:  -381.45508942297681

   => Energetics <=

    Nuclear Repulsion Energy =            416.6817004557954078
    One-Electron Energy =               -1328.6896769273560039
    Two-Electron Energy =                 574.9722664375273098
    DFT Exchange-Correlation Energy =     -44.4074690389435602
    Empirical Dispersion Energy =          -0.0119103500000000
    VV10 Nonlocal Energy =                  0.0000000000000000
    Total Energy =                       -381.4550894229768119



Properties will be evaluated at   0.000000,   0.000000,   0.000000 [a0]

Properties computed using the SCF density matrix

  Nuclear Dipole Moment: [e a0]
     X:     0.0371      Y:     0.0289      Z:    -0.0545

  Electronic Dipole Moment: [e a0]
     X:     0.0539      Y:     0.0375      Z:    -2.1127

  Dipole Moment: [e a0]
     X:     0.0910      Y:     0.0664      Z:    -2.1672     Total:     2.1701

  Dipole Moment: [D]
     X:     0.2312      Y:     0.1688      Z:    -5.5085     Total:     5.5159


*** tstop() called on green.prib.upf.edu at Sat Sep 29 20:31:50 2018
Module time:
	user time   =     103.36 seconds =       1.72 minutes
	system time =       0.58 seconds =       0.01 minutes
	total time  =         29 seconds =       0.48 minutes
Total time:
	user time   =     103.36 seconds =       1.72 minutes
	system time =       0.58 seconds =       0.01 minutes
	total time  =         29 seconds =       0.48 minutes

*** tstart() called on green.prib.upf.edu
*** at Sat Sep 29 20:31:50 2018


         ------------------------------------------------------------
                                   SCF GRAD                          
                          Rob Parrish, Justin Turney,                
                       Andy Simmonett, and Alex Sokolov              
         ------------------------------------------------------------

  ==> Geometry <==

    Molecular point group: c1
    Full point group: C1

    Geometry (in Angstrom), charge = 1, multiplicity = 1:

       Center              X                  Y                   Z               Mass       
    ------------   -----------------  -----------------  -----------------  -----------------
         C            0.000000000000     0.000000000000    -0.177864000000    12.000000000000
         C            0.036678000000     1.219374000000     0.524165000000    12.000000000000
         C            0.031765000000     1.213120000000     1.915444000000    12.000000000000
         C            0.000000000000     0.000000000000     2.610107000000    12.000000000000
         C           -0.031765000000    -1.213120000000     1.915444000000    12.000000000000
         C           -0.036678000000    -1.219375000000     0.524165000000    12.000000000000
         C            0.000000000000     0.000000000000    -1.644734000000    12.000000000000
         H            0.018170000000     2.164705000000    -0.010854000000     1.007825032070
         H            0.042402000000     2.152895000000     2.457886000000     1.007825032070
         H            0.000000000000     0.000000000000     3.695756000000     1.007825032070
         H           -0.042402000000    -2.152895000000     2.457886000000     1.007825032070
         H           -0.018170000000    -2.164705000000    -0.010853000000     1.007825032070
         N           -0.712590000000    -0.905950000000    -2.308461000000    14.003074004780
         N            0.712590000000     0.905950000000    -2.308460000000    14.003074004780
         H            0.673432000000     1.006470000000    -3.315997000000     1.007825032070
         H            1.377190000000     1.485970000000    -1.813316000000     1.007825032070
         H           -1.684641000000    -1.055027000000    -2.071444000000     1.007825032070
         H           -0.346373000000    -1.422110000000    -3.099808000000     1.007825032070

  Nuclear repulsion =  416.681700455795408

  ==> Basis Set <==

  Basis Set: 6-31G*
    Blend: 6-31G*
    Number of shells: 72
    Number of basis function: 153
    Number of Cartesian functions: 153
    Spherical Harmonics?: false
    Max angular momentum: 2

  ==> DFJKGrad: Density-Fitted SCF Gradients <==

    Gradient:                    1
    J tasked:                  Yes
    K tasked:                  Yes
    wK tasked:                  No
    OpenMP threads:              4
    Integrals threads:           4
    Memory (MB):              2002
    Schwarz Cutoff:          0E+00
    Fitting Condition:       1E-12

   => Auxiliary Basis Set <=

  Basis Set: (6-31G* AUX)
    Blend: CC-PVDZ-JKFIT
    Number of shells: 297
    Number of basis function: 954
    Number of Cartesian functions: 954
    Spherical Harmonics?: false
    Max angular momentum: 3

  ==> DFT Potential <==

   => Composite Functional: B3LYP-D3ZERO <= 

    B3LYP-d3zero Hyb-GGA Exchange-Correlation Functional

    P. J. Stephens, F. J. Devlin, C. F. Chabalowski, and M. J. Frisch, J. Phys. Chem. 98, 11623 (1994)

    Deriv               =              1
    GGA                 =           TRUE
    Meta                =          FALSE

    Exchange Hybrid     =           TRUE
    MP2 Hybrid          =          FALSE

   => Exchange Functionals <=

    0.0800   Slater exchange
    0.7200         Becke 88

   => Exact (HF) Exchange <=

    0.2000               HF 

   => Correlation Functionals <=

    0.1900   Vosko, Wilk & Nusair (VWN5_RPA)
    0.8100   Lee, Yang & Parr

   => Molecular Quadrature <=

    Radial Scheme       =       TREUTLER
    Pruning Scheme      =           FLAT
    Nuclear Scheme      =       TREUTLER

    BS radius alpha     =              1
    Pruning alpha       =              1
    Radial Points       =             75
    Spherical Points    =            302
    Total Points        =         397083
    Total Blocks        =           3008
    Max Points          =            256
    Max Functions       =            149


  -Total Gradient:
     Atom            X                  Y                   Z
    ------   -----------------  -----------------  -----------------
       1        0.005652549872    -0.007990105578     0.006560043580
       2       -0.000416456513    -0.001277456285    -0.004581707790
       3       -0.000631599651    -0.002269602389     0.001494995090
       4        0.000116305473     0.000619847939    -0.000113834589
       5       -0.000795712890     0.000058813042     0.000745263589
       6        0.000826304459     0.003293166700    -0.000228905694
       7       -0.008731410991    -0.015019780599    -0.015157631286
       8        0.000380743597    -0.000126141506     0.000085187865
       9        0.000067969071     0.000034221933    -0.000203290242
      10        0.000168624269    -0.000073175362    -0.000089488122
      11       -0.000074573861     0.000003763590     0.000024068307
      12        0.001571071472    -0.001364248606     0.000978784964
      13        0.007289830597     0.015287874542     0.013463556834
      14       -0.004773413937     0.006759660376    -0.002802696066
      15        0.002305753029     0.001206251338     0.000918948558
      16       -0.003131525705     0.000311602131    -0.000207737457
      17       -0.003168251830     0.009721524500    -0.008408179578
      18        0.003334830462    -0.009180473952     0.007517849026


*** tstop() called on green.prib.upf.edu at Sat Sep 29 20:31:56 2018
Module time:
	user time   =      25.98 seconds =       0.43 minutes
	system time =       0.27 seconds =       0.00 minutes
	total time  =          6 seconds =       0.10 minutes
Total time:
	user time   =     129.40 seconds =       2.16 minutes
	system time =       0.85 seconds =       0.01 minutes
	total time  =         35 seconds =       0.58 minutes

			-----------------------------------------
			 OPTKING 2.0: for geometry optimizations 
			  - R.A. King,  Bethel University        
			-----------------------------------------
	At level 1: Red. Int., RFO, no backsteps, dynamic trust

	Internal coordinates to be generated automatically.
	Detected frag 1 with atoms:  1 2 3 4 5 6 7 8 9 10 11 12 13 14 15 16 17 18
	---Fragment 1 Bond Connectivity---
	 1 : 2 6 7
	 2 : 1 3 8
	 3 : 2 4 9
	 4 : 3 5 10
	 5 : 4 6 11
	 6 : 1 5 12
	 7 : 1 13 14
	 8 : 2
	 9 : 3
	 10 : 4
	 11 : 5
	 12 : 6
	 13 : 7 17 18
	 14 : 7 15 16
	 15 : 14
	 16 : 14
	 17 : 13
	 18 : 13

	Assuming in current code that numbering for constraints corresponds to unified fragment.
	Frozen dihedral atom list: 
	     1     7    13    17
	---Fragment 1 Geometry and Gradient---
	 C           0.0000000000        0.0000000000       -0.3361142489
	 C           0.0693113751        2.3042829136        0.9905282984
	 C           0.0600271506        2.2924645663        3.6196645829
	 C           0.0000000000        0.0000000000        4.9323874075
	 C          -0.0600271506       -2.2924645663        3.6196645829
	 C          -0.0693113751       -2.3042848033        0.9905282984
	 C           0.0000000000        0.0000000000       -3.1080968214
	 H           0.0343363238        4.0906996085       -0.0205110874
	 H           0.0801281675        4.0683819429        4.6447314059
	 H           0.0000000000        0.0000000000        6.9839666940
	 H          -0.0801281675       -4.0683819429        4.6447314059
	 H          -0.0343363238       -4.0906996085       -0.0205091977
	 N          -1.3465999450       -1.7119973901       -4.3623590784
	 N           1.3465999450        1.7119973901       -4.3623571887
	 H           1.2726020491        1.9019526610       -6.2663261875
	 H           2.6025119329        2.8080763417       -3.4266706324
	 H          -3.1835101222       -1.9937120928       -3.9144618596
	 H          -0.6545501098       -2.6873984308       -5.8577881845
	             0.0056525499       -0.0079901056        0.0065600436
	            -0.0004164565       -0.0012774563       -0.0045817078
	            -0.0006315997       -0.0022696024        0.0014949951
	             0.0001163055        0.0006198479       -0.0001138346
	            -0.0007957129        0.0000588130        0.0007452636
	             0.0008263045        0.0032931667       -0.0002289057
	            -0.0087314110       -0.0150197806       -0.0151576313
	             0.0003807436       -0.0001261415        0.0000851879
	             0.0000679691        0.0000342219       -0.0002032902
	             0.0001686243       -0.0000731754       -0.0000894881
	            -0.0000745739        0.0000037636        0.0000240683
	             0.0015710715       -0.0013642486        0.0009787850
	             0.0072898306        0.0152878745        0.0134635568
	            -0.0047734139        0.0067596604       -0.0028026961
	             0.0023057530        0.0012062513        0.0009189486
	            -0.0031315257        0.0003116021       -0.0002077375
	            -0.0031682518        0.0097215245       -0.0084081796
	             0.0033348305       -0.0091804740        0.0075178490

	Previous optimization step data not found.  Starting new optimization.

	---Fragment 1 Intrafragment Coordinates---
	 - Coordinate -           - BOHR/RAD -       - ANG/DEG -
	 R(1,2)           =         2.659794	       1.407502
	 R(1,6)           =         2.659796	       1.407503
	 R(1,7)           =         2.771983	       1.466870
	 R(2,3)           =         2.629179	       1.391302
	 R(2,8)           =         2.052976	       1.086388
	 R(3,4)           =         2.642393	       1.398294
	 R(3,9)           =         2.050622	       1.085142
	 R(4,5)           =         2.642393	       1.398294
	 R(4,10)          =         2.051579	       1.085649
	 R(5,6)           =         2.629179	       1.391302
	 R(5,11)          =         2.050622	       1.085142
	 R(6,12)          =         2.052973	       1.086386
	 R(7,13)          =         2.513452	       1.330061
	 R(7,14)          =         2.513451	       1.330061
	 R(13,17)         =         1.911600	       1.011575
	 R(13,18)         =         1.914849	       1.013295
	 R(14,15)         =         1.914852	       1.013296
	 R(14,16)         =         1.911600	       1.011575
	 B(1,2,3)         =         2.088380	     119.655376
	 B(1,2,8)         =         2.103396	     120.515689
	 B(1,6,5)         =         2.088379	     119.655315
	 B(1,6,12)        =         2.103396	     120.515729
	 B(1,7,13)        =         2.093264	     119.935172
	 B(1,7,14)        =         2.093263	     119.935135
	 B(2,1,6)         =         2.097220	     120.161857
	 B(2,1,7)         =         2.092983	     119.919082
	 B(2,3,4)         =         2.095279	     120.050636
	 B(2,3,9)         =         2.089719	     119.732108
	 B(3,2,8)         =         2.090149	     119.756722
	 B(3,4,5)         =         2.101793	     120.423859
	 B(3,4,10)        =         2.090696	     119.788070
	 B(4,3,9)         =         2.098135	     120.214297
	 B(4,5,6)         =         2.095280	     120.050677
	 B(4,5,11)        =         2.098135	     120.214297
	 B(5,4,10)        =         2.090696	     119.788070
	 B(5,6,12)        =         2.090149	     119.756743
	 B(6,1,7)         =         2.092982	     119.919061
	 B(6,5,11)        =         2.089719	     119.732067
	 B(7,13,17)       =         2.092411	     119.886331
	 B(7,13,18)       =         2.144860	     122.891430
	 B(7,14,15)       =         2.144860	     122.891405
	 B(7,14,16)       =         2.092412	     119.886393
	 B(13,7,14)       =         2.096659	     120.129694
	 B(15,14,16)      =         2.043399	     117.078146
	 B(17,13,18)      =         2.043400	     117.078176
	 D(1,2,3,4)       =         0.007799	       0.446825
	 D(1,2,3,9)       =        -3.122896	    -178.928735
	 D(1,6,5,4)       =         0.007799	       0.446822
	 D(1,6,5,11)      =        -3.122896	    -178.928737
	*D(1,7,13,17)     =         0.872665	      49.999998
	 D(1,7,13,18)     =        -2.347346	    -134.493001
	 D(1,7,14,15)     =        -3.032165	    -173.730230
	 D(1,7,14,16)     =         0.187844	      10.762681
	 D(2,1,6,5)       =        -0.003906	      -0.223802
	 D(2,1,6,12)      =        -3.091437	    -177.126283
	 D(2,1,7,13)      =        -2.505167	    -143.535494
	 D(2,1,7,14)      =         0.636426	      36.464506
	 D(2,3,4,5)       =        -0.003942	      -0.225875
	 D(2,3,4,10)      =         3.137650	     179.774125
	 D(3,2,1,6)       =        -0.003906	      -0.223806
	 D(3,2,1,7)       =         3.137687	     179.776196
	 D(3,4,5,6)       =        -0.003942	      -0.225874
	 D(3,4,5,11)      =         3.126699	     179.146646
	 D(4,3,2,8)       =         3.095744	     177.373058
	 D(4,5,6,12)      =         3.095744	     177.373055
	 D(5,4,3,9)       =         3.126699	     179.146646
	 D(5,6,1,7)       =         3.137687	     179.776197
	 D(6,1,2,8)       =        -3.091437	    -177.126287
	 D(6,1,7,13)      =         0.636426	      36.464508
	 D(6,1,7,14)      =        -2.505167	    -143.535492
	 D(6,5,4,10)      =         3.137650	     179.774126
	 D(7,1,2,8)       =         0.050156	       2.873714
	 D(7,1,6,12)      =         0.050156	       2.873716
	 D(8,2,3,9)       =        -0.034950	      -2.002503
	 D(9,3,4,10)      =        -0.014894	      -0.853354
	 D(10,4,5,11)     =        -0.014894	      -0.853354
	 D(11,5,6,12)     =        -0.034950	      -2.002504
	 D(13,7,14,15)    =         0.109428	       6.269770
	 D(13,7,14,16)    =        -2.953748	    -169.237319
	 D(14,7,13,17)    =        -2.268928	    -130.000002
	 D(14,7,13,18)    =         0.794247	      45.506999

	Current energy   :      -381.4550894230

	Generating empirical Hessian (Schlegel '84) for each fragment.
	Taking RFO optimization step.
	Going to follow RFO solution 1.
	Using RFO vector 1.

	Determining step-restricting scale parameter for RS-RFO.
	Maximum step size allowed    0.50000

	 Iter      |step|        alpha        rfo_root  
	------------------------------------------------
	    0     0.56329       1.00000           1
	    1     0.50983       1.41144           1
	    2     0.50030       1.50055           1
	    3     0.50000       1.50346           1
	------------------------------------------------
	Norm of target step-size    0.50000
	Projected energy change by RFO approximation:        -0.0065737498

	Back-transformation to cartesian coordinates...
	Could not converge backtransformation.
	Using first guess instead.

	Back-transformation to cartesian coordinates to adjust frozen coordinates...
	Successfully converged to displaced geometry.

	--- Internal Coordinate Step in ANG or DEG, aJ/ANG or AJ/DEG ---
	 ---------------------------------------------------------------------------
	   Coordinate                Previous        Force       Change         New 
	   ----------                --------       ------       ------       ------
	    1 R(1,2)          =      1.407502     0.027512     0.004307     1.411810
	    2 R(1,6)          =      1.407503     0.001946     0.000538     1.408041
	    3 R(1,7)          =      1.466870    -0.038508    -0.006518     1.460352
	    4 R(2,3)          =      1.391302    -0.011298    -0.001125     1.390177
	    5 R(2,8)          =      1.086388     0.001305     0.000303     1.086690
	    6 R(3,4)          =      1.398294     0.011163     0.001634     1.399928
	    7 R(3,9)          =      1.085142     0.000587     0.000497     1.085639
	    8 R(4,5)          =      1.398294     0.008641     0.001766     1.400060
	    9 R(4,10)         =      1.085649     0.000735     0.000345     1.085994
	   10 R(5,6)          =      1.391302    -0.004006    -0.000159     1.391143
	   11 R(5,11)         =      1.085142    -0.000079     0.000133     1.085275
	   12 R(6,12)         =      1.086386    -0.006029     0.000271     1.086658
	   13 R(7,13)         =      1.330061     0.173458     0.024293     1.354354
	   14 R(7,14)         =      1.330061    -0.030355    -0.002905     1.327156
	   15 R(13,17)        =      1.011575     0.002964     0.006600     1.018175
	   16 R(13,18)        =      1.013295    -0.000089     0.022023     1.035318
	   17 R(14,15)        =      1.013296     0.007282     0.002333     1.015629
	   18 R(14,16)        =      1.011575     0.016303     0.002523     1.014098
	   19 B(1,2,3)        =    119.655376     0.000013     0.074531   119.729907
	   20 B(1,2,8)        =    120.515689    -0.000008    -0.032988   120.482701
	   21 B(1,6,5)        =    119.655315    -0.000041    -0.164387   119.490928
	   22 B(1,6,12)       =    120.515729    -0.000095    -0.417595   120.098135
	   23 B(1,7,13)       =    119.935172     0.000244     0.536549   120.471721
	   24 B(1,7,14)       =    119.935135     0.000073     0.210148   120.145282
	   25 B(2,1,6)        =    120.161857     0.000018     0.075661   120.237517
	   26 B(2,1,7)        =    119.919082     0.000340     0.963285   120.882366
	   27 B(2,3,4)        =    120.050636    -0.000064    -0.218914   119.831722
	   28 B(2,3,9)        =    119.732108     0.000047     0.181840   119.913948
	   29 B(3,2,8)        =    119.756722    -0.000004    -0.029029   119.727693
	   30 B(3,4,5)        =    120.423859     0.000057     0.167216   120.591076
	   31 B(3,4,10)       =    119.788070    -0.000034    -0.120256   119.667814
	   32 B(4,3,9)        =    120.214297     0.000017     0.035284   120.249581
	   33 B(4,5,6)        =    120.050677     0.000017     0.057255   120.107933
	   34 B(4,5,11)       =    120.214297    -0.000007     0.000483   120.214779
	   35 B(5,4,10)       =    119.788070    -0.000023    -0.047954   119.740116
	   36 B(5,6,12)       =    119.756743     0.000137     0.605376   120.362119
	   37 B(6,1,7)        =    119.919061    -0.000358    -1.038948   118.880114
	   38 B(6,5,11)       =    119.732067    -0.000010    -0.055014   119.677053
	   39 B(7,13,17)      =    119.886331     0.000090     0.388336   120.274667
	   40 B(7,13,18)      =    122.891430    -0.000125    -2.309549   120.581882
	   41 B(7,14,15)      =    122.891405    -0.000264    -1.161147   121.730258
	   42 B(7,14,16)      =    119.886393     0.000160     0.653612   120.540005
	   43 B(13,7,14)      =    120.129694    -0.000317    -1.152752   118.976941
	   44 B(15,14,16)     =    117.078146     0.000097     0.324143   117.402289
	   45 B(17,13,18)     =    117.078176    -0.000003     0.184744   117.262920
	   46 D(1,2,3,4)      =      0.446825    -0.000003    -0.326419     0.120406
	   47 D(1,2,3,9)      =   -178.928735    -0.000001    -0.160156  -179.088891
	   48 D(1,6,5,4)      =      0.446822     0.000006     0.567265     1.014087
	   49 D(1,6,5,11)     =   -178.928737     0.000001     0.119055  -178.809682
	   50 *D(1,7,13,17)   =     49.999998     0.000000     0.000000    49.999998
	   51 D(1,7,13,18)    =   -134.493001    -0.000136   -11.541046  -146.034047
	   52 D(1,7,14,15)    =   -173.730230    -0.000025    -2.679427  -176.409657
	   53 D(1,7,14,16)    =     10.762681    -0.000001    -0.429923    10.332758
	   54 D(2,1,6,5)      =     -0.223802    -0.000010    -1.034499    -1.258300
	   55 D(2,1,6,12)     =   -177.126283    -0.000016    -1.600384  -178.726667
	   56 D(2,1,7,13)     =   -143.535494    -0.000064    -7.510727  -151.046221
	   57 D(2,1,7,14)     =     36.464506     0.000009    -0.122673    36.341833
	   58 D(2,3,4,5)      =     -0.225875    -0.000001    -0.139696    -0.365571
	   59 D(2,3,4,10)     =    179.774125     0.000002     0.223973   179.998098
	   60 D(3,2,1,6)      =     -0.223806     0.000009     0.915032     0.691226
	   61 D(3,2,1,7)      =    179.776196     0.000008     0.934298   180.710493
	   62 D(3,4,5,6)      =     -0.225874    -0.000000     0.017185    -0.208689
	   63 D(3,4,5,11)     =    179.146646     0.000004     0.467478   179.614124
	   64 D(4,3,2,8)      =    177.373058    -0.000001    -0.048569   177.324489
	   65 D(4,5,6,12)     =    177.373055     0.000010     1.102587   178.475642
	   66 D(5,4,3,9)      =    179.146646    -0.000003    -0.305608   178.841038
	   67 D(5,6,1,7)      =    179.776197    -0.000010    -1.053381   178.722816
	   68 D(6,1,2,8)      =   -177.126287     0.000006     0.634891  -176.491396
	   69 D(6,1,7,13)     =     36.464508    -0.000064    -7.491718    28.972789
	   70 D(6,1,7,14)     =   -143.535492     0.000008    -0.103665  -143.639157
	   71 D(6,5,4,10)     =    179.774126    -0.000004    -0.346746   179.427380
	   72 D(7,1,2,8)      =      2.873714     0.000006     0.654157     3.527871
	   73 D(7,1,6,12)     =      2.873716    -0.000016    -1.619267     1.254449
	   74 D(8,2,3,9)      =     -2.002503     0.000001     0.117694    -1.884808
	   75 D(9,3,4,10)     =     -0.853354     0.000000     0.058061    -0.795293
	   76 D(10,4,5,11)    =     -0.853354     0.000001     0.103547    -0.749807
	   77 D(11,5,6,12)    =     -2.002504     0.000006     0.654378    -1.348126
	   78 D(13,7,14,15)   =      6.269770     0.000048     4.598790    10.868560
	   79 D(13,7,14,16)   =   -169.237319     0.000072     6.848294  -162.389025
	   80 D(14,7,13,17)   =   -130.000002    -0.000073    -7.302629  -137.302631
	   81 D(14,7,13,18)   =     45.506999    -0.000209   -18.843675    26.663324
	 ---------------------------------------------------------------------------
	Successfully symmetrized geometry.

  ==> Convergence Check <==

  Measures of convergence in internal coordinates in au.
  Criteria marked as inactive (o), active & met (*), and active & unmet ( ).
  --------------------------------------------------------------------------------------------- ~
   Step     Total Energy     Delta E     MAX Force     RMS Force      MAX Disp      RMS Disp    ~
  --------------------------------------------------------------------------------------------- ~
    Convergence Criteria    1.00e-06 *    3.00e-04 *             o    1.20e-03 *             o  ~
  --------------------------------------------------------------------------------------------- ~
      1    -381.45508942   -3.81e+02      2.11e-02      3.30e-03 o    3.29e-01      5.37e-02 o  ~
  ---------------------------------------------------------------------------------------------

	Writing optimization data to binary file.
	Structure for next step:
	Cartesian Geometry (in Angstrom)
	    C    -0.0288333978   0.0303512895  -0.1676744787
	    C     0.0384871790   1.2452962122   0.5482745627
	    C     0.0613438127   1.2261215501   1.9381312568
	    C     0.0200595273   0.0033414997   2.6185012826
	    C    -0.0518560671  -1.2031505041   1.9118371084
	    C    -0.0873959087  -1.1962908192   0.5211649252
	    C    -0.0386538691   0.0203980348  -1.6279593806
	    H     0.0265573425   2.1963065311   0.0226005172
	    H     0.0981311496   2.1591629303   2.4919304260
	    H     0.0380810515  -0.0085353283   3.7042806232
	    H    -0.0772516183  -2.1479004551   2.4453393213
	    H    -0.1182871087  -2.1310421033  -0.0321082333
	    N    -0.6602403429  -0.9751405768  -2.3038358887
	    N     0.6836974356   0.9039586528  -2.3053602514
	    H     0.6533482128   0.9537073753  -3.3193158463
	    H     1.3636826465   1.4867868120  -1.8296237212
	    H    -1.6158440224  -1.2363872536  -2.0687786459
	    H    -0.2854180224  -1.3116818474  -3.2083415773
			--------------------------
			 OPTKING Finished Execution 
			--------------------------

    Structure for next step:
    Molecular point group: c1
    Full point group: C1

    Geometry (in Angstrom), charge = 1, multiplicity = 1:

    C           -0.028833397757     0.030351289459    -0.167674478654
    C            0.038487179036     1.245296212198     0.548274562683
    C            0.061343812716     1.226121550136     1.938131256779
    C            0.020059527263     0.003341499679     2.618501282590
    C           -0.051856067137    -1.203150504147     1.911837108409
    C           -0.087395908737    -1.196290819193     0.521164925217
    C           -0.038653869149     0.020398034762    -1.627959380648
    H            0.026557342493     2.196306531143     0.022600517205
    H            0.098131149583     2.159162930313     2.491930426032
    H            0.038081051466    -0.008535328318     3.704280623233
    H           -0.077251618275    -2.147900455082     2.445339321322
    H           -0.118287108699    -2.131042103283    -0.032108233305
    N           -0.660240342896    -0.975140576777    -2.303835888704
    N            0.683697435576     0.903958652831    -2.305360251438
    H            0.653348212767     0.953707375333    -3.319315846291
    H            1.363682646506     1.486786811982    -1.829623721226
    H           -1.615844022354    -1.236387253636    -2.068778645902
    H           -0.285418022404    -1.311681847399    -3.208341577301

gradient() will perform analytic gradient computation.

*** tstart() called on green.prib.upf.edu
*** at Sat Sep 29 20:31:57 2018

   => Loading Basis Set <=

    Name: 6-31G*
    Role: ORBITAL
    Keyword: BASIS
    atoms 1-7         entry C          line   111 file /shared/joao/test_parameterize/miniconda3/share/psi4/basis/6-31gs.gbs 
    atoms 8-12, 15-18 entry H          line    44 file /shared/joao/test_parameterize/miniconda3/share/psi4/basis/6-31gs.gbs 
    atoms 13-14       entry N          line   128 file /shared/joao/test_parameterize/miniconda3/share/psi4/basis/6-31gs.gbs 


         ---------------------------------------------------------
                                   SCF
            by Justin Turney, Rob Parrish, Andy Simmonett
                             and Daniel Smith
                              RKS Reference
                        4 Threads,   2861 MiB Core
         ---------------------------------------------------------

  ==> Geometry <==

    Molecular point group: c1
    Full point group: C1

    Geometry (in Angstrom), charge = 1, multiplicity = 1:

       Center              X                  Y                   Z               Mass       
    ------------   -----------------  -----------------  -----------------  -----------------
         C           -0.028833397757     0.030351289459    -0.167674478654    12.000000000000
         C            0.038487179036     1.245296212198     0.548274562683    12.000000000000
         C            0.061343812716     1.226121550136     1.938131256779    12.000000000000
         C            0.020059527263     0.003341499679     2.618501282590    12.000000000000
         C           -0.051856067137    -1.203150504147     1.911837108409    12.000000000000
         C           -0.087395908737    -1.196290819193     0.521164925217    12.000000000000
         C           -0.038653869149     0.020398034762    -1.627959380648    12.000000000000
         H            0.026557342493     2.196306531143     0.022600517205     1.007825032070
         H            0.098131149583     2.159162930313     2.491930426032     1.007825032070
         H            0.038081051466    -0.008535328318     3.704280623233     1.007825032070
         H           -0.077251618275    -2.147900455082     2.445339321322     1.007825032070
         H           -0.118287108699    -2.131042103283    -0.032108233305     1.007825032070
         N           -0.660240342896    -0.975140576777    -2.303835888704    14.003074004780
         N            0.683697435576     0.903958652831    -2.305360251438    14.003074004780
         H            0.653348212767     0.953707375333    -3.319315846291     1.007825032070
         H            1.363682646506     1.486786811982    -1.829623721226     1.007825032070
         H           -1.615844022354    -1.236387253636    -2.068778645902     1.007825032070
         H           -0.285418022404    -1.311681847399    -3.208341577301     1.007825032070

  Running in c1 symmetry.

  Rotational constants: A =      0.12126  B =      0.03960  C =      0.03110 [cm^-1]
  Rotational constants: A =   3635.36781  B =   1187.28018  C =    932.42332 [MHz]
  Nuclear repulsion =  416.054020715793683

  Charge       = 1
  Multiplicity = 1
  Electrons    = 64
  Nalpha       = 32
  Nbeta        = 32

  ==> Algorithm <==

  SCF Algorithm Type is DF.
  DIIS enabled.
  MOM disabled.
  Fractional occupation disabled.
  Guess Type is READ.
  Energy threshold   = 1.00e-08
  Density threshold  = 1.00e-08
  Integral threshold = 0.00e+00

  ==> Primary Basis <==

  Basis Set: 6-31G*
    Blend: 6-31G*
    Number of shells: 72
    Number of basis function: 153
    Number of Cartesian functions: 153
    Spherical Harmonics?: false
    Max angular momentum: 2

  ==> DFT Potential <==

   => Composite Functional: B3LYP-D3ZERO <= 

    B3LYP-d3zero Hyb-GGA Exchange-Correlation Functional

    P. J. Stephens, F. J. Devlin, C. F. Chabalowski, and M. J. Frisch, J. Phys. Chem. 98, 11623 (1994)

    Deriv               =              1
    GGA                 =           TRUE
    Meta                =          FALSE

    Exchange Hybrid     =           TRUE
    MP2 Hybrid          =          FALSE

   => Exchange Functionals <=

    0.0800   Slater exchange
    0.7200         Becke 88

   => Exact (HF) Exchange <=

    0.2000               HF 

   => Correlation Functionals <=

    0.1900   Vosko, Wilk & Nusair (VWN5_RPA)
    0.8100   Lee, Yang & Parr

   => Molecular Quadrature <=

    Radial Scheme       =       TREUTLER
    Pruning Scheme      =           FLAT
    Nuclear Scheme      =       TREUTLER

    BS radius alpha     =              1
    Pruning alpha       =              1
    Radial Points       =             75
    Spherical Points    =            302
    Total Points        =         397054
    Total Blocks        =           3024
    Max Points          =            256
    Max Functions       =            149

   => -D3ZERO: Empirical Dispersion <=

    Grimme's -D3 (zero-damping) Dispersion Correction
    Grimme S.; Antony J.; Ehrlich S.; Krieg H. (2010), J. Chem. Phys., 132: 154104

        S6 =   1.000000E+00
        S8 =   1.703000E+00
       SR6 =   1.261000E+00
       SR8 =   1.000000E+00
    ALPHA6 =   1.400000E+01

   => Loading Basis Set <=

    Name: (6-31G* AUX)
    Role: JKFIT
    Keyword: DF_BASIS_SCF
    atoms 1-7         entry C          line   121 file /shared/joao/test_parameterize/miniconda3/share/psi4/basis/cc-pvdz-jkfit.gbs 
    atoms 8-12, 15-18 entry H          line    51 file /shared/joao/test_parameterize/miniconda3/share/psi4/basis/cc-pvdz-jkfit.gbs 
    atoms 13-14       entry N          line   171 file /shared/joao/test_parameterize/miniconda3/share/psi4/basis/cc-pvdz-jkfit.gbs 

  Reading orbitals from file 180, no projection.

  ==> Pre-Iterations <==

   -------------------------------------------------------
    Irrep   Nso     Nmo     Nalpha   Nbeta   Ndocc  Nsocc
   -------------------------------------------------------
     A        153     153       0       0       0       0
   -------------------------------------------------------
    Total     153     153      32      32      32       0
   -------------------------------------------------------

  ==> Integral Setup <==

  ==> DiskDFJK: Density-Fitted J/K Matrices <==

    J tasked:                  Yes
    K tasked:                  Yes
    wK tasked:                  No
    OpenMP threads:              4
    Integrals threads:           4
    Memory (MB):              2002
    Algorithm:                Core
    Integral Cache:           NONE
    Schwarz Cutoff:          1E-12
    Fitting Condition:       1E-12

   => Auxiliary Basis Set <=

  Basis Set: (6-31G* AUX)
    Blend: CC-PVDZ-JKFIT
    Number of shells: 297
    Number of basis function: 954
    Number of Cartesian functions: 954
    Spherical Harmonics?: false
    Max angular momentum: 3

  Minimum eigenvalue in the overlap matrix is 4.9023725206E-04.
  Using Symmetric Orthogonalization.

  SCF Guess: Orbitals guess was supplied from a previous computation.

  ==> Iterations <==

                           Total Energy        Delta E     RMS |[F,P]|

   @DF-RKS iter   0:  -381.42074594306854   -3.81421e+02   2.30226e-03 
   @DF-RKS iter   1:  -381.46076045897007   -4.00145e-02   3.07386e-04 
   @DF-RKS iter   2:  -381.46075350710902    6.95186e-06   3.60265e-04 DIIS
   @DF-RKS iter   3:  -381.46110880867508   -3.55302e-04   7.73010e-05 DIIS
   @DF-RKS iter   4:  -381.46112101893476   -1.22103e-05   4.46218e-05 DIIS
   @DF-RKS iter   5:  -381.46112655323429   -5.53430e-06   1.19590e-05 DIIS
   @DF-RKS iter   6:  -381.46112697027445   -4.17040e-07   3.42019e-06 DIIS
   @DF-RKS iter   7:  -381.46112700568176   -3.54073e-08   9.13657e-07 DIIS
   @DF-RKS iter   8:  -381.46112700758613   -1.90437e-09   4.19451e-07 DIIS
   @DF-RKS iter   9:  -381.46112700812415   -5.38023e-10   1.13136e-07 DIIS
   @DF-RKS iter  10:  -381.46112700815627   -3.21165e-11   4.10554e-08 DIIS
   @DF-RKS iter  11:  -381.46112700816047   -4.20641e-12   1.35162e-08 DIIS
   @DF-RKS iter  12:  -381.46112700816167   -1.19371e-12   3.62638e-09 DIIS

  ==> Post-Iterations <==

    Orbital Energies [Eh]
    ---------------------

    Doubly Occupied:                                                      

       1A    -14.572874     2A    -14.556739     3A    -10.495127  
       4A    -10.371499     5A    -10.357177     6A    -10.355056  
       7A    -10.345730     8A    -10.341205     9A    -10.339998  
      10A     -1.177136    11A     -1.081831    12A     -1.013517  
      13A     -0.925498    14A     -0.901881    15A     -0.840507  
      16A     -0.778953    17A     -0.768682    18A     -0.736241  
      19A     -0.726834    20A     -0.696203    21A     -0.668770  
      22A     -0.625416    23A     -0.607473    24A     -0.581019  
      25A     -0.578328    26A     -0.563447    27A     -0.517063  
      28A     -0.505525    29A     -0.497545    30A     -0.468727  
      31A     -0.413201    32A     -0.405636  

    Virtual:                                                              

      33A     -0.231060    34A     -0.155477    35A     -0.131277  
      36A     -0.105948    37A     -0.072496    38A     -0.057316  
      39A     -0.036265    40A     -0.024616    41A      0.008413  
      42A      0.012751    43A      0.022856    44A      0.053322  
      45A      0.061421    46A      0.087572    47A      0.129174  
      48A      0.138851    49A      0.157510    50A      0.158857  
      51A      0.204437    52A      0.240817    53A      0.300278  
      54A      0.353503    55A      0.358637    56A      0.381810  
      57A      0.391914    58A      0.397395    59A      0.417710  
      60A      0.423809    61A      0.441766    62A      0.448206  
      63A      0.454662    64A      0.471111    65A      0.474264  
      66A      0.478791    67A      0.486795    68A      0.514046  
      69A      0.522757    70A      0.539921    71A      0.545829  
      72A      0.595781    73A      0.608587    74A      0.655215  
      75A      0.669277    76A      0.682948    77A      0.691611  
      78A      0.702216    79A      0.711971    80A      0.719539  
      81A      0.726049    82A      0.752641    83A      0.773943  
      84A      0.786799    85A      0.805426    86A      0.822288  
      87A      0.855249    88A      0.916864    89A      0.943994  
      90A      0.976005    91A      0.999628    92A      1.022606  
      93A      1.064983    94A      1.094467    95A      1.108849  
      96A      1.147352    97A      1.222509    98A      1.276640  
      99A      1.281190   100A      1.308292   101A      1.325258  
     102A      1.341727   103A      1.358908   104A      1.397008  
     105A      1.400333   106A      1.451190   107A      1.532924  
     108A      1.621156   109A      1.636041   110A      1.655846  
     111A      1.698310   112A      1.736260   113A      1.751437  
     114A      1.792102   115A      1.808995   116A      1.822492  
     117A      1.873417   118A      1.901199   119A      1.965128  
     120A      1.971876   121A      1.980269   122A      1.998789  
     123A      2.025512   124A      2.040039   125A      2.119749  
     126A      2.133983   127A      2.155149   128A      2.179931  
     129A      2.246792   130A      2.307658   131A      2.347276  
     132A      2.374949   133A      2.444953   134A      2.451301  
     135A      2.484705   136A      2.507250   137A      2.544427  
     138A      2.586433   139A      2.599257   140A      2.629414  
     141A      2.735232   142A      2.831927   143A      2.985868  
     144A      3.255701   145A      3.624910   146A      3.660524  
     147A      3.910729   148A      3.945239   149A      3.963900  
     150A      4.043918   151A      4.172629   152A      4.253882  
     153A      4.546061  

    Final Occupation by Irrep:
              A 
    DOCC [    32 ]

  Energy converged.

  @DF-RKS Final Energy:  -381.46112700816167

   => Energetics <=

    Nuclear Repulsion Energy =            416.0540207157936834
    One-Electron Energy =               -1327.4667417301780006
    Two-Electron Energy =                 574.3490607912725636
    DFT Exchange-Correlation Energy =     -44.3855629250499959
    Empirical Dispersion Energy =          -0.0119038600000000
    VV10 Nonlocal Energy =                  0.0000000000000000
    Total Energy =                       -381.4611270081617249



Properties will be evaluated at   0.000000,   0.000000,   0.000000 [a0]

Properties computed using the SCF density matrix

  Nuclear Dipole Moment: [e a0]
     X:    -0.5176      Y:     0.4130      Z:     0.7469

  Electronic Dipole Moment: [e a0]
     X:     0.5869      Y:    -0.3370      Z:    -2.9541

  Dipole Moment: [e a0]
     X:     0.0693      Y:     0.0760      Z:    -2.2072     Total:     2.2096

  Dipole Moment: [D]
     X:     0.1762      Y:     0.1932      Z:    -5.6102     Total:     5.6162


*** tstop() called on green.prib.upf.edu at Sat Sep 29 20:32:21 2018
Module time:
	user time   =      88.38 seconds =       1.47 minutes
	system time =       0.50 seconds =       0.01 minutes
	total time  =         24 seconds =       0.40 minutes
Total time:
	user time   =     218.66 seconds =       3.64 minutes
	system time =       1.40 seconds =       0.02 minutes
	total time  =         60 seconds =       1.00 minutes

*** tstart() called on green.prib.upf.edu
*** at Sat Sep 29 20:32:21 2018


         ------------------------------------------------------------
                                   SCF GRAD                          
                          Rob Parrish, Justin Turney,                
                       Andy Simmonett, and Alex Sokolov              
         ------------------------------------------------------------

  ==> Geometry <==

    Molecular point group: c1
    Full point group: C1

    Geometry (in Angstrom), charge = 1, multiplicity = 1:

       Center              X                  Y                   Z               Mass       
    ------------   -----------------  -----------------  -----------------  -----------------
         C           -0.028833397757     0.030351289459    -0.167674478654    12.000000000000
         C            0.038487179036     1.245296212198     0.548274562683    12.000000000000
         C            0.061343812716     1.226121550136     1.938131256779    12.000000000000
         C            0.020059527263     0.003341499679     2.618501282590    12.000000000000
         C           -0.051856067137    -1.203150504147     1.911837108409    12.000000000000
         C           -0.087395908737    -1.196290819193     0.521164925217    12.000000000000
         C           -0.038653869149     0.020398034762    -1.627959380648    12.000000000000
         H            0.026557342493     2.196306531143     0.022600517205     1.007825032070
         H            0.098131149583     2.159162930313     2.491930426032     1.007825032070
         H            0.038081051466    -0.008535328318     3.704280623233     1.007825032070
         H           -0.077251618275    -2.147900455082     2.445339321322     1.007825032070
         H           -0.118287108699    -2.131042103283    -0.032108233305     1.007825032070
         N           -0.660240342896    -0.975140576777    -2.303835888704    14.003074004780
         N            0.683697435576     0.903958652831    -2.305360251438    14.003074004780
         H            0.653348212767     0.953707375333    -3.319315846291     1.007825032070
         H            1.363682646506     1.486786811982    -1.829623721226     1.007825032070
         H           -1.615844022354    -1.236387253636    -2.068778645902     1.007825032070
         H           -0.285418022404    -1.311681847399    -3.208341577301     1.007825032070

  Nuclear repulsion =  416.054020715793683

  ==> Basis Set <==

  Basis Set: 6-31G*
    Blend: 6-31G*
    Number of shells: 72
    Number of basis function: 153
    Number of Cartesian functions: 153
    Spherical Harmonics?: false
    Max angular momentum: 2

  ==> DFJKGrad: Density-Fitted SCF Gradients <==

    Gradient:                    1
    J tasked:                  Yes
    K tasked:                  Yes
    wK tasked:                  No
    OpenMP threads:              4
    Integrals threads:           4
    Memory (MB):              2002
    Schwarz Cutoff:          0E+00
    Fitting Condition:       1E-12

   => Auxiliary Basis Set <=

  Basis Set: (6-31G* AUX)
    Blend: CC-PVDZ-JKFIT
    Number of shells: 297
    Number of basis function: 954
    Number of Cartesian functions: 954
    Spherical Harmonics?: false
    Max angular momentum: 3

  ==> DFT Potential <==

   => Composite Functional: B3LYP-D3ZERO <= 

    B3LYP-d3zero Hyb-GGA Exchange-Correlation Functional

    P. J. Stephens, F. J. Devlin, C. F. Chabalowski, and M. J. Frisch, J. Phys. Chem. 98, 11623 (1994)

    Deriv               =              1
    GGA                 =           TRUE
    Meta                =          FALSE

    Exchange Hybrid     =           TRUE
    MP2 Hybrid          =          FALSE

   => Exchange Functionals <=

    0.0800   Slater exchange
    0.7200         Becke 88

   => Exact (HF) Exchange <=

    0.2000               HF 

   => Correlation Functionals <=

    0.1900   Vosko, Wilk & Nusair (VWN5_RPA)
    0.8100   Lee, Yang & Parr

   => Molecular Quadrature <=

    Radial Scheme       =       TREUTLER
    Pruning Scheme      =           FLAT
    Nuclear Scheme      =       TREUTLER

    BS radius alpha     =              1
    Pruning alpha       =              1
    Radial Points       =             75
    Spherical Points    =            302
    Total Points        =         397054
    Total Blocks        =           3024
    Max Points          =            256
    Max Functions       =            149


  -Total Gradient:
     Atom            X                  Y                   Z
    ------   -----------------  -----------------  -----------------
       1        0.009609335449    -0.005522964522     0.002197937002
       2       -0.000433946728     0.000359107280    -0.000160013191
       3       -0.000365098009    -0.000016824543     0.001022003832
       4        0.000218405872     0.001077629266     0.000308156354
       5        0.000105786104    -0.000598599392    -0.000272839287
       6        0.000410208361     0.001412518026    -0.001321219754
       7       -0.005278965427     0.011077006605     0.000434921840
       8        0.000133955264     0.000124611014     0.000312253738
       9       -0.000009042342     0.000352699524     0.000181791900
      10       -0.000107794318     0.000093511521     0.000139142737
      11       -0.000085514534    -0.000182701440    -0.000152219113
      12        0.000035557452    -0.001180538265    -0.000502071237
      13       -0.005098708845    -0.001874935187     0.012779075290
      14       -0.003310077471     0.001022413309     0.002004143189
      15        0.000490933212    -0.000971585310    -0.001532268818
      16        0.000250278566     0.000605057330     0.000552579070
      17       -0.008246132231     0.005244440828    -0.004361262114
      18        0.011682465401    -0.011025309654    -0.011642980424


*** tstop() called on green.prib.upf.edu at Sat Sep 29 20:32:28 2018
Module time:
	user time   =      26.99 seconds =       0.45 minutes
	system time =       0.22 seconds =       0.00 minutes
	total time  =          7 seconds =       0.12 minutes
Total time:
	user time   =     245.70 seconds =       4.10 minutes
	system time =       1.62 seconds =       0.03 minutes
	total time  =         67 seconds =       1.12 minutes

			-----------------------------------------
			 OPTKING 2.0: for geometry optimizations 
			  - R.A. King,  Bethel University        
			-----------------------------------------
	At level 1: Red. Int., RFO, no backsteps, dynamic trust

	Previous internal coordinate definitions found.
	---Fragment 1 Geometry and Gradient---
	 C          -0.0544872252        0.0573556249       -0.3168588441
	 C           0.0727302280        2.3532687954        1.0360887691
	 C           0.1159230060        2.3170339354        3.6625372849
	 C           0.0379070129        0.0063145193        4.9482503027
	 C          -0.0979937652       -2.2736249495        3.6128485456
	 C          -0.1651543326       -2.2606620236        0.9848589787
	 C          -0.0730452267        0.0385466993       -3.0763973849
	 H           0.0501861041        4.1504178477        0.0427087880
	 H           0.1854409978        4.0802266146        4.7090660474
	 H           0.0719627581       -0.0161294330        7.0000758973
	 H          -0.1459844019       -4.0589436208        4.6210216193
	 H          -0.2235302405       -4.0270859529       -0.0606757676
	 N          -1.2476734300       -1.8427486312       -4.3536188848
	 N           1.2920009110        1.7082342893       -4.3564995129
	 H           1.2346491915        1.8022457503       -6.2725978980
	 H           2.5769867341        2.8096198926       -3.4574877593
	 H          -3.0535026757       -2.3364333036       -3.9094250703
	 H          -0.5393618957       -2.4787194651       -6.0628869218
	             0.0096093354       -0.0055229645        0.0021979370
	            -0.0004339467        0.0003591073       -0.0001600132
	            -0.0003650980       -0.0000168245        0.0010220038
	             0.0002184059        0.0010776293        0.0003081564
	             0.0001057861       -0.0005985994       -0.0002728393
	             0.0004102084        0.0014125180       -0.0013212198
	            -0.0052789654        0.0110770066        0.0004349218
	             0.0001339553        0.0001246110        0.0003122537
	            -0.0000090423        0.0003526995        0.0001817919
	            -0.0001077943        0.0000935115        0.0001391427
	            -0.0000855145       -0.0001827014       -0.0001522191
	             0.0000355575       -0.0011805383       -0.0005020712
	            -0.0050987088       -0.0018749352        0.0127790753
	            -0.0033100775        0.0010224133        0.0020041432
	             0.0004909332       -0.0009715853       -0.0015322688
	             0.0002502786        0.0006050573        0.0005525791
	            -0.0082461322        0.0052444408       -0.0043612621
	             0.0116824654       -0.0110253097       -0.0116429804

	---Fragment 1 Intrafragment Coordinates---
	 - Coordinate -           - BOHR/RAD -       - ANG/DEG -
	 R(1,2)           =         2.667933	       1.411810
	 R(1,6)           =         2.660812	       1.408041
	 R(1,7)           =         2.759665	       1.460352
	 R(2,3)           =         2.627054	       1.390177
	 R(2,8)           =         2.053547	       1.086690
	 R(3,4)           =         2.645481	       1.399928
	 R(3,9)           =         2.051561	       1.085639
	 R(4,5)           =         2.645731	       1.400060
	 R(4,10)          =         2.052231	       1.085994
	 R(5,6)           =         2.628880	       1.391143
	 R(5,11)          =         2.050873	       1.085275
	 R(6,12)          =         2.053486	       1.086658
	 R(7,13)          =         2.559359	       1.354354
	 R(7,14)          =         2.507961	       1.327156
	 R(13,17)         =         1.924072	       1.018175
	 R(13,18)         =         1.956467	       1.035318
	 R(14,15)         =         1.919260	       1.015629
	 R(14,16)         =         1.916367	       1.014098
	 B(1,2,3)         =         2.089681	     119.729907
	 B(1,2,8)         =         2.102820	     120.482701
	 B(1,6,5)         =         2.085510	     119.490928
	 B(1,6,12)        =         2.096108	     120.098135
	 B(1,7,13)        =         2.102628	     120.471721
	 B(1,7,14)        =         2.096931	     120.145282
	 B(2,1,6)         =         2.098541	     120.237517
	 B(2,1,7)         =         2.109795	     120.882366
	 B(2,3,4)         =         2.091458	     119.831722
	 B(2,3,9)         =         2.092893	     119.913948
	 B(3,2,8)         =         2.089642	     119.727693
	 B(3,4,5)         =         2.104711	     120.591076
	 B(3,4,10)        =         2.088597	     119.667814
	 B(4,3,9)         =         2.098751	     120.249581
	 B(4,5,6)         =         2.096279	     120.107933
	 B(4,5,11)        =         2.098144	     120.214779
	 B(5,4,10)        =         2.089859	     119.740116
	 B(5,6,12)        =         2.100715	     120.362119
	 B(6,1,7)         =         2.074849	     118.880114
	 B(6,5,11)        =         2.088759	     119.677053
	 B(7,13,17)       =         2.099189	     120.274667
	 B(7,13,18)       =         2.104551	     120.581882
	 B(7,14,15)       =         2.124594	     121.730258
	 B(7,14,16)       =         2.103820	     120.540005
	 B(13,7,14)       =         2.076539	     118.976941
	 B(15,14,16)      =         2.049056	     117.402289
	 B(17,13,18)      =         2.046624	     117.262920
	 D(1,2,3,4)       =         0.002101	       0.120406
	 D(1,2,3,9)       =        -3.125691	    -179.088891
	 D(1,6,5,4)       =         0.017699	       1.014087
	 D(1,6,5,11)      =        -3.120818	    -178.809682
	*D(1,7,13,17)     =         0.872665	      49.999998
	 D(1,7,13,18)     =        -2.548775	    -146.034047
	 D(1,7,14,15)     =        -3.078929	    -176.409657
	 D(1,7,14,16)     =         0.180341	      10.332758
	 D(2,1,6,5)       =        -0.021961	      -1.258300
	 D(2,1,6,12)      =        -3.119369	    -178.726667
	 D(2,1,7,13)      =        -2.636254	    -151.046221
	 D(2,1,7,14)      =         0.634285	      36.341833
	 D(2,3,4,5)       =        -0.006380	      -0.365571
	 D(2,3,4,10)      =         3.141559	     179.998098
	 D(3,2,1,6)       =         0.012064	       0.691226
	 D(3,2,1,7)       =        -3.129192	    -179.289507
	 D(3,4,5,6)       =        -0.003642	      -0.208689
	 D(3,4,5,11)      =         3.134858	     179.614124
	 D(4,3,2,8)       =         3.094896	     177.324489
	 D(4,5,6,12)      =         3.114988	     178.475642
	 D(5,4,3,9)       =         3.121365	     178.841038
	 D(5,6,1,7)       =         3.119302	     178.722816
	 D(6,1,2,8)       =        -3.080356	    -176.491396
	 D(6,1,7,13)      =         0.505671	      28.972789
	 D(6,1,7,14)      =        -2.506976	    -143.639157
	 D(6,5,4,10)      =         3.131599	     179.427380
	 D(7,1,2,8)       =         0.061573	       3.527871
	 D(7,1,6,12)      =         0.021894	       1.254449
	 D(8,2,3,9)       =        -0.032896	      -1.884808
	 D(9,3,4,10)      =        -0.013880	      -0.795293
	 D(10,4,5,11)     =        -0.013087	      -0.749807
	 D(11,5,6,12)     =        -0.023529	      -1.348126
	 D(13,7,14,15)    =         0.189692	      10.868560
	 D(13,7,14,16)    =        -2.834223	    -162.389025
	 D(14,7,13,17)    =        -2.396383	    -137.302631
	 D(14,7,13,18)    =         0.465363	      26.663324

	Current energy   :      -381.4611270082

	Energy change for the previous step:
		Projected    :        -0.0065737498
		Actual       :        -0.0060375852
	Energy ratio indicates good step: Trust radius increased to 1.000e+00.


	Performing BFGS update.
	Previous computed or guess Hessian on step 1.
	Steps to be used in Hessian update: 1
	Taking RFO optimization step.
	Going to follow RFO solution 1.
	Using RFO vector 1.
	Norm of target step-size    0.49061
	Projected energy change by RFO approximation:        -0.0021532249

	Back-transformation to cartesian coordinates...
	Could not converge backtransformation.
	Using first guess instead.

	Back-transformation to cartesian coordinates to adjust frozen coordinates...
	Successfully converged to displaced geometry.

	--- Internal Coordinate Step in ANG or DEG, aJ/ANG or AJ/DEG ---
	 ---------------------------------------------------------------------------
	   Coordinate                Previous        Force       Change         New 
	   ----------                --------       ------       ------       ------
	    1 R(1,2)          =      1.411810    -0.010453    -0.000562     1.411247
	    2 R(1,6)          =      1.408041     0.009853     0.002126     1.410168
	    3 R(1,7)          =      1.460352    -0.014804    -0.004465     1.455887
	    4 R(2,3)          =      1.390177    -0.007004    -0.001301     1.388876
	    5 R(2,8)          =      1.086690     0.000360     0.000325     1.087016
	    6 R(3,4)          =      1.399928     0.002038     0.000892     1.400820
	    7 R(3,9)          =      1.085639    -0.003263    -0.000358     1.085282
	    8 R(4,5)          =      1.400060    -0.010995    -0.001084     1.398976
	    9 R(4,10)         =      1.085994    -0.001129    -0.000042     1.085952
	   10 R(5,6)          =      1.391143    -0.003038    -0.000320     1.390823
	   11 R(5,11)         =      1.085275    -0.000712     0.000044     1.085319
	   12 R(6,12)         =      1.086658    -0.010460    -0.001844     1.084814
	   13 R(7,13)         =      1.354354    -0.065896    -0.000399     1.353955
	   14 R(7,14)         =      1.327156     0.012236     0.001497     1.328653
	   15 R(13,17)        =      1.018175    -0.044386    -0.004346     1.013829
	   16 R(13,18)        =      1.035318    -0.148167     0.026392     1.061709
	   17 R(14,15)        =      1.015629    -0.012084    -0.000889     1.014739
	   18 R(14,16)        =      1.014098    -0.006387     0.000031     1.014129
	   19 B(1,2,3)        =    119.729907    -0.000008    -0.018289   119.711618
	   20 B(1,2,8)        =    120.482701    -0.000023    -0.125463   120.357239
	   21 B(1,6,5)        =    119.490928     0.000015     0.034618   119.525546
	   22 B(1,6,12)       =    120.098135    -0.000021    -0.200324   119.897810
	   23 B(1,7,13)       =    120.471721    -0.000010     0.140230   120.611950
	   24 B(1,7,14)       =    120.145282     0.000053     0.263866   120.409149
	   25 B(2,1,6)        =    120.237517    -0.000021    -0.040191   120.197326
	   26 B(2,1,7)        =    120.882366    -0.000122    -0.231461   120.650906
	   27 B(2,3,4)        =    119.831722     0.000032     0.047065   119.878787
	   28 B(2,3,9)        =    119.913948    -0.000014     0.001057   119.915005
	   29 B(3,2,8)        =    119.727693     0.000031     0.158612   119.886304
	   30 B(3,4,5)        =    120.591076     0.000003     0.043328   120.634403
	   31 B(3,4,10)       =    119.667814     0.000005     0.004041   119.671855
	   32 B(4,3,9)        =    120.249581    -0.000018    -0.049399   120.200182
	   33 B(4,5,6)        =    120.107933    -0.000022    -0.067905   120.040028
	   34 B(4,5,11)       =    120.214779    -0.000007    -0.050808   120.163971
	   35 B(5,4,10)       =    119.740116    -0.000009    -0.046621   119.693495
	   36 B(5,6,12)       =    120.362119     0.000005     0.163610   120.525729
	   37 B(6,1,7)        =    118.880114     0.000143     0.267045   119.147158
	   38 B(6,5,11)       =    119.677053     0.000029     0.117140   119.794192
	   39 B(7,13,17)      =    120.274667    -0.000005    -0.981691   119.292976
	   40 B(7,13,18)      =    120.581882    -0.000005    -3.730846   116.851036
	   41 B(7,14,15)      =    121.730258     0.000036     0.025691   121.755949
	   42 B(7,14,16)      =    120.540005    -0.000004     0.205382   120.745386
	   43 B(13,7,14)      =    118.976941    -0.000041    -0.357671   118.619270
	   44 B(15,14,16)     =    117.402289    -0.000027    -0.098448   117.303841
	   45 B(17,13,18)     =    117.262920    -0.000113    -2.360295   114.902625
	   46 D(1,2,3,4)      =      0.120406    -0.000002    -0.395128    -0.274722
	   47 D(1,2,3,9)      =   -179.088891    -0.000002    -0.294695  -179.383587
	   48 D(1,6,5,4)      =      1.014087    -0.000001    -0.159552     0.854535
	   49 D(1,6,5,11)     =   -178.809682     0.000001     0.152580  -178.657103
	   50 *D(1,7,13,17)   =     49.999998     0.000000    -0.000000    49.999998
	   51 D(1,7,13,18)    =   -146.034047    -0.000122   -18.359551  -164.393598
	   52 D(1,7,14,15)    =   -176.409657     0.000018     2.674679  -173.734978
	   53 D(1,7,14,16)    =     10.332758     0.000007     1.141936    11.474694
	   54 D(2,1,6,5)      =     -1.258300    -0.000001    -0.106893    -1.365193
	   55 D(2,1,6,12)     =   -178.726667     0.000000    -0.057446  -178.784113
	   56 D(2,1,7,13)     =   -151.046221    -0.000012    -3.055105  -154.101326
	   57 D(2,1,7,14)     =     36.341833    -0.000015    -3.463559    32.878274
	   58 D(2,3,4,5)      =     -0.365571     0.000001     0.130167    -0.235404
	   59 D(2,3,4,10)     =    179.998098    -0.000000    -0.052192   179.945906
	   60 D(3,2,1,6)      =      0.691226     0.000002     0.384696     1.075922
	   61 D(3,2,1,7)      =   -179.289507     0.000006     1.153150  -178.136356
	   62 D(3,4,5,6)      =     -0.208689     0.000001     0.150096    -0.058593
	   63 D(3,4,5,11)     =    179.614124    -0.000001    -0.162902   179.451222
	   64 D(4,3,2,8)      =    177.324489    -0.000000    -0.025593   177.298896
	   65 D(4,5,6,12)     =    178.475642    -0.000002    -0.218723   178.256919
	   66 D(5,4,3,9)      =    178.841038     0.000000     0.029852   178.870890
	   67 D(5,6,1,7)      =    178.722816    -0.000004    -0.863931   177.858885
	   68 D(6,1,2,8)      =   -176.491396    -0.000000     0.005306  -176.486090
	   69 D(6,1,7,13)     =     28.972789    -0.000008    -2.294577    26.678212
	   70 D(6,1,7,14)     =   -143.639157    -0.000011    -2.703031  -146.342188
	   71 D(6,5,4,10)     =    179.427380     0.000002     0.332677   179.760057
	   72 D(7,1,2,8)      =      3.527871     0.000004     0.773760     4.301632
	   73 D(7,1,6,12)     =      1.254449    -0.000004    -0.814484     0.439965
	   74 D(8,2,3,9)      =     -1.884808     0.000000     0.074839    -1.809969
	   75 D(9,3,4,10)     =     -0.795293    -0.000001    -0.152507    -0.947799
	   76 D(10,4,5,11)    =     -0.749807     0.000000     0.019680    -0.730127
	   77 D(11,5,6,12)    =     -1.348126     0.000000     0.093408    -1.254718
	   78 D(13,7,14,15)   =     10.868560     0.000014     2.238755    13.107315
	   79 D(13,7,14,16)   =   -162.389025     0.000002     0.706012  -161.683013
	   80 D(14,7,13,17)   =   -137.302631     0.000005     0.445981  -136.856650
	   81 D(14,7,13,18)   =     26.663324    -0.000117   -17.913570     8.749754
	 ---------------------------------------------------------------------------
	Successfully symmetrized geometry.

  ==> Convergence Check <==

  Measures of convergence in internal coordinates in au.
  Criteria marked as inactive (o), active & met (*), and active & unmet ( ).
  ---------------------------------------------------------------------------------------------
   Step     Total Energy     Delta E     MAX Force     RMS Force      MAX Disp      RMS Disp   
  ---------------------------------------------------------------------------------------------
    Convergence Criteria    1.00e-06 *    3.00e-04 *             o    1.20e-03 *             o
  ---------------------------------------------------------------------------------------------
      2    -381.46112701   -6.04e-03      1.80e-02      2.58e-03 o    3.20e-01      5.27e-02 o  ~
  ---------------------------------------------------------------------------------------------

	Writing optimization data to binary file.
	Structure for next step:
	Cartesian Geometry (in Angstrom)
	    C    -0.0314298280   0.0103439095  -0.1614520480
	    C     0.0474502500   1.2319430161   0.5407537574
	    C     0.0745143155   1.2272336484   1.9293582617
	    C     0.0176390502   0.0122921320   2.6243247546
	    C    -0.0713711049  -1.2007919498   1.9332111396
	    C    -0.1054519296  -1.2091149953   0.5428304110
	    C    -0.0204061320  -0.0110484065  -1.6171397709
	    H     0.0471865253   2.1761784763   0.0022165267
	    H     0.1250313423   2.1652313139   2.4729067842
	    H     0.0399168042   0.0124735431   3.7100483506
	    H    -0.1060212366  -2.1381804430   2.4791234740
	    H    -0.1460016847  -2.1464601962  -0.0017444765
	    N    -0.5957143276  -1.0314826318  -2.2960569440
	    N     0.6720521477   0.8958498659  -2.2978412808
	    H     0.6202381525   0.9586471373  -3.3093095511
	    H     1.3347528171   1.5024798001  -1.8274317275
	    H    -1.5416410133  -1.3117236636  -2.0625252188
	    H    -0.3411361481  -1.1285685565  -3.3222104421
			--------------------------
			 OPTKING Finished Execution 
			--------------------------

    Structure for next step:
    Molecular point group: c1
    Full point group: C1

    Geometry (in Angstrom), charge = 1, multiplicity = 1:

    C           -0.031429828028     0.010343909498    -0.161452047992
    C            0.047450250048     1.231943016091     0.540753757370
    C            0.074514315505     1.227233648398     1.929358261687
    C            0.017639050161     0.012292131992     2.624324754570
    C           -0.071371104932    -1.200791949771     1.933211139579
    C           -0.105451929627    -1.209114995315     0.542830410967
    C           -0.020406132041    -0.011048406492    -1.617139770862
    H            0.047186525296     2.176178476329     0.002216526710
    H            0.125031342323     2.165231313878     2.472906784155
    H            0.039916804187     0.012473543083     3.710048350571
    H           -0.106021236553    -2.138180442998     2.479123473971
    H           -0.146001684663    -2.146460196212    -0.001744476515
    N           -0.595714327583    -1.031482631758    -2.296056944008
    N            0.672052147685     0.895849865942    -2.297841280757
    H            0.620238152547     0.958647137299    -3.309309551063
    H            1.334752817077     1.502479800116    -1.827431727478
    H           -1.541641013292    -1.311723663601    -2.062525218834
    H           -0.341136148109    -1.128568556480    -3.322210442071

gradient() will perform analytic gradient computation.

*** tstart() called on green.prib.upf.edu
*** at Sat Sep 29 20:32:28 2018

   => Loading Basis Set <=

    Name: 6-31G*
    Role: ORBITAL
    Keyword: BASIS
    atoms 1-7         entry C          line   111 file /shared/joao/test_parameterize/miniconda3/share/psi4/basis/6-31gs.gbs 
    atoms 8-12, 15-18 entry H          line    44 file /shared/joao/test_parameterize/miniconda3/share/psi4/basis/6-31gs.gbs 
    atoms 13-14       entry N          line   128 file /shared/joao/test_parameterize/miniconda3/share/psi4/basis/6-31gs.gbs 


[...]
	            -0.0000233313        0.0000016908        0.0000191219
	             0.0000013929       -0.0000026410        0.0000054126
	            -0.0000028778        0.0000068699       -0.0000023286
	            -0.0000004179        0.0000023563       -0.0000000690
	             0.0000096561       -0.0000020369       -0.0000014807
	             0.0083298727       -0.0104411687        0.0090867970
	             0.0000214118        0.0000334650       -0.0000818795
	             0.0000025903       -0.0000023008        0.0000145941
	             0.0000008548       -0.0000194633       -0.0000241682
	            -0.0037083083        0.0063735345       -0.0067126954
	            -0.0000183020       -0.0000019233       -0.0000174488

	---Fragment 1 Intrafragment Coordinates---
	 - Coordinate -           - BOHR/RAD -       - ANG/DEG -
	 R(1,2)           =         2.665236	       1.410382
	 R(1,6)           =         2.663325	       1.409371
	 R(1,7)           =         2.756942	       1.458911
	 R(2,3)           =         2.625775	       1.389500
	 R(2,8)           =         2.053548	       1.086691
	 R(3,4)           =         2.644850	       1.399594
	 R(3,9)           =         2.050540	       1.085099
	 R(4,5)           =         2.643097	       1.398667
	 R(4,10)          =         2.051791	       1.085761
	 R(5,6)           =         2.627751	       1.390546
	 R(5,11)          =         2.050616	       1.085139
	 R(6,12)          =         2.050569	       1.085114
	 R(7,13)          =         2.548506	       1.348611
	 R(7,14)          =         2.510563	       1.328533
	 R(13,17)         =         1.918354	       1.015149
	 R(13,18)         =         1.920462	       1.016265
	 R(14,15)         =         1.915574	       1.013678
	 R(14,16)         =         1.913760	       1.012718
	 B(1,2,3)         =         2.090128	     119.755499
	 B(1,2,8)         =         2.103370	     120.514210
	 B(1,6,5)         =         2.087246	     119.590384
	 B(1,6,12)        =         2.095461	     120.061067
	 B(1,7,13)        =         2.088485	     119.661348
	 B(1,7,14)        =         2.097694	     120.189003
	 B(2,1,6)         =         2.096107	     120.098107
	 B(2,1,7)         =         2.101037	     120.380534
	 B(2,3,4)         =         2.093156	     119.928981
	 B(2,3,9)         =         2.092096	     119.868299
	 B(3,2,8)         =         2.088523	     119.663563
	 B(3,4,5)         =         2.103665	     120.531103
	 B(3,4,10)        =         2.089280	     119.706952
	 B(4,3,9)         =         2.097842	     120.197474
	 B(4,5,6)         =         2.095967	     120.090076
	 B(4,5,11)        =         2.097340	     120.168705
	 B(5,4,10)        =         2.090238	     119.761808
	 B(5,6,12)        =         2.099398	     120.286641
	 B(6,1,7)         =         2.086040	     119.521299
	 B(6,5,11)        =         2.089827	     119.738295
	 B(7,13,17)       =         2.052671	     117.609361
	 B(7,13,18)       =         2.062713	     118.184766
	 B(7,14,15)       =         2.139710	     122.596342
	 B(7,14,16)       =         2.100269	     120.336523
	 B(13,7,14)       =         2.088133	     119.641236
	 B(15,14,16)      =         2.040670	     116.921782
	 B(17,13,18)      =         1.960879	     112.350117
	 D(1,2,3,4)       =        -0.001881	      -0.107756
	 D(1,2,3,9)       =        -3.128962	    -179.276313
	 D(1,6,5,4)       =         0.009695	       0.555483
	 D(1,6,5,11)      =        -3.121060	    -178.823540
	*D(1,7,13,17)     =         0.872665	      49.999998
	 D(1,7,13,18)     =        -2.965404	    -169.905162
	 D(1,7,14,15)     =        -3.050683	    -174.791286
	 D(1,7,14,16)     =         0.169781	       9.727745
	 D(2,1,6,5)       =        -0.016262	      -0.931743
	 D(2,1,6,12)      =        -3.108063	    -178.078895
	 D(2,1,7,13)      =        -2.684464	    -153.808433
	 D(2,1,7,14)      =         0.600373	      34.398816
	 D(2,3,4,5)       =        -0.004714	      -0.270083
	 D(2,3,4,10)      =         3.139232	     179.864757
	 D(3,2,1,6)       =         0.012361	       0.708251
	 D(3,2,1,7)       =        -3.127673	    -179.202439
	 D(3,4,5,6)       =         0.000759	       0.043491
	 D(3,4,5,11)      =         3.131467	     179.419820
	 D(4,3,2,8)       =         3.088140	     176.937400
	 D(4,5,6,12)      =         3.101382	     177.696092
	 D(5,4,3,9)       =         3.122319	     178.895708
	 D(5,6,1,7)       =         3.123785	     178.979716
	 D(6,1,2,8)       =        -3.077214	    -176.311352
	 D(6,1,7,13)      =         0.458679	      26.280363
	 D(6,1,7,14)      =        -2.539670	    -145.512388
	 D(6,5,4,10)      =         3.139997	     179.908577
	 D(7,1,2,8)       =         0.065938	       3.777957
	 D(7,1,6,12)      =         0.031984	       1.832564
	 D(8,2,3,9)       =        -0.038941	      -2.231157
	 D(9,3,4,10)      =        -0.016920	      -0.969452
	 D(10,4,5,11)     =        -0.012481	      -0.715095
	 D(11,5,6,12)     =        -0.029373	      -1.682930
	 D(13,7,14,15)    =         0.234124	      13.414312
	 D(13,7,14,16)    =        -2.828597	    -162.066657
	 D(14,7,13,17)    =        -2.411380	    -138.161920
	 D(14,7,13,18)    =         0.033736	       1.932920

	Current energy   :      -381.4649554566

	Energy change for the previous step:
		Projected    :        -0.0000095909
		Actual       :        -0.0000012362
	Energy ratio indicates iffy step: Trust radius decreased to 6.250e-02.


	Performing BFGS update.
	Previous computed or guess Hessian on step 1.
	Steps to be used in Hessian update: 6 5
	Taking RFO optimization step.
	Going to follow RFO solution 1.
	Rejecting RFO root 1 because normalization gives large value.
	Using RFO vector 2.
	Norm of target step-size    0.00273
	Projected energy change by RFO approximation:        -0.0000001607

	Back-transformation to cartesian coordinates...
	Successfully converged to displaced geometry.

	Back-transformation to cartesian coordinates to adjust frozen coordinates...
	Successfully converged to displaced geometry.

	--- Internal Coordinate Step in ANG or DEG, aJ/ANG or AJ/DEG ---
	 ---------------------------------------------------------------------------
	   Coordinate                Previous        Force       Change         New 
	   ----------                --------       ------       ------       ------
	    1 R(1,2)          =      1.410382    -0.000532    -0.000071     1.410311
	    2 R(1,6)          =      1.409371    -0.000011    -0.000014     1.409357
	    3 R(1,7)          =      1.458911     0.000209     0.000097     1.459007
	    4 R(2,3)          =      1.389500     0.000144     0.000026     1.389527
	    5 R(2,8)          =      1.086691     0.000066     0.000011     1.086702
	    6 R(3,4)          =      1.399594     0.000118     0.000009     1.399603
	    7 R(3,9)          =      1.085099    -0.000010    -0.000001     1.085099
	    8 R(4,5)          =      1.398667    -0.000067    -0.000006     1.398660
	    9 R(4,10)         =      1.085761     0.000012     0.000001     1.085762
	   10 R(5,6)          =      1.390546     0.000163     0.000027     1.390573
	   11 R(5,11)         =      1.085139     0.000016     0.000003     1.085142
	   12 R(6,12)         =      1.085114    -0.000013    -0.000005     1.085109
	   13 R(7,13)         =      1.348611     0.000165    -0.000003     1.348608
	   14 R(7,14)         =      1.328533    -0.000567    -0.000085     1.328448
	   15 R(13,17)        =      1.015149    -0.000048    -0.000014     1.015135
	   16 R(13,18)        =      1.016265    -0.000115    -0.000036     1.016229
	   17 R(14,15)        =      1.013678     0.000131     0.000020     1.013698
	   18 R(14,16)        =      1.012718     0.000174     0.000025     1.012742
	   19 B(1,2,3)        =    119.755499    -0.000002    -0.004442   119.751057
	   20 B(1,2,8)        =    120.514210    -0.000001    -0.001819   120.512391
	   21 B(1,6,5)        =    119.590384    -0.000002    -0.005299   119.585085
	   22 B(1,6,12)       =    120.061067     0.000001     0.003688   120.064755
	   23 B(1,7,13)       =    119.661348     0.000002     0.005854   119.667202
	   24 B(1,7,14)       =    120.189003    -0.000008    -0.018122   120.170880
	   25 B(2,1,6)        =    120.098107     0.000003     0.008966   120.107073
	   26 B(2,1,7)        =    120.380534    -0.000004    -0.010618   120.369916
	   27 B(2,3,4)        =    119.928981     0.000000     0.000295   119.929276
	   28 B(2,3,9)        =    119.868299    -0.000001    -0.003014   119.865286
	   29 B(3,2,8)        =    119.663563     0.000002     0.007301   119.670865
	   30 B(3,4,5)        =    120.531103     0.000000     0.000661   120.531764
	   31 B(3,4,10)       =    119.706952     0.000000     0.001936   119.708888
	   32 B(4,3,9)        =    120.197474     0.000000     0.002875   120.200348
	   33 B(4,5,6)        =    120.090076    -0.000000     0.000121   120.090197
	   34 B(4,5,11)       =    120.168705     0.000000     0.000773   120.169478
	   35 B(5,4,10)       =    119.761808    -0.000001    -0.002572   119.759236
	   36 B(5,6,12)       =    120.286641     0.000001     0.002219   120.288860
	   37 B(6,1,7)        =    119.521299     0.000001     0.001578   119.522878
	   38 B(6,5,11)       =    119.738295     0.000000    -0.000916   119.737379
	   39 B(7,13,17)      =    117.609361     0.000000     0.010855   117.620216
	   40 B(7,13,18)      =    118.184766    -0.000001     0.011431   118.196197
	   41 B(7,14,15)      =    122.596342     0.000000     0.002826   122.599169
	   42 B(7,14,16)      =    120.336523    -0.000001    -0.004595   120.331928
	   43 B(13,7,14)      =    119.641236     0.000006     0.011295   119.652532
	   44 B(15,14,16)     =    116.921782     0.000001     0.004199   116.925981
	   45 B(17,13,18)     =    112.350117     0.000001     0.019355   112.369472
	   46 D(1,2,3,4)      =     -0.107756     0.000000     0.014581    -0.093175
	   47 D(1,2,3,9)      =   -179.276313     0.000000     0.002096  -179.274217
	   48 D(1,6,5,4)      =      0.555483    -0.000000    -0.005420     0.550062
	   49 D(1,6,5,11)     =   -178.823540    -0.000000    -0.003060  -178.826600
	   50 *D(1,7,13,17)   =     49.999998    -0.000000     0.000000    49.999998
	   51 D(1,7,13,18)    =   -169.905162     0.000000     0.068289  -169.836873
	   52 D(1,7,14,15)    =   -174.791286     0.000000    -0.005119  -174.796406
	   53 D(1,7,14,16)    =      9.727745    -0.000000    -0.043172     9.684573
	   54 D(2,1,6,5)      =     -0.931743     0.000000     0.023169    -0.908573
	   55 D(2,1,6,12)     =   -178.078895     0.000000     0.009050  -178.069845
	   56 D(2,1,7,13)     =   -153.808433    -0.000000    -0.033221  -153.841653
	   57 D(2,1,7,14)     =     34.398816    -0.000000    -0.026361    34.372455
	   58 D(2,3,4,5)      =     -0.270083     0.000000     0.003267    -0.266816
	   59 D(2,3,4,10)     =    179.864757    -0.000000    -0.009687   179.855070
	   60 D(3,2,1,6)      =      0.708251    -0.000000    -0.027798     0.680454
	   61 D(3,2,1,7)      =   -179.202439     0.000000     0.016593  -179.185846
	   62 D(3,4,5,6)      =      0.043491    -0.000000    -0.007924     0.035567
	   63 D(3,4,5,11)     =    179.419820    -0.000000    -0.010305   179.409514
	   64 D(4,3,2,8)      =    176.937400     0.000000     0.037621   176.975021
	   65 D(4,5,6,12)     =    177.696092     0.000000     0.008773   177.704865
	   66 D(5,4,3,9)      =    178.895708     0.000000     0.015744   178.911452
	   67 D(5,6,1,7)      =    178.979716    -0.000000    -0.020856   178.958860
	   68 D(6,1,2,8)      =   -176.311352    -0.000000    -0.051307  -176.362660
	   69 D(6,1,7,13)     =     26.280363    -0.000000     0.010905    26.291268
	   70 D(6,1,7,14)     =   -145.512388    -0.000000     0.017765  -145.494623
	   71 D(6,5,4,10)     =    179.908577     0.000000     0.005042   179.913619
	   72 D(7,1,2,8)      =      3.777957    -0.000000    -0.006917     3.771041
	   73 D(7,1,6,12)     =      1.832564    -0.000000    -0.034975     1.797588
	   74 D(8,2,3,9)      =     -2.231157     0.000000     0.025136    -2.206021
	   75 D(9,3,4,10)     =     -0.969452     0.000000     0.002791    -0.966662
	   76 D(10,4,5,11)    =     -0.715095     0.000000     0.002661    -0.712433
	   77 D(11,5,6,12)    =     -1.682930     0.000000     0.011133    -1.671797
	   78 D(13,7,14,15)   =     13.414312     0.000000     0.002186    13.416497
	   79 D(13,7,14,16)   =   -162.066657    -0.000000    -0.035867  -162.102524
	   80 D(14,7,13,17)   =   -138.161920    -0.000000    -0.009258  -138.171177
	   81 D(14,7,13,18)   =      1.932920     0.000000     0.059031     1.991952
	 ---------------------------------------------------------------------------
	Successfully symmetrized geometry.

  ==> Convergence Check <==

  Measures of convergence in internal coordinates in au.
  Criteria marked as inactive (o), active & met (*), and active & unmet ( ).
  ---------------------------------------------------------------------------------------------
   Step     Total Energy     Delta E     MAX Force     RMS Force      MAX Disp      RMS Disp   
  ---------------------------------------------------------------------------------------------
    Convergence Criteria    1.00e-06 *    3.00e-04 *             o    1.20e-03 *             o
  ---------------------------------------------------------------------------------------------
      7    -381.46495546   -1.24e-06      1.02e-04 *    2.20e-05 o    1.19e-03 *    3.04e-04 o  ~
  ---------------------------------------------------------------------------------------------


  **** Optimization is complete! (in 7 steps) ****

  ==> Optimization Summary <==

  Measures of convergence in internal coordinates in au.
  --------------------------------------------------------------------------------------------------------------- ~
   Step         Total Energy             Delta E       MAX Force       RMS Force        MAX Disp        RMS Disp  ~
  --------------------------------------------------------------------------------------------------------------- ~
      1    -381.455089422977   -381.455089422977      0.02105402      0.00329617      0.32888416      0.05374481  ~
      2    -381.461127008162     -0.006037585185      0.01798423      0.00258391      0.32043461      0.05274944  ~
      3    -381.462863378764     -0.001736370602      0.03476403      0.00404347      0.09385730      0.01703332  ~
      4    -381.464833827523     -0.001970448759      0.00710878      0.00089136      0.03465396      0.00823358  ~
      5    -381.464942763333     -0.000108935810      0.00164899      0.00028057      0.01023548      0.00269701  ~
      6    -381.464954220423     -0.000011457090      0.00049795      0.00008399      0.00607834      0.00125845  ~
      7    -381.464955456649     -0.000001236225      0.00010189      0.00002196      0.00119187      0.00030374  ~
  --------------------------------------------------------------------------------------------------------------- ~

	Writing optimization data to binary file.
	Final energy is   -381.4649554566486
	Final (previous) structure:
	Cartesian Geometry (in Angstrom)
	    C    -0.0170270347   0.0049013464  -0.1694601036
	    C     0.0506825782   1.2264934694   0.5321850152
	    C     0.0629050516   1.2239456146   1.9216292199
	    C     0.0057937289   0.0113659238   2.6182305672
	    C    -0.0694000813  -1.2022673243   1.9270660420
	    C    -0.0871190045  -1.2127969130   0.5366728533
	    C    -0.0131653203  -0.0092594359  -1.6282969265
	    H     0.0447449737   2.1717533916  -0.0038611428
	    H     0.1030883187   2.1632545641   2.4634081213
	    H     0.0177865828   0.0134594122   3.7039232251
	    H    -0.1039302621  -2.1394774157   2.4729343680
	    H    -0.1077447452  -2.1538236463  -0.0032495925
	    N    -0.5879455905  -1.0359654249  -2.2872767328
	    N     0.6904960817   0.8930988370  -2.3032851772
	    H     0.6589154779   0.9657839791  -3.3138604741
	    H     1.3411108625   1.5003347247  -1.8200019928
	    H    -1.5304944428  -1.2993759622  -2.0175657686
	    H    -0.4390891747  -1.1061231405  -3.2901295014
	Saving final (previous) structure.
	Removing binary optimization data file.
			--------------------------
			 OPTKING Finished Execution 
			--------------------------

    Final optimized geometry and variables:
    Molecular point group: c1
    Full point group: C1

    Geometry (in Angstrom), charge = 1, multiplicity = 1:

    C           -0.017027034718     0.004901346420    -0.169460103553
    C            0.050682578168     1.226493469376     0.532185015240
    C            0.062905051603     1.223945614568     1.921629219938
    C            0.005793728882     0.011365923752     2.618230567209
    C           -0.069400081257    -1.202267324348     1.927066042041
    C           -0.087119004480    -1.212796912988     0.536672853345
    C           -0.013165320272    -0.009259435889    -1.628296926532
    H            0.044744973745     2.171753391625    -0.003861142799
    H            0.103088318714     2.163254564130     2.463408121346
    H            0.017786582755     0.013459412155     3.703923225136
    H           -0.103930262097    -2.139477415701     2.472934368017
    H           -0.107744745204    -2.153823646266    -0.003249592532
    N           -0.587945590491    -1.035965424887    -2.287276732824
    N            0.690496081681     0.893098837028    -2.303285177172
    H            0.658915477914     0.965783979059    -3.313860474107
    H            1.341110862525     1.500334724655    -1.820001992814
    H           -1.530494442797    -1.299375962203    -2.017565768573
    H           -0.439089174671    -1.106123140487    -3.290129501367

	Removing binary optimization data file.
	Cleaning optimization helper files.


Properties will be evaluated at   0.000000,   0.000000,   0.000000 [a0]
OEProp: No title given, name of density matrix used for the following properties is 'SCF density'
  Nuclear Dipole Moment: [e a0]
     X:     0.5636      Y:    -1.1905      Z:     0.9181

  Electronic Dipole Moment: [e a0]
     X:    -0.6207      Y:     1.4034      Z:    -3.1570

  Dipole Moment: [e a0]
     X:    -0.0571      Y:     0.2129      Z:    -2.2389     Total:     2.2497

  Dipole Moment: [D]
     X:    -0.1451      Y:     0.5411      Z:    -5.6907     Total:     5.7182

  Quadrupole Moment: [D A]
    XX:   -48.5082     YY:   -39.3804     ZZ:   -12.7436
    XY:     6.2627     XZ:     0.2548     YZ:    -0.6626

  Traceless Quadrupole Moment: [D A]
    XX:   -14.9641     YY:    -5.8363     ZZ:    20.8005
    XY:     6.2627     XZ:     0.2548     YZ:    -0.6626

  Mulliken Charges: (a.u.)
   Center  Symbol    Alpha    Beta     Spin     Total
       1     C     2.95551  2.95551  0.00000  0.08898
       2     C     3.08421  3.08421  0.00000 -0.16842
       3     C     3.06267  3.06267  0.00000 -0.12534
       4     C     3.05052  3.05052  0.00000 -0.10104
       5     C     3.06264  3.06264  0.00000 -0.12528
       6     C     3.07536  3.07536  0.00000 -0.15072
       7     C     2.74178  2.74178  0.00000  0.51645
       8     H     0.41499  0.41499  0.00000  0.17001
       9     H     0.40528  0.40528  0.00000  0.18943
      10     H     0.40324  0.40324  0.00000  0.19351
      11     H     0.40494  0.40494  0.00000  0.19012
      12     H     0.40802  0.40802  0.00000  0.18396
      13     N     3.85841  3.85841  0.00000 -0.71682
      14     N     3.85444  3.85444  0.00000 -0.70887
      15     H     0.30519  0.30519  0.00000  0.38962
      16     H     0.29930  0.29930  0.00000  0.40139
      17     H     0.30171  0.30171  0.00000  0.39658
      18     H     0.31177  0.31177  0.00000  0.37645

   Total alpha = 32.00000, Total beta = 32.00000, Total charge =  1.00000


    Psi4 stopped on: Saturday, 29 September 2018 08:34PM
    Psi4 wall time for execution: 0:03:23.17

*** Psi4 exiting successfully. Buy a developer a beer!
