
    -----------------------------------------------------------------------
          Psi4: An Open-Source Ab Initio Electronic Structure Package
                               Psi4 1.2.1 release

                         Git: Rev {HEAD} 406f4de 


    R. M. Parrish, L. A. Burns, D. G. A. Smith, A. C. Simmonett,
    A. E. DePrince III, E. G. Hohenstein, U. Bozkaya, A. Yu. Sokolov,
    R. Di Remigio, R. M. Richard, J. F. Gonthier, A. M. James,
    H. R. McAlexander, A. Kumar, M. Saitow, X. Wang, B. P. Pritchard,
    P. Verma, H. F. Schaefer III, K. Patkowski, R. A. King, E. F. Valeev,
    F. A. Evangelista, J. M. Turney, T. D. Crawford, and C. D. Sherrill,
    J. Chem. Theory Comput. 13(7) pp 3185--3197 (2017).
    (doi: 10.1021/acs.jctc.7b00174)


                         Additional Contributions by
    P. Kraus, H. Kruse, M. H. Lechner, M. C. Schieber, and R. A. Shaw

    -----------------------------------------------------------------------


    Psi4 started on: Saturday, 29 September 2018 04:50PM

    Process ID: 5342
    Host:       loro.prib.upf.edu
    PSIDATADIR: /shared/joao/test_parameterize/miniconda3/share/psi4
    Memory:     500.0 MiB
    Threads:    1
    
  ==> Input File <==

--------------------------------------------------------------------------
set_num_threads(1)
set_memory('5348 MB')

set { scf_mem_safety_factor 0.7 }

set { reference rks }
set { basis cc-pVDZ }

molecule MOL {
    0 1
    noreorient
    nocom
    symmetry c1
    O    1.141000   0.017000   0.083000
    C    2.558000   0.086000  -0.005000
    C    3.192000  -0.789000   1.067000
    O    4.610000  -0.719000   0.979000
    H    0.789000   0.590000  -0.620000
    H    2.874000   1.128000   0.115000
    H    2.871000  -0.243000  -1.001000
    H    2.876000  -1.830000   0.947000
    H    2.879000  -0.459000   2.064000
    H    4.817724  -0.400377   0.083335
}

set optking { frozen_dihedral = (" 2 3 4 10 ") }

energy, wfn = energy('B3LYP-D3', return_wfn=True)

import os
os.chdir(os.environ['HTMD_PSI4_WORKDIR'])

oeprop(wfn, 'DIPOLE', 'QUADRUPOLE', 'MULLIKEN_CHARGES')

with open('psi4out.xyz', 'w') as f:
    f.write('10 ' )
    f.write('%.12f\n' % energy)
    f.write(MOL.save_string_xyz())
--------------------------------------------------------------------------
  Threads set to 1 by Python driver.

  Memory set to   4.981 GiB by Python driver.

*** tstart() called on loro.prib.upf.edu
*** at Sat Sep 29 16:50:24 2018

   => Loading Basis Set <=

    Name: CC-PVDZ
    Role: ORBITAL
    Keyword: BASIS
    atoms 1, 4 entry O          line   198 file /shared/joao/test_parameterize/miniconda3/share/psi4/basis/cc-pvdz.gbs 
    atoms 2-3  entry C          line   138 file /shared/joao/test_parameterize/miniconda3/share/psi4/basis/cc-pvdz.gbs 
    atoms 5-10 entry H          line    22 file /shared/joao/test_parameterize/miniconda3/share/psi4/basis/cc-pvdz.gbs 


         ---------------------------------------------------------
                                   SCF
            by Justin Turney, Rob Parrish, Andy Simmonett
                             and Daniel Smith
                              RKS Reference
                        1 Threads,   5100 MiB Core
         ---------------------------------------------------------

  ==> Geometry <==

    Molecular point group: c1
    Full point group: C1

    Geometry (in Angstrom), charge = 0, multiplicity = 1:

       Center              X                  Y                   Z               Mass       
    ------------   -----------------  -----------------  -----------------  -----------------
         O            1.141000000000     0.017000000000     0.083000000000    15.994914619560
         C            2.558000000000     0.086000000000    -0.005000000000    12.000000000000
         C            3.192000000000    -0.789000000000     1.067000000000    12.000000000000
         O            4.610000000000    -0.719000000000     0.979000000000    15.994914619560
         H            0.789000000000     0.590000000000    -0.620000000000     1.007825032070
         H            2.874000000000     1.128000000000     0.115000000000     1.007825032070
         H            2.871000000000    -0.243000000000    -1.001000000000     1.007825032070
         H            2.876000000000    -1.830000000000     0.947000000000     1.007825032070
         H            2.879000000000    -0.459000000000     2.064000000000     1.007825032070
         H            4.817724000000    -0.400377000000     0.083335000000     1.007825032070

  Running in c1 symmetry.

  Rotational constants: A =      0.81790  B =      0.02560  C =      0.02507 [cm^-1]
  Rotational constants: A =  24520.00696  B =    767.38937  C =    751.43074 [MHz]
  Nuclear repulsion =  130.112575549625944

  Charge       = 0
  Multiplicity = 1
  Electrons    = 34
  Nalpha       = 17
  Nbeta        = 17

  ==> Algorithm <==

  SCF Algorithm Type is DF.
  DIIS enabled.
  MOM disabled.
  Fractional occupation disabled.
  Guess Type is SAD.
  Energy threshold   = 1.00e-06
  Density threshold  = 1.00e-06
  Integral threshold = 0.00e+00

  ==> Primary Basis <==

  Basis Set: CC-PVDZ
    Blend: CC-PVDZ
    Number of shells: 42
    Number of basis function: 86
    Number of Cartesian functions: 90
    Spherical Harmonics?: true
    Max angular momentum: 2

  ==> DFT Potential <==

   => Composite Functional: B3LYP-D3ZERO <= 

    B3LYP-d3zero Hyb-GGA Exchange-Correlation Functional

    P. J. Stephens, F. J. Devlin, C. F. Chabalowski, and M. J. Frisch, J. Phys. Chem. 98, 11623 (1994)

    Deriv               =              1
    GGA                 =           TRUE
    Meta                =          FALSE

    Exchange Hybrid     =           TRUE
    MP2 Hybrid          =          FALSE

   => Exchange Functionals <=

    0.0800   Slater exchange
    0.7200         Becke 88

   => Exact (HF) Exchange <=

    0.2000               HF 

   => Correlation Functionals <=

    0.1900   Vosko, Wilk & Nusair (VWN5_RPA)
    0.8100   Lee, Yang & Parr

   => Molecular Quadrature <=

    Radial Scheme       =       TREUTLER
    Pruning Scheme      =           FLAT
    Nuclear Scheme      =       TREUTLER

    BS radius alpha     =              1
    Pruning alpha       =              1
    Radial Points       =             75
    Spherical Points    =            302
    Total Points        =         222531
    Total Blocks        =           1761
    Max Points          =            256
    Max Functions       =             86

   => -D3ZERO: Empirical Dispersion <=

    Grimme's -D3 (zero-damping) Dispersion Correction
    Grimme S.; Antony J.; Ehrlich S.; Krieg H. (2010), J. Chem. Phys., 132: 154104

        S6 =   1.000000E+00
        S8 =   1.703000E+00
       SR6 =   1.261000E+00
       SR8 =   1.000000E+00
    ALPHA6 =   1.400000E+01

   => Loading Basis Set <=

    Name: (CC-PVDZ AUX)
    Role: JKFIT
    Keyword: DF_BASIS_SCF
    atoms 1, 4 entry O          line   221 file /shared/joao/test_parameterize/miniconda3/share/psi4/basis/cc-pvdz-jkfit.gbs 
    atoms 2-3  entry C          line   121 file /shared/joao/test_parameterize/miniconda3/share/psi4/basis/cc-pvdz-jkfit.gbs 
    atoms 5-10 entry H          line    51 file /shared/joao/test_parameterize/miniconda3/share/psi4/basis/cc-pvdz-jkfit.gbs 

  ==> Pre-Iterations <==

   -------------------------------------------------------
    Irrep   Nso     Nmo     Nalpha   Nbeta   Ndocc  Nsocc
   -------------------------------------------------------
     A         86      86       0       0       0       0
   -------------------------------------------------------
    Total      86      86      17      17      17       0
   -------------------------------------------------------

  ==> Integral Setup <==

  DFHelper Memory: AOs need 0.030 [GiB]; user supplied 3.486 [GiB]. Using in-core AOs.

  ==> MemDFJK: Density-Fitted J/K Matrices <==

    J tasked:                   Yes
    K tasked:                   Yes
    wK tasked:                   No
    OpenMP threads:               1
    Memory (MB):               3570
    Algorithm:                 Core
    Schwarz Cutoff:           1E-12
    Mask sparsity (%):       0.2704
    Fitting Condition:        1E-12

   => Auxiliary Basis Set <=

  Basis Set: (CC-PVDZ AUX)
    Blend: CC-PVDZ-JKFIT
    Number of shells: 150
    Number of basis function: 418
    Number of Cartesian functions: 474
    Spherical Harmonics?: true
    Max angular momentum: 3

  Minimum eigenvalue in the overlap matrix is 4.9849502458E-03.
  Using Symmetric Orthogonalization.

  SCF Guess: Superposition of Atomic Densities via on-the-fly atomic UHF.

  ==> Iterations <==

                           Total Energy        Delta E     RMS |[F,P]|

   @DF-RKS iter   0:  -231.05675065964667   -2.31057e+02   4.14903e-02 
   @DF-RKS iter   1:  -230.18894227367602    8.67808e-01   4.72908e-03 
   @DF-RKS iter   2:  -230.15713781649907    3.18045e-02   6.07182e-03 DIIS
   @DF-RKS iter   3:  -230.25479692280766   -9.76591e-02   7.07371e-04 DIIS
   @DF-RKS iter   4:  -230.25615118817339   -1.35427e-03   2.11527e-04 DIIS
   @DF-RKS iter   5:  -230.25630825921050   -1.57071e-04   4.77215e-05 DIIS
   @DF-RKS iter   6:  -230.25631620506397   -7.94585e-06   5.54695e-06 DIIS
   @DF-RKS iter   7:  -230.25631626620023   -6.11363e-08   3.50495e-06 DIIS
   @DF-RKS iter   8:  -230.25631629790746   -3.17072e-08   5.69669e-07 DIIS

  ==> Post-Iterations <==

    Orbital Energies [Eh]
    ---------------------

    Doubly Occupied:                                                      

       1A    -19.139116     2A    -19.133457     3A    -10.236590  
       4A    -10.226854     5A     -1.025453     6A     -1.012334  
       7A     -0.733455     8A     -0.625257     9A     -0.518354  
      10A     -0.489483    11A     -0.472913    12A     -0.424199  
      13A     -0.399088    14A     -0.354284    15A     -0.323795  
      16A     -0.272878    17A     -0.266133  

    Virtual:                                                              

      18A      0.039833    19A      0.052998    20A      0.099837  
      21A      0.109165    22A      0.124404    23A      0.164738  
      24A      0.200390    25A      0.230749    26A      0.242663  
      27A      0.432513    28A      0.438392    29A      0.495430  
      30A      0.527037    31A      0.554175    32A      0.579896  
      33A      0.600830    34A      0.620385    35A      0.633580  
      36A      0.652367    37A      0.652853    38A      0.672804  
      39A      0.874275    40A      0.884046    41A      0.911072  
      42A      0.973191    43A      1.025668    44A      1.049868  
      45A      1.054358    46A      1.140108    47A      1.178780  
      48A      1.206965    49A      1.248569    50A      1.301891  
      51A      1.336014    52A      1.373572    53A      1.507473  
      54A      1.538760    55A      1.587703    56A      1.615736  
      57A      1.642604    58A      1.650275    59A      1.658293  
      60A      1.679585    61A      1.722784    62A      1.775632  
      63A      1.794919    64A      1.866810    65A      1.902579  
      66A      1.973153    67A      2.044134    68A      2.055665  
      69A      2.129951    70A      2.141579    71A      2.256217  
      72A      2.282758    73A      2.406283    74A      2.430536  
      75A      2.479796    76A      2.511066    77A      2.923680  
      78A      2.932215    79A      3.013294    80A      3.014444  
      81A      3.067446    82A      3.086680    83A      3.184673  
      84A      3.261449    85A      3.667347    86A      3.692310  

    Final Occupation by Irrep:
              A 
    DOCC [    17 ]

  Energy converged.

  @DF-RKS Final Energy:  -230.25631629790746

   => Energetics <=

    Nuclear Repulsion Energy =            130.1125755496259444
    One-Electron Energy =                -571.7977664818337189
    Two-Electron Energy =                 235.9718722787522438
    DFT Exchange-Correlation Energy =     -24.5383584444519194
    Empirical Dispersion Energy =          -0.0046392000000000
    VV10 Nonlocal Energy =                  0.0000000000000000
    Total Energy =                       -230.2563162979074605



Properties will be evaluated at   0.000000,   0.000000,   0.000000 [a0]

Properties computed using the SCF density matrix

  Nuclear Dipole Moment: [e a0]
     X:   184.4651      Y:   -20.8784      Z:    31.0980

  Electronic Dipole Moment: [e a0]
     X:  -184.6206      Y:    21.4031      Z:   -31.9922

  Dipole Moment: [e a0]
     X:    -0.1555      Y:     0.5247      Z:    -0.8942     Total:     1.0484

  Dipole Moment: [D]
     X:    -0.3953      Y:     1.3337      Z:    -2.2729     Total:     2.6648


*** tstop() called on loro.prib.upf.edu at Sat Sep 29 16:50:40 2018
Module time:
	user time   =      12.95 seconds =       0.22 minutes
	system time =       0.22 seconds =       0.00 minutes
	total time  =         16 seconds =       0.27 minutes
Total time:
	user time   =      12.95 seconds =       0.22 minutes
	system time =       0.22 seconds =       0.00 minutes
	total time  =         16 seconds =       0.27 minutes


Properties will be evaluated at   0.000000,   0.000000,   0.000000 [a0]
OEProp: No title given, name of density matrix used for the following properties is 'SCF density'
  Nuclear Dipole Moment: [e a0]
     X:   184.4651      Y:   -20.8784      Z:    31.0980

  Electronic Dipole Moment: [e a0]
     X:  -184.6206      Y:    21.4031      Z:   -31.9922

  Dipole Moment: [e a0]
     X:    -0.1555      Y:     0.5247      Z:    -0.8942     Total:     1.0484

  Dipole Moment: [D]
     X:    -0.3953      Y:     1.3337      Z:    -2.2729     Total:     2.6648

  Quadrupole Moment: [D A]
    XX:   -29.7955     YY:   -24.7806     ZZ:   -24.8614
    XY:     3.3612     XZ:    -7.6617     YZ:    -0.0215

  Traceless Quadrupole Moment: [D A]
    XX:    -3.3164     YY:     1.6986     ZZ:     1.6178
    XY:     3.3612     XZ:    -7.6617     YZ:    -0.0215

  Mulliken Charges: (a.u.)
   Center  Symbol    Alpha    Beta     Spin     Total
       1     O     4.13683  4.13683  0.00000 -0.27367
       2     C     2.95994  2.95994  0.00000  0.08013
       3     C     2.92028  2.92028  0.00000  0.15944
       4     O     4.13696  4.13696  0.00000 -0.27392
       5     H     0.42798  0.42798  0.00000  0.14404
       6     H     0.49836  0.49836  0.00000  0.00327
       7     H     0.50260  0.50260  0.00000 -0.00520
       8     H     0.49503  0.49503  0.00000  0.00995
       9     H     0.48910  0.48910  0.00000  0.02180
      10     H     0.43292  0.43292  0.00000  0.13416

   Total alpha = 17.00000, Total beta = 17.00000, Total charge = -0.00000


    Psi4 stopped on: Saturday, 29 September 2018 04:50PM
    Psi4 wall time for execution: 0:00:16.12

*** Psi4 exiting successfully. Buy a developer a beer!
