
    -----------------------------------------------------------------------
          Psi4: An Open-Source Ab Initio Electronic Structure Package
                               Psi4 1.2.1 release

                         Git: Rev {HEAD} 406f4de 


    R. M. Parrish, L. A. Burns, D. G. A. Smith, A. C. Simmonett,
    A. E. DePrince III, E. G. Hohenstein, U. Bozkaya, A. Yu. Sokolov,
    R. Di Remigio, R. M. Richard, J. F. Gonthier, A. M. James,
    H. R. McAlexander, A. Kumar, M. Saitow, X. Wang, B. P. Pritchard,
    P. Verma, H. F. Schaefer III, K. Patkowski, R. A. King, E. F. Valeev,
    F. A. Evangelista, J. M. Turney, T. D. Crawford, and C. D. Sherrill,
    J. Chem. Theory Comput. 13(7) pp 3185--3197 (2017).
    (doi: 10.1021/acs.jctc.7b00174)


                         Additional Contributions by
    P. Kraus, H. Kruse, M. H. Lechner, M. C. Schieber, and R. A. Shaw

    -----------------------------------------------------------------------


    Psi4 started on: Saturday, 29 September 2018 08:27PM

    Process ID: 15986
    Host:       green.prib.upf.edu
    PSIDATADIR: /shared/joao/test_parameterize/miniconda3/share/psi4
    Memory:     500.0 MiB
    Threads:    1
    
  ==> Input File <==

--------------------------------------------------------------------------
set_num_threads(4)
set_memory('3000 MB')

set { scf_mem_safety_factor 0.7 }

set { reference rks }
set { basis 6-31G* }

molecule MOL {
    1 1
    noreorient
    nocom
    symmetry c1
    C   -0.000000  -0.000000  -0.177864
    C    0.036678   1.219374   0.524165
    C    0.031765   1.213120   1.915444
    C    0.000000   0.000000   2.610107
    C   -0.031765  -1.213120   1.915444
    C   -0.036678  -1.219375   0.524165
    C   -0.000000   0.000000  -1.644734
    H    0.018170   2.164705  -0.010854
    H    0.042402   2.152895   2.457886
    H    0.000000   0.000000   3.695756
    H   -0.042402  -2.152895   2.457886
    H   -0.018170  -2.164705  -0.010853
    N   -0.712590  -0.905950  -2.308461
    N    0.712590   0.905950  -2.308460
    H    0.673432   1.006470  -3.315997
    H    1.377190   1.485970  -1.813316
    H   -0.872289  -1.818301  -1.901773
    H   -1.169777  -0.707800  -3.190778
}

set optking { frozen_dihedral = (" 1 7 13 17 ") }

set optking { dynamic_level = 1 
 geom_maxiter = 250
 print_trajectory_xyz_file = True }

energy, wfn = optimize('B3LYP-D3', return_wfn=True)

import os
os.chdir(os.environ['HTMD_PSI4_WORKDIR'])

oeprop(wfn, 'DIPOLE', 'QUADRUPOLE', 'MULLIKEN_CHARGES')

with open('psi4out.xyz', 'w') as f:
    f.write('18 ' )
    f.write('%.12f\n' % energy)
    f.write(MOL.save_string_xyz())
--------------------------------------------------------------------------
  Threads set to 4 by Python driver.

  Memory set to   2.794 GiB by Python driver.
gradient() will perform analytic gradient computation.

*** tstart() called on green.prib.upf.edu
*** at Sat Sep 29 20:27:34 2018

   => Loading Basis Set <=

    Name: 6-31G*
    Role: ORBITAL
    Keyword: BASIS
    atoms 1-7         entry C          line   111 file /shared/joao/test_parameterize/miniconda3/share/psi4/basis/6-31gs.gbs 
    atoms 8-12, 15-18 entry H          line    44 file /shared/joao/test_parameterize/miniconda3/share/psi4/basis/6-31gs.gbs 
    atoms 13-14       entry N          line   128 file /shared/joao/test_parameterize/miniconda3/share/psi4/basis/6-31gs.gbs 


         ---------------------------------------------------------
                                   SCF
            by Justin Turney, Rob Parrish, Andy Simmonett
                             and Daniel Smith
                              RKS Reference
                        4 Threads,   2861 MiB Core
         ---------------------------------------------------------

  ==> Geometry <==

    Molecular point group: c1
    Full point group: C1

    Geometry (in Angstrom), charge = 1, multiplicity = 1:

       Center              X                  Y                   Z               Mass       
    ------------   -----------------  -----------------  -----------------  -----------------
         C            0.000000000000     0.000000000000    -0.177864000000    12.000000000000
         C            0.036678000000     1.219374000000     0.524165000000    12.000000000000
         C            0.031765000000     1.213120000000     1.915444000000    12.000000000000
         C            0.000000000000     0.000000000000     2.610107000000    12.000000000000
         C           -0.031765000000    -1.213120000000     1.915444000000    12.000000000000
         C           -0.036678000000    -1.219375000000     0.524165000000    12.000000000000
         C            0.000000000000     0.000000000000    -1.644734000000    12.000000000000
         H            0.018170000000     2.164705000000    -0.010854000000     1.007825032070
         H            0.042402000000     2.152895000000     2.457886000000     1.007825032070
         H            0.000000000000     0.000000000000     3.695756000000     1.007825032070
         H           -0.042402000000    -2.152895000000     2.457886000000     1.007825032070
         H           -0.018170000000    -2.164705000000    -0.010853000000     1.007825032070
         N           -0.712590000000    -0.905950000000    -2.308461000000    14.003074004780
         N            0.712590000000     0.905950000000    -2.308460000000    14.003074004780
         H            0.673432000000     1.006470000000    -3.315997000000     1.007825032070
         H            1.377190000000     1.485970000000    -1.813316000000     1.007825032070
         H           -0.872289000000    -1.818301000000    -1.901773000000     1.007825032070
         H           -1.169777000000    -0.707800000000    -3.190778000000     1.007825032070

  Running in c1 symmetry.

  Rotational constants: A =      0.12158  B =      0.03962  C =      0.03129 [cm^-1]
  Rotational constants: A =   3644.82256  B =   1187.87444  C =    938.19493 [MHz]
  Nuclear repulsion =  416.923454769303248

  Charge       = 1
  Multiplicity = 1
  Electrons    = 64
  Nalpha       = 32
  Nbeta        = 32

  ==> Algorithm <==

  SCF Algorithm Type is DF.
  DIIS enabled.
  MOM disabled.
  Fractional occupation disabled.
  Guess Type is SAD.
  Energy threshold   = 1.00e-08
  Density threshold  = 1.00e-08
  Integral threshold = 0.00e+00

  ==> Primary Basis <==

  Basis Set: 6-31G*
    Blend: 6-31G*
    Number of shells: 72
    Number of basis function: 153
    Number of Cartesian functions: 153
    Spherical Harmonics?: false
    Max angular momentum: 2

  ==> DFT Potential <==

   => Composite Functional: B3LYP-D3ZERO <= 

    B3LYP-d3zero Hyb-GGA Exchange-Correlation Functional

    P. J. Stephens, F. J. Devlin, C. F. Chabalowski, and M. J. Frisch, J. Phys. Chem. 98, 11623 (1994)

    Deriv               =              1
    GGA                 =           TRUE
    Meta                =          FALSE

    Exchange Hybrid     =           TRUE
    MP2 Hybrid          =          FALSE

   => Exchange Functionals <=

    0.0800   Slater exchange
    0.7200         Becke 88

   => Exact (HF) Exchange <=

    0.2000               HF 

   => Correlation Functionals <=

    0.1900   Vosko, Wilk & Nusair (VWN5_RPA)
    0.8100   Lee, Yang & Parr

   => Molecular Quadrature <=

    Radial Scheme       =       TREUTLER
    Pruning Scheme      =           FLAT
    Nuclear Scheme      =       TREUTLER

    BS radius alpha     =              1
    Pruning alpha       =              1
    Radial Points       =             75
    Spherical Points    =            302
    Total Points        =         396919
    Total Blocks        =           3018
    Max Points          =            256
    Max Functions       =            149

   => -D3ZERO: Empirical Dispersion <=

    Grimme's -D3 (zero-damping) Dispersion Correction
    Grimme S.; Antony J.; Ehrlich S.; Krieg H. (2010), J. Chem. Phys., 132: 154104

        S6 =   1.000000E+00
        S8 =   1.703000E+00
       SR6 =   1.261000E+00
       SR8 =   1.000000E+00
    ALPHA6 =   1.400000E+01

   => Loading Basis Set <=

    Name: (6-31G* AUX)
    Role: JKFIT
    Keyword: DF_BASIS_SCF
    atoms 1-7         entry C          line   121 file /shared/joao/test_parameterize/miniconda3/share/psi4/basis/cc-pvdz-jkfit.gbs 
    atoms 8-12, 15-18 entry H          line    51 file /shared/joao/test_parameterize/miniconda3/share/psi4/basis/cc-pvdz-jkfit.gbs 
    atoms 13-14       entry N          line   171 file /shared/joao/test_parameterize/miniconda3/share/psi4/basis/cc-pvdz-jkfit.gbs 

  ==> Pre-Iterations <==

   -------------------------------------------------------
    Irrep   Nso     Nmo     Nalpha   Nbeta   Ndocc  Nsocc
   -------------------------------------------------------
     A        153     153       0       0       0       0
   -------------------------------------------------------
    Total     153     153      32      32      32       0
   -------------------------------------------------------

  ==> Integral Setup <==

  ==> DiskDFJK: Density-Fitted J/K Matrices <==

    J tasked:                  Yes
    K tasked:                  Yes
    wK tasked:                  No
    OpenMP threads:              4
    Integrals threads:           4
    Memory (MB):              2002
    Algorithm:                Core
    Integral Cache:           NONE
    Schwarz Cutoff:          1E-12
    Fitting Condition:       1E-12

   => Auxiliary Basis Set <=

  Basis Set: (6-31G* AUX)
    Blend: CC-PVDZ-JKFIT
    Number of shells: 297
    Number of basis function: 954
    Number of Cartesian functions: 954
    Spherical Harmonics?: false
    Max angular momentum: 3

  Minimum eigenvalue in the overlap matrix is 4.8624209199E-04.
  Using Symmetric Orthogonalization.

  SCF Guess: Superposition of Atomic Densities via on-the-fly atomic UHF.

  ==> Iterations <==

                           Total Energy        Delta E     RMS |[F,P]|

   @DF-RKS iter   0:  -379.62289120384361   -3.79623e+02   6.82168e-02 
   @DF-RKS iter   1:  -381.02376831820823   -1.40088e+00   1.18579e-02 
   @DF-RKS iter   2:  -380.93002461491102    9.37437e-02   1.31330e-02 DIIS
   @DF-RKS iter   3:  -381.44641439023974   -5.16390e-01   1.75336e-03 DIIS
   @DF-RKS iter   4:  -381.45318727561209   -6.77289e-03   8.16047e-04 DIIS
   @DF-RKS iter   5:  -381.45480077733828   -1.61350e-03   2.47353e-04 DIIS
   @DF-RKS iter   6:  -381.45495152499365   -1.50748e-04   8.03558e-05 DIIS
   @DF-RKS iter   7:  -381.45496894136454   -1.74164e-05   1.38117e-05 DIIS
   @DF-RKS iter   8:  -381.45496939690520   -4.55541e-07   6.38398e-06 DIIS
   @DF-RKS iter   9:  -381.45496952052298   -1.23618e-07   2.00489e-06 DIIS
   @DF-RKS iter  10:  -381.45496953328802   -1.27650e-08   6.83671e-07 DIIS
   @DF-RKS iter  11:  -381.45496953468336   -1.39534e-09   8.67070e-08 DIIS
   @DF-RKS iter  12:  -381.45496953469438   -1.10276e-11   6.77209e-08 DIIS
   @DF-RKS iter  13:  -381.45496953470797   -1.35856e-11   1.99586e-08 DIIS
   @DF-RKS iter  14:  -381.45496953470968   -1.70530e-12   4.84078e-09 DIIS

  ==> Post-Iterations <==

    Orbital Energies [Eh]
    ---------------------

    Doubly Occupied:                                                      

       1A    -14.572341     2A    -14.557836     3A    -10.499834  
       4A    -10.374236     5A    -10.357734     6A    -10.356926  
       7A    -10.342545     8A    -10.341142     9A    -10.340579  
      10A     -1.183303    11A     -1.091181    12A     -1.014676  
      13A     -0.926582    14A     -0.903034    15A     -0.845443  
      16A     -0.784161    17A     -0.774621    18A     -0.740806  
      19A     -0.733335    20A     -0.691558    21A     -0.672686  
      22A     -0.630905    23A     -0.610654    24A     -0.590441  
      25A     -0.577594    26A     -0.571587    27A     -0.516468  
      28A     -0.507516    29A     -0.498996    30A     -0.466366  
      31A     -0.409188    32A     -0.405790  

    Virtual:                                                              

      33A     -0.226087    34A     -0.156625    35A     -0.140602  
      36A     -0.108980    37A     -0.074674    38A     -0.053289  
      39A     -0.040707    40A     -0.030435    41A      0.006759  
      42A      0.019137    43A      0.028746    44A      0.060127  
      45A      0.071354    46A      0.085862    47A      0.124067  
      48A      0.146398    49A      0.156478    50A      0.167048  
      51A      0.208187    52A      0.239849    53A      0.300084  
      54A      0.349241    55A      0.355635    56A      0.379887  
      57A      0.390100    58A      0.397735    59A      0.419349  
      60A      0.422105    61A      0.440131    62A      0.450705  
      63A      0.455470    64A      0.470761    65A      0.472422  
      66A      0.474419    67A      0.486961    68A      0.505311  
      69A      0.510015    70A      0.538923    71A      0.549355  
      72A      0.587937    73A      0.611670    74A      0.652566  
      75A      0.659920    76A      0.678770    77A      0.689597  
      78A      0.705056    79A      0.716261    80A      0.723019  
      81A      0.763405    82A      0.766916    83A      0.777046  
      84A      0.806844    85A      0.814038    86A      0.836904  
      87A      0.851913    88A      0.914321    89A      0.957658  
      90A      0.971873    91A      0.987531    92A      1.018787  
      93A      1.023653    94A      1.074817    95A      1.140704  
      96A      1.161088    97A      1.262244    98A      1.275635  
      99A      1.277666   100A      1.306472   101A      1.323391  
     102A      1.341889   103A      1.359781   104A      1.361553  
     105A      1.399700   106A      1.453995   107A      1.542505  
     108A      1.605349   109A      1.628467   110A      1.651536  
     111A      1.682135   112A      1.736057   113A      1.753278  
     114A      1.799764   115A      1.823977   116A      1.830914  
     117A      1.893036   118A      1.921172   119A      1.950389  
     120A      1.981339   121A      1.994935   122A      2.013340  
     123A      2.017749   124A      2.066284   125A      2.120211  
     126A      2.127845   127A      2.151874   128A      2.188891  
     129A      2.208990   130A      2.302015   131A      2.343544  
     132A      2.391016   133A      2.447206   134A      2.452225  
     135A      2.488673   136A      2.519071   137A      2.544022  
     138A      2.589280   139A      2.601288   140A      2.627940  
     141A      2.733728   142A      2.867100   143A      2.983660  
     144A      3.258039   145A      3.628303   146A      3.666744  
     147A      3.914652   148A      3.947522   149A      3.963418  
     150A      4.048095   151A      4.173168   152A      4.254106  
     153A      4.545569  

    Final Occupation by Irrep:
              A 
    DOCC [    32 ]

  Energy converged.

  @DF-RKS Final Energy:  -381.45496953470968

   => Energetics <=

    Nuclear Repulsion Energy =            416.9234547693032482
    One-Electron Energy =               -1329.0278985337947688
    Two-Electron Energy =                 575.0687782268329329
    DFT Exchange-Correlation Energy =     -44.4074336970510473
    Empirical Dispersion Energy =          -0.0118703000000000
    VV10 Nonlocal Energy =                  0.0000000000000000
    Total Energy =                       -381.4549695347096190



Properties will be evaluated at   0.000000,   0.000000,   0.000000 [a0]

Properties computed using the SCF density matrix

  Nuclear Dipole Moment: [e a0]
     X:     0.0162      Y:    -0.0636      Z:     0.0942

  Electronic Dipole Moment: [e a0]
     X:     0.0164      Y:     0.1280      Z:    -2.3280

  Dipole Moment: [e a0]
     X:     0.0326      Y:     0.0644      Z:    -2.2338     Total:     2.2349

  Dipole Moment: [D]
     X:     0.0828      Y:     0.1636      Z:    -5.6777     Total:     5.6806


*** tstop() called on green.prib.upf.edu at Sat Sep 29 20:28:01 2018
Module time:
	user time   =      97.54 seconds =       1.63 minutes
	system time =       0.49 seconds =       0.01 minutes
	total time  =         27 seconds =       0.45 minutes
Total time:
	user time   =      97.54 seconds =       1.63 minutes
	system time =       0.49 seconds =       0.01 minutes
	total time  =         27 seconds =       0.45 minutes

*** tstart() called on green.prib.upf.edu
*** at Sat Sep 29 20:28:01 2018


         ------------------------------------------------------------
                                   SCF GRAD                          
                          Rob Parrish, Justin Turney,                
                       Andy Simmonett, and Alex Sokolov              
         ------------------------------------------------------------

  ==> Geometry <==

    Molecular point group: c1
    Full point group: C1

    Geometry (in Angstrom), charge = 1, multiplicity = 1:

       Center              X                  Y                   Z               Mass       
    ------------   -----------------  -----------------  -----------------  -----------------
         C            0.000000000000     0.000000000000    -0.177864000000    12.000000000000
         C            0.036678000000     1.219374000000     0.524165000000    12.000000000000
         C            0.031765000000     1.213120000000     1.915444000000    12.000000000000
         C            0.000000000000     0.000000000000     2.610107000000    12.000000000000
         C           -0.031765000000    -1.213120000000     1.915444000000    12.000000000000
         C           -0.036678000000    -1.219375000000     0.524165000000    12.000000000000
         C            0.000000000000     0.000000000000    -1.644734000000    12.000000000000
         H            0.018170000000     2.164705000000    -0.010854000000     1.007825032070
         H            0.042402000000     2.152895000000     2.457886000000     1.007825032070
         H            0.000000000000     0.000000000000     3.695756000000     1.007825032070
         H           -0.042402000000    -2.152895000000     2.457886000000     1.007825032070
         H           -0.018170000000    -2.164705000000    -0.010853000000     1.007825032070
         N           -0.712590000000    -0.905950000000    -2.308461000000    14.003074004780
         N            0.712590000000     0.905950000000    -2.308460000000    14.003074004780
         H            0.673432000000     1.006470000000    -3.315997000000     1.007825032070
         H            1.377190000000     1.485970000000    -1.813316000000     1.007825032070
         H           -0.872289000000    -1.818301000000    -1.901773000000     1.007825032070
         H           -1.169777000000    -0.707800000000    -3.190778000000     1.007825032070

  Nuclear repulsion =  416.923454769303248

  ==> Basis Set <==

  Basis Set: 6-31G*
    Blend: 6-31G*
    Number of shells: 72
    Number of basis function: 153
    Number of Cartesian functions: 153
    Spherical Harmonics?: false
    Max angular momentum: 2

  ==> DFJKGrad: Density-Fitted SCF Gradients <==

    Gradient:                    1
    J tasked:                  Yes
    K tasked:                  Yes
    wK tasked:                  No
    OpenMP threads:              4
    Integrals threads:           4
    Memory (MB):              2002
    Schwarz Cutoff:          0E+00
    Fitting Condition:       1E-12

   => Auxiliary Basis Set <=

  Basis Set: (6-31G* AUX)
    Blend: CC-PVDZ-JKFIT
    Number of shells: 297
    Number of basis function: 954
    Number of Cartesian functions: 954
    Spherical Harmonics?: false
    Max angular momentum: 3

  ==> DFT Potential <==

   => Composite Functional: B3LYP-D3ZERO <= 

    B3LYP-d3zero Hyb-GGA Exchange-Correlation Functional

    P. J. Stephens, F. J. Devlin, C. F. Chabalowski, and M. J. Frisch, J. Phys. Chem. 98, 11623 (1994)

    Deriv               =              1
    GGA                 =           TRUE
    Meta                =          FALSE

    Exchange Hybrid     =           TRUE
    MP2 Hybrid          =          FALSE

   => Exchange Functionals <=

    0.0800   Slater exchange
    0.7200         Becke 88

   => Exact (HF) Exchange <=

    0.2000               HF 

   => Correlation Functionals <=

    0.1900   Vosko, Wilk & Nusair (VWN5_RPA)
    0.8100   Lee, Yang & Parr

   => Molecular Quadrature <=

    Radial Scheme       =       TREUTLER
    Pruning Scheme      =           FLAT
    Nuclear Scheme      =       TREUTLER

    BS radius alpha     =              1
    Pruning alpha       =              1
    Radial Points       =             75
    Spherical Points    =            302
    Total Points        =         396919
    Total Blocks        =           3018
    Max Points          =            256
    Max Functions       =            149


  -Total Gradient:
     Atom            X                  Y                   Z
    ------   -----------------  -----------------  -----------------
       1       -0.009050033621     0.005606877380    -0.001932147974
       2       -0.001454304258     0.000082538662     0.001578530453
       3        0.000981452738     0.001173973590    -0.000939437131
       4       -0.000166780565    -0.001088887036    -0.000017485733
       5       -0.000087584741     0.001147935682     0.001154952521
       6        0.000160310621    -0.002681354095    -0.001845447879
       7       -0.009396209498    -0.004720865451    -0.002533320595
       8       -0.000297908249     0.000028258755    -0.000110199961
       9        0.000153060241    -0.000049582190     0.000102852896
      10       -0.000010001707     0.000056644621     0.000056940389
      11        0.000040735397    -0.000020272934    -0.000056123641
      12        0.000005755881     0.001112250353    -0.001473264129
      13        0.006822364736     0.005524573822     0.008173741878
      14        0.007894896783    -0.003734379632    -0.002533889602
      15       -0.001335398348     0.002278183599     0.000618797341
      16        0.003460387437    -0.003820236434    -0.000847299895
      17        0.011426221807    -0.004752996343    -0.004338055965
      18       -0.009146429357     0.003858792227     0.004927156144


*** tstop() called on green.prib.upf.edu at Sat Sep 29 20:28:08 2018
Module time:
	user time   =      25.48 seconds =       0.42 minutes
	system time =       0.20 seconds =       0.00 minutes
	total time  =          7 seconds =       0.12 minutes
Total time:
	user time   =     123.07 seconds =       2.05 minutes
	system time =       0.69 seconds =       0.01 minutes
	total time  =         34 seconds =       0.57 minutes

			-----------------------------------------
			 OPTKING 2.0: for geometry optimizations 
			  - R.A. King,  Bethel University        
			-----------------------------------------
	At level 1: Red. Int., RFO, no backsteps, dynamic trust

	Internal coordinates to be generated automatically.
	Detected frag 1 with atoms:  1 2 3 4 5 6 7 8 9 10 11 12 13 14 15 16 17 18
	---Fragment 1 Bond Connectivity---
	 1 : 2 6 7
	 2 : 1 3 8
	 3 : 2 4 9
	 4 : 3 5 10
	 5 : 4 6 11
	 6 : 1 5 12
	 7 : 1 13 14
	 8 : 2
	 9 : 3
	 10 : 4
	 11 : 5
	 12 : 6
	 13 : 7 17 18
	 14 : 7 15 16
	 15 : 14
	 16 : 14
	 17 : 13
	 18 : 13

	Assuming in current code that numbering for constraints corresponds to unified fragment.
	Frozen dihedral atom list: 
	     1     7    13    17
	---Fragment 1 Geometry and Gradient---
	 C           0.0000000000        0.0000000000       -0.3361142489
	 C           0.0693113751        2.3042829136        0.9905282984
	 C           0.0600271506        2.2924645663        3.6196645829
	 C           0.0000000000        0.0000000000        4.9323874075
	 C          -0.0600271506       -2.2924645663        3.6196645829
	 C          -0.0693113751       -2.3042848033        0.9905282984
	 C           0.0000000000        0.0000000000       -3.1080968214
	 H           0.0343363238        4.0906996085       -0.0205110874
	 H           0.0801281675        4.0683819429        4.6447314059
	 H           0.0000000000        0.0000000000        6.9839666940
	 H          -0.0801281675       -4.0683819429        4.6447314059
	 H          -0.0343363238       -4.0906996085       -0.0205091977
	 N          -1.3465999450       -1.7119973901       -4.3623590784
	 N           1.3465999450        1.7119973901       -4.3623571887
	 H           1.2726020491        1.9019526610       -6.2663261875
	 H           2.6025119329        2.8080763417       -3.4266706324
	 H          -1.6483873187       -3.4360909172       -3.5938301369
	 H          -2.2105581665       -1.3375481569       -6.0296965708
	            -0.0090500336        0.0056068774       -0.0019321480
	            -0.0014543043        0.0000825387        0.0015785305
	             0.0009814527        0.0011739736       -0.0009394371
	            -0.0001667806       -0.0010888870       -0.0000174857
	            -0.0000875847        0.0011479357        0.0011549525
	             0.0001603106       -0.0026813541       -0.0018454479
	            -0.0093962095       -0.0047208655       -0.0025333206
	            -0.0002979082        0.0000282588       -0.0001102000
	             0.0001530602       -0.0000495822        0.0001028529
	            -0.0000100017        0.0000566446        0.0000569404
	             0.0000407354       -0.0000202729       -0.0000561236
	             0.0000057559        0.0011122504       -0.0014732641
	             0.0068223647        0.0055245738        0.0081737419
	             0.0078948968       -0.0037343796       -0.0025338896
	            -0.0013353983        0.0022781836        0.0006187973
	             0.0034603874       -0.0038202364       -0.0008472999
	             0.0114262218       -0.0047529963       -0.0043380560
	            -0.0091464294        0.0038587922        0.0049271561

	Previous optimization step data not found.  Starting new optimization.

	---Fragment 1 Intrafragment Coordinates---
	 - Coordinate -           - BOHR/RAD -       - ANG/DEG -
	 R(1,2)           =         2.659794	       1.407502
	 R(1,6)           =         2.659796	       1.407503
	 R(1,7)           =         2.771983	       1.466870
	 R(2,3)           =         2.629179	       1.391302
	 R(2,8)           =         2.052976	       1.086388
	 R(3,4)           =         2.642393	       1.398294
	 R(3,9)           =         2.050622	       1.085142
	 R(4,5)           =         2.642393	       1.398294
	 R(4,10)          =         2.051579	       1.085649
	 R(5,6)           =         2.629179	       1.391302
	 R(5,11)          =         2.050622	       1.085142
	 R(6,12)          =         2.052973	       1.086386
	 R(7,13)          =         2.513452	       1.330061
	 R(7,14)          =         2.513451	       1.330061
	 R(13,17)         =         1.911599	       1.011575
	 R(13,18)         =         1.914850	       1.013295
	 R(14,15)         =         1.914852	       1.013296
	 R(14,16)         =         1.911600	       1.011575
	 B(1,2,3)         =         2.088380	     119.655376
	 B(1,2,8)         =         2.103396	     120.515689
	 B(1,6,5)         =         2.088379	     119.655315
	 B(1,6,12)        =         2.103396	     120.515729
	 B(1,7,13)        =         2.093264	     119.935172
	 B(1,7,14)        =         2.093263	     119.935135
	 B(2,1,6)         =         2.097220	     120.161857
	 B(2,1,7)         =         2.092983	     119.919082
	 B(2,3,4)         =         2.095279	     120.050636
	 B(2,3,9)         =         2.089719	     119.732108
	 B(3,2,8)         =         2.090149	     119.756722
	 B(3,4,5)         =         2.101793	     120.423859
	 B(3,4,10)        =         2.090696	     119.788070
	 B(4,3,9)         =         2.098135	     120.214297
	 B(4,5,6)         =         2.095280	     120.050677
	 B(4,5,11)        =         2.098135	     120.214297
	 B(5,4,10)        =         2.090696	     119.788070
	 B(5,6,12)        =         2.090149	     119.756743
	 B(6,1,7)         =         2.092982	     119.919061
	 B(6,5,11)        =         2.089719	     119.732067
	 B(7,13,17)       =         2.092411	     119.886294
	 B(7,13,18)       =         2.144860	     122.891398
	 B(7,14,15)       =         2.144860	     122.891405
	 B(7,14,16)       =         2.092412	     119.886393
	 B(13,7,14)       =         2.096659	     120.129694
	 B(15,14,16)      =         2.043399	     117.078146
	 B(17,13,18)      =         2.043401	     117.078249
	 D(1,2,3,4)       =         0.007799	       0.446825
	 D(1,2,3,9)       =        -3.122896	    -178.928735
	 D(1,6,5,4)       =         0.007799	       0.446822
	 D(1,6,5,11)      =        -3.122896	    -178.928737
	*D(1,7,13,17)     =        -0.523599	     -29.999999
	 D(1,7,13,18)     =         2.539577	     145.507049
	 D(1,7,14,15)     =        -3.032165	    -173.730230
	 D(1,7,14,16)     =         0.187844	      10.762681
	 D(2,1,6,5)       =        -0.003906	      -0.223802
	 D(2,1,6,12)      =        -3.091437	    -177.126283
	 D(2,1,7,13)      =        -2.505167	    -143.535494
	 D(2,1,7,14)      =         0.636426	      36.464506
	 D(2,3,4,5)       =        -0.003942	      -0.225875
	 D(2,3,4,10)      =         3.137650	     179.774125
	 D(3,2,1,6)       =        -0.003906	      -0.223806
	 D(3,2,1,7)       =         3.137687	     179.776196
	 D(3,4,5,6)       =        -0.003942	      -0.225874
	 D(3,4,5,11)      =         3.126699	     179.146646
	 D(4,3,2,8)       =         3.095744	     177.373058
	 D(4,5,6,12)      =         3.095744	     177.373055
	 D(5,4,3,9)       =         3.126699	     179.146646
	 D(5,6,1,7)       =         3.137687	     179.776197
	 D(6,1,2,8)       =        -3.091437	    -177.126287
	 D(6,1,7,13)      =         0.636426	      36.464508
	 D(6,1,7,14)      =        -2.505167	    -143.535492
	 D(6,5,4,10)      =         3.137650	     179.774126
	 D(7,1,2,8)       =         0.050156	       2.873714
	 D(7,1,6,12)      =         0.050156	       2.873716
	 D(8,2,3,9)       =        -0.034950	      -2.002503
	 D(9,3,4,10)      =        -0.014894	      -0.853354
	 D(10,4,5,11)     =        -0.014894	      -0.853354
	 D(11,5,6,12)     =        -0.034950	      -2.002504
	 D(13,7,14,15)    =         0.109428	       6.269770
	 D(13,7,14,16)    =        -2.953748	    -169.237319
	 D(14,7,13,17)    =         2.617994	     150.000001
	 D(14,7,13,18)    =        -0.602016	     -34.492951

	Current energy   :      -381.4549695347

	Generating empirical Hessian (Schlegel '84) for each fragment.
	Taking RFO optimization step.
	Going to follow RFO solution 1.
	Using RFO vector 1.

	Determining step-restricting scale parameter for RS-RFO.
	Maximum step size allowed    0.50000

	 Iter      |step|        alpha        rfo_root  
	------------------------------------------------
	    0     0.56376       1.00000           1
	    1     0.51006       1.43641           1
	    2     0.50032       1.53298           1
	    3     0.50000       1.53626           1
	------------------------------------------------
	Norm of target step-size    0.50000
	Projected energy change by RFO approximation:        -0.0104401650

	Back-transformation to cartesian coordinates...
	Could not converge backtransformation.
	Using first guess instead.

	Back-transformation to cartesian coordinates to adjust frozen coordinates...
	Successfully converged to displaced geometry.

	--- Internal Coordinate Step in ANG or DEG, aJ/ANG or AJ/DEG ---
	 ---------------------------------------------------------------------------
	   Coordinate                Previous        Force       Change         New 
	   ----------                --------       ------       ------       ------
	    1 R(1,2)          =      1.407502    -0.003842    -0.000245     1.407257
	    2 R(1,6)          =      1.407503     0.007578     0.001550     1.409053
	    3 R(1,7)          =      1.466870     0.028609     0.004900     1.471770
	    4 R(2,3)          =      1.391302     0.005165     0.001128     1.392430
	    5 R(2,8)          =      1.086388    -0.000687     0.000224     1.086612
	    6 R(3,4)          =      1.398294    -0.009176    -0.000820     1.397474
	    7 R(3,9)          =      1.085142    -0.000084     0.000198     1.085340
	    8 R(4,5)          =      1.398294    -0.000204     0.000168     1.398462
	    9 R(4,10)         =      1.085649    -0.000475     0.000194     1.085843
	   10 R(5,6)          =      1.391302    -0.007716    -0.000764     1.390537
	   11 R(5,11)         =      1.085142     0.000085     0.000344     1.085486
	   12 R(6,12)         =      1.086386     0.001997     0.000901     1.087288
	   13 R(7,13)         =      1.330061     0.102199     0.013197     1.343258
	   14 R(7,14)         =      1.330061    -0.025968     0.000742     1.330803
	   15 R(13,17)        =      1.011575    -0.006087     0.002076     1.013651
	   16 R(13,18)        =      1.013295    -0.004866     0.013792     1.027087
	   17 R(14,15)        =      1.013296     0.002790     0.000509     1.013805
	   18 R(14,16)        =      1.011575     0.002728     0.007087     1.018662
	   19 B(1,2,3)        =    119.655376     0.000030     0.077006   119.732382
	   20 B(1,2,8)        =    120.515689    -0.000009    -0.024747   120.490943
	   21 B(1,6,5)        =    119.655315     0.000069     0.219155   119.874470
	   22 B(1,6,12)       =    120.515729     0.000108     0.514889   121.030619
	   23 B(1,7,13)       =    119.935172     0.000505     1.368130   121.303302
	   24 B(1,7,14)       =    119.935135    -0.000333    -1.030026   118.905108
	   25 B(2,1,6)        =    120.161857    -0.000102    -0.282091   119.879766
	   26 B(2,1,7)        =    119.919082    -0.000286    -0.818231   119.100850
	   27 B(2,3,4)        =    120.050636     0.000029     0.097794   120.148430
	   28 B(2,3,9)        =    119.732108    -0.000023    -0.089078   119.643029
	   29 B(3,2,8)        =    119.756722    -0.000023    -0.081566   119.675156
	   30 B(3,4,5)        =    120.423859    -0.000027    -0.105087   120.318772
	   31 B(3,4,10)       =    119.788070     0.000018     0.078004   119.866074
	   32 B(4,3,9)        =    120.214297    -0.000005    -0.006755   120.207541
	   33 B(4,5,6)        =    120.050677     0.000001    -0.016983   120.033695
	   34 B(4,5,11)       =    120.214297    -0.000005    -0.012361   120.201936
	   35 B(5,4,10)       =    119.788070     0.000009     0.027078   119.815148
	   36 B(5,6,12)       =    119.756743    -0.000176    -0.724628   119.032115
	   37 B(6,1,7)        =    119.919061     0.000388     1.099669   121.018730
	   38 B(6,5,11)       =    119.732067     0.000004     0.031456   119.763523
	   39 B(7,13,17)      =    119.886294     0.000103     0.700973   120.587266
	   40 B(7,13,18)      =    122.891398     0.000009    -0.662197   122.229201
	   41 B(7,14,15)      =    122.891405    -0.000088    -0.340572   122.550833
	   42 B(7,14,16)      =    119.886393     0.000063     0.576327   120.462720
	   43 B(13,7,14)      =    120.129694    -0.000172    -0.865550   119.264143
	   44 B(15,14,16)     =    117.078146     0.000036    -0.097105   116.981040
	   45 B(17,13,18)     =    117.078249    -0.000080    -0.120798   116.957450
	   46 D(1,2,3,4)      =      0.446825     0.000008     0.792354     1.239178
	   47 D(1,2,3,9)      =   -178.928735     0.000005     0.530780  -178.397955
	   48 D(1,6,5,4)      =      0.446822     0.000002     0.173471     0.620293
	   49 D(1,6,5,11)     =   -178.928737    -0.000001    -0.116980  -179.045717
	   50 *D(1,7,13,17)   =    -29.999999     0.000000    -0.000000   -29.999999
	   51 D(1,7,13,18)    =    145.507049     0.000115    10.123597   155.630646
	   52 D(1,7,14,15)    =   -173.730230     0.000005     0.761746  -172.968484
	   53 D(1,7,14,16)    =     10.762681    -0.000034    -2.859381     7.903300
	   54 D(2,1,6,5)      =     -0.223802     0.000003     0.348292     0.124490
	   55 D(2,1,6,12)     =   -177.126283     0.000002     0.160589  -176.965693
	   56 D(2,1,7,13)     =   -143.535494     0.000032     3.030388  -140.505106
	   57 D(2,1,7,14)     =     36.464506    -0.000049    -5.362187    31.102319
	   58 D(2,3,4,5)      =     -0.225875    -0.000003    -0.271903    -0.497778
	   59 D(2,3,4,10)     =    179.774125    -0.000002    -0.245127   179.528997
	   60 D(3,2,1,6)      =     -0.223806    -0.000008    -0.830445    -1.054251
	   61 D(3,2,1,7)      =    179.776196    -0.000010    -1.121553   178.654642
	   62 D(3,4,5,6)      =     -0.225874    -0.000002    -0.214398    -0.440272
	   63 D(3,4,5,11)     =    179.146646     0.000001     0.077613   179.224260
	   64 D(4,3,2,8)      =    177.373058     0.000002     0.221328   177.594385
	   65 D(4,5,6,12)     =    177.373055     0.000005     0.395562   177.768618
	   66 D(5,4,3,9)      =    179.146646    -0.000000    -0.009354   179.137292
	   67 D(5,6,1,7)      =    179.776197     0.000006     0.645095   180.421292
	   68 D(6,1,2,8)      =   -177.126287    -0.000002    -0.252943  -177.379230
	   69 D(6,1,7,13)     =     36.464508     0.000030     2.735858    39.200365
	   70 D(6,1,7,14)     =   -143.535492    -0.000051    -5.656717  -149.192209
	   71 D(6,5,4,10)     =    179.774126    -0.000002    -0.241160   179.532966
	   72 D(7,1,2,8)      =      2.873714    -0.000005    -0.544051     2.329664
	   73 D(7,1,6,12)     =      2.873716     0.000005     0.457392     3.331108
	   74 D(8,2,3,9)      =     -2.002503    -0.000000    -0.040246    -2.042748
	   75 D(9,3,4,10)     =     -0.853354     0.000000     0.017421    -0.835933
	   76 D(10,4,5,11)    =     -0.853354     0.000001     0.050852    -0.802502
	   77 D(11,5,6,12)    =     -2.002504     0.000002     0.105112    -1.897392
	   78 D(13,7,14,15)   =      6.269770    -0.000077    -7.456970    -1.187200
	   79 D(13,7,14,16)   =   -169.237319    -0.000116   -11.078097  -180.315416
	   80 D(14,7,13,17)   =    150.000001     0.000081     8.422091   158.422093
	   81 D(14,7,13,18)   =    -34.492951     0.000196    18.545688   -15.947263
	 ---------------------------------------------------------------------------
	Successfully symmetrized geometry.

  ==> Convergence Check <==

  Measures of convergence in internal coordinates in au.
  Criteria marked as inactive (o), active & met (*), and active & unmet ( ).
  --------------------------------------------------------------------------------------------- ~
   Step     Total Energy     Delta E     MAX Force     RMS Force      MAX Disp      RMS Disp    ~
  --------------------------------------------------------------------------------------------- ~
    Convergence Criteria    1.00e-06 *    3.00e-04 *             o    1.20e-03 *             o  ~
  --------------------------------------------------------------------------------------------- ~
      1    -381.45496953   -3.81e+02      1.24e-02      2.69e-03 o    3.24e-01      5.48e-02 o  ~
  ---------------------------------------------------------------------------------------------

	Writing optimization data to binary file.
	Structure for next step:
	Cartesian Geometry (in Angstrom)
	    C     0.0305684177  -0.0407816034  -0.1710745906
	    C     0.0824583692   1.1890184758   0.5110340223
	    C     0.0545265012   1.2083387744   1.9030498373
	    C     0.0013936501   0.0103806892   2.6206892729
	    C    -0.0345814839  -1.2148472849   1.9474749068
	    C    -0.0268175457  -1.2456090449   0.5572994680
	    C     0.0308058386  -0.0435559424  -1.6428414616
	    H     0.0841352383   2.1255153140  -0.0400523422
	    H     0.0682728794   2.1586794825   2.4270989443
	    H    -0.0124798429   0.0305302410   3.7062562987
	    H    -0.0631412779  -2.1446429384   2.5068885444
	    H    -0.0181713099  -2.2076992556   0.0508389857
	    N    -0.7358435938  -0.8988808524  -2.3392685299
	    N     0.6743657218   0.9264252043  -2.2878246722
	    H     0.6246422687   1.0386360965  -3.2941726988
	    H     1.2568167923   1.5880380115  -1.7772444954
	    H    -0.9679933364  -1.8097405972  -1.9598882531
	    H    -1.0404012871  -0.7034667699  -3.3005002366
			--------------------------
			 OPTKING Finished Execution 
			--------------------------

    Structure for next step:
    Molecular point group: c1
    Full point group: C1

    Geometry (in Angstrom), charge = 1, multiplicity = 1:

    C            0.030568417714    -0.040781603388    -0.171074590641
    C            0.082458369200     1.189018475790     0.511034022265
    C            0.054526501241     1.208338774411     1.903049837340
    C            0.001393650135     0.010380689187     2.620689272931
    C           -0.034581483928    -1.214847284945     1.947474906815
    C           -0.026817545660    -1.245609044875     0.557299468035
    C            0.030805838636    -0.043555942443    -1.642841461627
    H            0.084135238306     2.125515314000    -0.040052342177
    H            0.068272879445     2.158679482499     2.427098944280
    H           -0.012479842902     0.030530241035     3.706256298728
    H           -0.063141277890    -2.144642938397     2.506888544435
    H           -0.018171309897    -2.207699255637     0.050838985679
    N           -0.735843593766    -0.898880852422    -2.339268529857
    N            0.674365721795     0.926425204273    -2.287824672151
    H            0.624642268734     1.038636096503    -3.294172698848
    H            1.256816792283     1.588038011513    -1.777244495417
    H           -0.967993336352    -1.809740597244    -1.959888253143
    H           -1.040401287096    -0.703466769862    -3.300500236646

gradient() will perform analytic gradient computation.

*** tstart() called on green.prib.upf.edu
*** at Sat Sep 29 20:28:08 2018

   => Loading Basis Set <=

    Name: 6-31G*
    Role: ORBITAL
    Keyword: BASIS
    atoms 1-7         entry C          line   111 file /shared/joao/test_parameterize/miniconda3/share/psi4/basis/6-31gs.gbs 
    atoms 8-12, 15-18 entry H          line    44 file /shared/joao/test_parameterize/miniconda3/share/psi4/basis/6-31gs.gbs 
    atoms 13-14       entry N          line   128 file /shared/joao/test_parameterize/miniconda3/share/psi4/basis/6-31gs.gbs 


         ---------------------------------------------------------
                                   SCF
            by Justin Turney, Rob Parrish, Andy Simmonett
                             and Daniel Smith
                              RKS Reference
                        4 Threads,   2861 MiB Core
         ---------------------------------------------------------

  ==> Geometry <==

    Molecular point group: c1
    Full point group: C1

    Geometry (in Angstrom), charge = 1, multiplicity = 1:

       Center              X                  Y                   Z               Mass       
    ------------   -----------------  -----------------  -----------------  -----------------
         C            0.030568417714    -0.040781603388    -0.171074590641    12.000000000000
         C            0.082458369200     1.189018475790     0.511034022265    12.000000000000
         C            0.054526501241     1.208338774411     1.903049837340    12.000000000000
         C            0.001393650135     0.010380689187     2.620689272931    12.000000000000
         C           -0.034581483928    -1.214847284945     1.947474906815    12.000000000000
         C           -0.026817545660    -1.245609044875     0.557299468035    12.000000000000
         C            0.030805838636    -0.043555942443    -1.642841461627    12.000000000000
         H            0.084135238306     2.125515314000    -0.040052342177     1.007825032070
         H            0.068272879445     2.158679482499     2.427098944280     1.007825032070
         H           -0.012479842902     0.030530241035     3.706256298728     1.007825032070
         H           -0.063141277890    -2.144642938397     2.506888544435     1.007825032070
         H           -0.018171309897    -2.207699255637     0.050838985679     1.007825032070
         N           -0.735843593766    -0.898880852422    -2.339268529857    14.003074004780
         N            0.674365721795     0.926425204273    -2.287824672151    14.003074004780
         H            0.624642268734     1.038636096503    -3.294172698848     1.007825032070
         H            1.256816792283     1.588038011513    -1.777244495417     1.007825032070
         H           -0.967993336352    -1.809740597244    -1.959888253143     1.007825032070
         H           -1.040401287096    -0.703466769862    -3.300500236646     1.007825032070

  Running in c1 symmetry.

  Rotational constants: A =      0.12169  B =      0.03942  C =      0.03105 [cm^-1]
  Rotational constants: A =   3648.15501  B =   1181.68602  C =    930.85085 [MHz]
  Nuclear repulsion =  416.080826318086906

  Charge       = 1
  Multiplicity = 1
  Electrons    = 64
  Nalpha       = 32
  Nbeta        = 32

  ==> Algorithm <==

  SCF Algorithm Type is DF.
  DIIS enabled.
  MOM disabled.
  Fractional occupation disabled.
  Guess Type is READ.
  Energy threshold   = 1.00e-08
  Density threshold  = 1.00e-08
  Integral threshold = 0.00e+00

  ==> Primary Basis <==

  Basis Set: 6-31G*
    Blend: 6-31G*
    Number of shells: 72
    Number of basis function: 153
    Number of Cartesian functions: 153
    Spherical Harmonics?: false
    Max angular momentum: 2

  ==> DFT Potential <==

   => Composite Functional: B3LYP-D3ZERO <= 

    B3LYP-d3zero Hyb-GGA Exchange-Correlation Functional

    P. J. Stephens, F. J. Devlin, C. F. Chabalowski, and M. J. Frisch, J. Phys. Chem. 98, 11623 (1994)

    Deriv               =              1
    GGA                 =           TRUE
    Meta                =          FALSE

    Exchange Hybrid     =           TRUE
    MP2 Hybrid          =          FALSE

   => Exchange Functionals <=

    0.0800   Slater exchange
    0.7200         Becke 88

   => Exact (HF) Exchange <=

    0.2000               HF 

   => Correlation Functionals <=

    0.1900   Vosko, Wilk & Nusair (VWN5_RPA)
    0.8100   Lee, Yang & Parr

   => Molecular Quadrature <=

    Radial Scheme       =       TREUTLER
    Pruning Scheme      =           FLAT
    Nuclear Scheme      =       TREUTLER

    BS radius alpha     =              1
    Pruning alpha       =              1
    Radial Points       =             75
    Spherical Points    =            302
    Total Points        =         396865
    Total Blocks        =           3007
    Max Points          =            256
    Max Functions       =            149

   => -D3ZERO: Empirical Dispersion <=

    Grimme's -D3 (zero-damping) Dispersion Correction
    Grimme S.; Antony J.; Ehrlich S.; Krieg H. (2010), J. Chem. Phys., 132: 154104

        S6 =   1.000000E+00
        S8 =   1.703000E+00
       SR6 =   1.261000E+00
       SR8 =   1.000000E+00
    ALPHA6 =   1.400000E+01

   => Loading Basis Set <=

    Name: (6-31G* AUX)
    Role: JKFIT
    Keyword: DF_BASIS_SCF
    atoms 1-7         entry C          line   121 file /shared/joao/test_parameterize/miniconda3/share/psi4/basis/cc-pvdz-jkfit.gbs 
    atoms 8-12, 15-18 entry H          line    51 file /shared/joao/test_parameterize/miniconda3/share/psi4/basis/cc-pvdz-jkfit.gbs 
    atoms 13-14       entry N          line   171 file /shared/joao/test_parameterize/miniconda3/share/psi4/basis/cc-pvdz-jkfit.gbs 

  Reading orbitals from file 180, no projection.

  ==> Pre-Iterations <==

   -------------------------------------------------------
    Irrep   Nso     Nmo     Nalpha   Nbeta   Ndocc  Nsocc
   -------------------------------------------------------
     A        153     153       0       0       0       0
   -------------------------------------------------------
    Total     153     153      32      32      32       0
   -------------------------------------------------------

  ==> Integral Setup <==

  ==> DiskDFJK: Density-Fitted J/K Matrices <==

    J tasked:                  Yes
    K tasked:                  Yes
    wK tasked:                  No
    OpenMP threads:              4
    Integrals threads:           4
    Memory (MB):              2002
    Algorithm:                Core
    Integral Cache:           NONE
    Schwarz Cutoff:          1E-12
    Fitting Condition:       1E-12

   => Auxiliary Basis Set <=

  Basis Set: (6-31G* AUX)
    Blend: CC-PVDZ-JKFIT
    Number of shells: 297
    Number of basis function: 954
    Number of Cartesian functions: 954
    Spherical Harmonics?: false
    Max angular momentum: 3

  Minimum eigenvalue in the overlap matrix is 4.8663520567E-04.
  Using Symmetric Orthogonalization.

  SCF Guess: Orbitals guess was supplied from a previous computation.

  ==> Iterations <==

                           Total Energy        Delta E     RMS |[F,P]|

   @DF-RKS iter   0:  -381.42237211174961   -3.81422e+02   2.07326e-03 
   @DF-RKS iter   1:  -381.46021499161202   -3.78429e-02   3.10665e-04 
   @DF-RKS iter   2:  -381.45998457567367    2.30416e-04   4.39371e-04 DIIS
   @DF-RKS iter   3:  -381.46053655392484   -5.51978e-04   8.29074e-05 DIIS
   @DF-RKS iter   4:  -381.46055314149447   -1.65876e-05   3.49125e-05 DIIS
   @DF-RKS iter   5:  -381.46055643798383   -3.29649e-06   1.11129e-05 DIIS
   @DF-RKS iter   6:  -381.46055679661885   -3.58635e-07   3.96748e-06 DIIS
   @DF-RKS iter   7:  -381.46055683960407   -4.29852e-08   9.02335e-07 DIIS
   @DF-RKS iter   8:  -381.46055684210245   -2.49838e-09   2.82209e-07 DIIS
   @DF-RKS iter   9:  -381.46055684231015   -2.07706e-10   8.37420e-08 DIIS
   @DF-RKS iter  10:  -381.46055684232715   -1.69962e-11   3.49903e-08 DIIS
   @DF-RKS iter  11:  -381.46055684233193   -4.77485e-12   1.25761e-08 DIIS
   @DF-RKS iter  12:  -381.46055684233204   -1.13687e-13   2.74961e-09 DIIS

  ==> Post-Iterations <==

    Orbital Energies [Eh]
    ---------------------

    Doubly Occupied:                                                      

       1A    -14.571786     2A    -14.564860     3A    -10.500943  
       4A    -10.375562     5A    -10.357488     6A    -10.356987  
       7A    -10.342208     8A    -10.340640     9A    -10.340427  
      10A     -1.181222    11A     -1.088208    12A     -1.014252  
      13A     -0.926234    14A     -0.902553    15A     -0.845049  
      16A     -0.783771    17A     -0.772971    18A     -0.738600  
      19A     -0.733343    20A     -0.688002    21A     -0.669968  
      22A     -0.629080    23A     -0.612691    24A     -0.589657  
      25A     -0.577747    26A     -0.574193    27A     -0.516191  
      28A     -0.507244    29A     -0.498665    30A     -0.468951  
      31A     -0.409442    32A     -0.405434  

    Virtual:                                                              

      33A     -0.221878    34A     -0.156596    35A     -0.137487  
      36A     -0.112899    37A     -0.075122    38A     -0.064118  
      39A     -0.039718    40A     -0.033252    41A      0.007267  
      42A      0.021471    43A      0.026593    44A      0.062503  
      45A      0.065694    46A      0.082723    47A      0.121058  
      48A      0.144407    49A      0.156699    50A      0.168491  
      51A      0.204737    52A      0.238016    53A      0.299721  
      54A      0.350253    55A      0.353189    56A      0.379070  
      57A      0.389337    58A      0.398384    59A      0.418623  
      60A      0.421393    61A      0.440432    62A      0.450807  
      63A      0.455577    64A      0.468474    65A      0.471533  
      66A      0.474115    67A      0.486405    68A      0.500668  
      69A      0.508131    70A      0.543213    71A      0.547510  
      72A      0.588999    73A      0.609930    74A      0.650908  
      75A      0.654380    76A      0.676879    77A      0.686256  
      78A      0.704906    79A      0.716026    80A      0.726441  
      81A      0.765457    82A      0.767591    83A      0.775407  
      84A      0.800978    85A      0.818246    86A      0.839120  
      87A      0.849101    88A      0.931681    89A      0.957830  
      90A      0.979851    91A      0.996116    92A      1.024352  
      93A      1.033470    94A      1.070394    95A      1.135286  
      96A      1.162763    97A      1.253047    98A      1.268667  
      99A      1.275321   100A      1.313668   101A      1.324353  
     102A      1.334279   103A      1.344978   104A      1.361805  
     105A      1.412102   106A      1.452127   107A      1.517693  
     108A      1.612620   109A      1.621517   110A      1.653827  
     111A      1.686842   112A      1.736099   113A      1.746670  
     114A      1.794545   115A      1.820818   116A      1.826444  
     117A      1.893266   118A      1.926867   119A      1.938166  
     120A      1.976355   121A      1.993668   122A      2.011341  
     123A      2.020217   124A      2.065502   125A      2.121447  
     126A      2.124521   127A      2.152302   128A      2.195551  
     129A      2.203116   130A      2.273897   131A      2.320677  
     132A      2.372581   133A      2.442807   134A      2.452100  
     135A      2.486988   136A      2.522913   137A      2.541979  
     138A      2.589252   139A      2.605589   140A      2.627177  
     141A      2.733870   142A      2.860204   143A      2.979053  
     144A      3.256138   145A      3.628078   146A      3.650315  
     147A      3.912942   148A      3.947912   149A      3.962930  
     150A      4.048448   151A      4.172880   152A      4.253314  
     153A      4.543927  

    Final Occupation by Irrep:
              A 
    DOCC [    32 ]

  Energy converged.

  @DF-RKS Final Energy:  -381.46055684233204

   => Energetics <=

    Nuclear Repulsion Energy =            416.0808263180869062
    One-Electron Energy =               -1327.3779417168113923
    Two-Electron Energy =                 574.2374240868075503
    DFT Exchange-Correlation Energy =     -44.3890766804151227
    Empirical Dispersion Energy =          -0.0117888500000000
    VV10 Nonlocal Energy =                  0.0000000000000000
    Total Energy =                       -381.4605568423320960



Properties will be evaluated at   0.000000,   0.000000,   0.000000 [a0]

Properties computed using the SCF density matrix

  Nuclear Dipole Moment: [e a0]
     X:     0.6264      Y:    -1.0463      Z:     0.5355

  Electronic Dipole Moment: [e a0]
     X:    -0.6125      Y:     1.0864      Z:    -2.8147

  Dipole Moment: [e a0]
     X:     0.0139      Y:     0.0401      Z:    -2.2792     Total:     2.2796

  Dipole Moment: [D]
     X:     0.0352      Y:     0.1019      Z:    -5.7932     Total:     5.7942


*** tstop() called on green.prib.upf.edu at Sat Sep 29 20:28:32 2018
Module time:
	user time   =      89.52 seconds =       1.49 minutes
	system time =       0.40 seconds =       0.01 minutes
	total time  =         24 seconds =       0.40 minutes
Total time:
	user time   =     213.49 seconds =       3.56 minutes
	system time =       1.14 seconds =       0.02 minutes
	total time  =         58 seconds =       0.97 minutes

*** tstart() called on green.prib.upf.edu
*** at Sat Sep 29 20:28:32 2018


         ------------------------------------------------------------
                                   SCF GRAD                          
                          Rob Parrish, Justin Turney,                
                       Andy Simmonett, and Alex Sokolov              
         ------------------------------------------------------------

  ==> Geometry <==

    Molecular point group: c1
    Full point group: C1

    Geometry (in Angstrom), charge = 1, multiplicity = 1:

       Center              X                  Y                   Z               Mass       
    ------------   -----------------  -----------------  -----------------  -----------------
         C            0.030568417714    -0.040781603388    -0.171074590641    12.000000000000
         C            0.082458369200     1.189018475790     0.511034022265    12.000000000000
         C            0.054526501241     1.208338774411     1.903049837340    12.000000000000
         C            0.001393650135     0.010380689187     2.620689272931    12.000000000000
         C           -0.034581483928    -1.214847284945     1.947474906815    12.000000000000
         C           -0.026817545660    -1.245609044875     0.557299468035    12.000000000000
         C            0.030805838636    -0.043555942443    -1.642841461627    12.000000000000
         H            0.084135238306     2.125515314000    -0.040052342177     1.007825032070
         H            0.068272879445     2.158679482499     2.427098944280     1.007825032070
         H           -0.012479842902     0.030530241035     3.706256298728     1.007825032070
         H           -0.063141277890    -2.144642938397     2.506888544435     1.007825032070
         H           -0.018171309897    -2.207699255637     0.050838985679     1.007825032070
         N           -0.735843593766    -0.898880852422    -2.339268529857    14.003074004780
         N            0.674365721795     0.926425204273    -2.287824672151    14.003074004780
         H            0.624642268734     1.038636096503    -3.294172698848     1.007825032070
         H            1.256816792283     1.588038011513    -1.777244495417     1.007825032070
         H           -0.967993336352    -1.809740597244    -1.959888253143     1.007825032070
         H           -1.040401287096    -0.703466769862    -3.300500236646     1.007825032070

  Nuclear repulsion =  416.080826318086906

  ==> Basis Set <==

  Basis Set: 6-31G*
    Blend: 6-31G*
    Number of shells: 72
    Number of basis function: 153
    Number of Cartesian functions: 153
    Spherical Harmonics?: false
    Max angular momentum: 2

  ==> DFJKGrad: Density-Fitted SCF Gradients <==

    Gradient:                    1
    J tasked:                  Yes
    K tasked:                  Yes
    wK tasked:                  No
    OpenMP threads:              4
    Integrals threads:           4
    Memory (MB):              2002
    Schwarz Cutoff:          0E+00
    Fitting Condition:       1E-12

   => Auxiliary Basis Set <=

  Basis Set: (6-31G* AUX)
    Blend: CC-PVDZ-JKFIT
    Number of shells: 297
    Number of basis function: 954
    Number of Cartesian functions: 954
    Spherical Harmonics?: false
    Max angular momentum: 3

  ==> DFT Potential <==

   => Composite Functional: B3LYP-D3ZERO <= 

    B3LYP-d3zero Hyb-GGA Exchange-Correlation Functional

    P. J. Stephens, F. J. Devlin, C. F. Chabalowski, and M. J. Frisch, J. Phys. Chem. 98, 11623 (1994)

    Deriv               =              1
    GGA                 =           TRUE
    Meta                =          FALSE

    Exchange Hybrid     =           TRUE
    MP2 Hybrid          =          FALSE

   => Exchange Functionals <=

    0.0800   Slater exchange
    0.7200         Becke 88

   => Exact (HF) Exchange <=

    0.2000               HF 

   => Correlation Functionals <=

    0.1900   Vosko, Wilk & Nusair (VWN5_RPA)
    0.8100   Lee, Yang & Parr

   => Molecular Quadrature <=

    Radial Scheme       =       TREUTLER
    Pruning Scheme      =           FLAT
    Nuclear Scheme      =       TREUTLER

    BS radius alpha     =              1
    Pruning alpha       =              1
    Radial Points       =             75
    Spherical Points    =            302
    Total Points        =         396865
    Total Blocks        =           3007
    Max Points          =            256
    Max Functions       =            149


  -Total Gradient:
     Atom            X                  Y                   Z
    ------   -----------------  -----------------  -----------------
       1       -0.007846547287     0.009308671779    -0.000710196567
       2        0.000238362801     0.000378331057    -0.000286389864
       3       -0.000080126708     0.000063158433     0.000140644587
       4       -0.000034460384    -0.000221120047    -0.000042227392
       5        0.000205009302    -0.000085742505    -0.000077878726
       6        0.000011012122    -0.001117998066     0.001431871320
       7        0.011297182841    -0.007817386492     0.004789651076
       8        0.000486234393    -0.000186267490    -0.001397857485
       9        0.000000036877     0.000053893124     0.000168562867
      10        0.000026115592    -0.000067373765     0.000201110608
      11       -0.000021224534    -0.000193812983     0.000209102006
      12        0.000237124407    -0.000325054853     0.000374192860
      13       -0.004937896939    -0.002289479368     0.005798619166
      14        0.000303237036    -0.002638030254    -0.002225150742
      15       -0.001120937110     0.000559412542    -0.000214636502
      16        0.004136614673     0.003992321071     0.003192500601
      17        0.007305852809    -0.005483298652    -0.002804298545
      18       -0.010202047875     0.006070481103    -0.008557778791


*** tstop() called on green.prib.upf.edu at Sat Sep 29 20:28:39 2018
Module time:
	user time   =      26.32 seconds =       0.44 minutes
	system time =       0.22 seconds =       0.00 minutes
	total time  =          7 seconds =       0.12 minutes
Total time:
	user time   =     239.86 seconds =       4.00 minutes
	system time =       1.37 seconds =       0.02 minutes
	total time  =         65 seconds =       1.08 minutes

			-----------------------------------------
			 OPTKING 2.0: for geometry optimizations 
			  - R.A. King,  Bethel University        
			-----------------------------------------
	At level 1: Red. Int., RFO, no backsteps, dynamic trust

	Previous internal coordinate definitions found.
	---Fragment 1 Geometry and Gradient---
	 C           0.0577659378       -0.0770660617       -0.3232841246
	 C           0.1558237352        2.2469192862        0.9657143467
	 C           0.1030401543        2.2834293594        3.5962430098
	 C           0.0026336171        0.0196166596        4.9523850052
	 C          -0.0653495339       -2.2957286618        3.6801942245
	 C          -0.0506778169       -2.3538599635        1.0531433686
	 C           0.0582145983       -0.0823088027       -3.1045204422
	 H           0.1589925585        4.0166418347       -0.0756879577
	 H           0.1290170445        4.0793130306        4.5865523021
	 H          -0.0235834853        0.0576937943        7.0038093829
	 H          -0.1193197229       -4.0527878064        4.7373327947
	 H          -0.0343387992       -4.1719469769        0.0960717598
	 N          -1.3905428689       -1.6986386372       -4.4205768727
	 N           1.2743665276        1.7506899187       -4.3233620704
	 H           1.1804028189        1.9627377741       -6.2250842353
	 H           2.3750395366        3.0009569304       -3.3585053675
	 H          -1.8292423042       -3.4199141004       -3.7036520495
	 H          -1.9660735009       -1.3293595386       -6.2370415488
	            -0.0078465473        0.0093086718       -0.0007101966
	             0.0002383628        0.0003783311       -0.0002863899
	            -0.0000801267        0.0000631584        0.0001406446
	            -0.0000344604       -0.0002211200       -0.0000422274
	             0.0002050093       -0.0000857425       -0.0000778787
	             0.0000110121       -0.0011179981        0.0014318713
	             0.0112971828       -0.0078173865        0.0047896511
	             0.0004862344       -0.0001862675       -0.0013978575
	             0.0000000369        0.0000538931        0.0001685629
	             0.0000261156       -0.0000673738        0.0002011106
	            -0.0000212245       -0.0001938130        0.0002091020
	             0.0002371244       -0.0003250549        0.0003741929
	            -0.0049378969       -0.0022894794        0.0057986192
	             0.0003032370       -0.0026380303       -0.0022251507
	            -0.0011209371        0.0005594125       -0.0002146365
	             0.0041366147        0.0039923211        0.0031925006
	             0.0073058528       -0.0054832987       -0.0028042985
	            -0.0102020479        0.0060704811       -0.0085577788

	---Fragment 1 Intrafragment Coordinates---
	 - Coordinate -           - BOHR/RAD -       - ANG/DEG -
	 R(1,2)           =         2.659331	       1.407257
	 R(1,6)           =         2.662725	       1.409053
	 R(1,7)           =         2.781241	       1.471770
	 R(2,3)           =         2.631311	       1.392430
	 R(2,8)           =         2.053399	       1.086612
	 R(3,4)           =         2.640843	       1.397474
	 R(3,9)           =         2.050996	       1.085340
	 R(4,5)           =         2.642710	       1.398462
	 R(4,10)          =         2.051945	       1.085843
	 R(5,6)           =         2.627735	       1.390537
	 R(5,11)          =         2.051271	       1.085486
	 R(6,12)          =         2.054676	       1.087288
	 R(7,13)          =         2.538390	       1.343258
	 R(7,14)          =         2.514853	       1.330803
	 R(13,17)         =         1.915523	       1.013651
	 R(13,18)         =         1.940914	       1.027087
	 R(14,15)         =         1.915813	       1.013805
	 R(14,16)         =         1.924993	       1.018662
	 B(1,2,3)         =         2.089724	     119.732382
	 B(1,2,8)         =         2.102964	     120.490943
	 B(1,6,5)         =         2.092204	     119.874470
	 B(1,6,12)        =         2.112383	     121.030619
	 B(1,7,13)        =         2.117142	     121.303302
	 B(1,7,14)        =         2.075286	     118.905108
	 B(2,1,6)         =         2.092297	     119.879766
	 B(2,1,7)         =         2.078702	     119.100850
	 B(2,3,4)         =         2.096986	     120.148430
	 B(2,3,9)         =         2.088165	     119.643029
	 B(3,2,8)         =         2.088725	     119.675156
	 B(3,4,5)         =         2.099959	     120.318772
	 B(3,4,10)        =         2.092058	     119.866074
	 B(4,3,9)         =         2.098017	     120.207541
	 B(4,5,6)         =         2.094983	     120.033695
	 B(4,5,11)        =         2.097920	     120.201936
	 B(5,4,10)        =         2.091169	     119.815148
	 B(5,6,12)        =         2.077502	     119.032115
	 B(6,1,7)         =         2.112175	     121.018730
	 B(6,5,11)        =         2.090268	     119.763523
	 B(7,13,17)       =         2.104645	     120.587266
	 B(7,13,18)       =         2.133302	     122.229201
	 B(7,14,15)       =         2.138916	     122.550833
	 B(7,14,16)       =         2.102471	     120.462720
	 B(13,7,14)       =         2.081552	     119.264143
	 B(15,14,16)      =         2.041704	     116.981040
	 B(17,13,18)      =         2.041293	     116.957450
	 D(1,2,3,4)       =         0.021628	       1.239178
	 D(1,2,3,9)       =        -3.113632	    -178.397955
	 D(1,6,5,4)       =         0.010826	       0.620293
	 D(1,6,5,11)      =        -3.124937	    -179.045717
	*D(1,7,13,17)     =        -0.523599	     -29.999999
	 D(1,7,13,18)     =         2.716267	     155.630646
	 D(1,7,14,15)     =        -3.018870	    -172.968484
	 D(1,7,14,16)     =         0.137939	       7.903300
	 D(2,1,6,5)       =         0.002173	       0.124490
	 D(2,1,6,12)      =        -3.088634	    -176.965693
	 D(2,1,7,13)      =        -2.452277	    -140.505106
	 D(2,1,7,14)      =         0.542838	      31.102319
	 D(2,3,4,5)       =        -0.008688	      -0.497778
	 D(2,3,4,10)      =         3.133372	     179.528997
	 D(3,2,1,6)       =        -0.018400	      -1.054251
	 D(3,2,1,7)       =         3.118112	     178.654642
	 D(3,4,5,6)       =        -0.007684	      -0.440272
	 D(3,4,5,11)      =         3.128053	     179.224260
	 D(4,3,2,8)       =         3.099607	     177.594385
	 D(4,5,6,12)      =         3.102648	     177.768618
	 D(5,4,3,9)       =         3.126536	     179.137292
	 D(5,6,1,7)       =        -3.134240	    -179.578708
	 D(6,1,2,8)       =        -3.095852	    -177.379230
	 D(6,1,7,13)      =         0.684175	      39.200365
	 D(6,1,7,14)      =        -2.603895	    -149.192209
	 D(6,5,4,10)      =         3.133441	     179.532966
	 D(7,1,2,8)       =         0.040660	       2.329664
	 D(7,1,6,12)      =         0.058139	       3.331108
	 D(8,2,3,9)       =        -0.035653	      -2.042748
	 D(9,3,4,10)      =        -0.014590	      -0.835933
	 D(10,4,5,11)     =        -0.014006	      -0.802502
	 D(11,5,6,12)     =        -0.033116	      -1.897392
	 D(13,7,14,15)    =        -0.020721	      -1.187200
	 D(13,7,14,16)    =         3.136088	     179.684584
	 D(14,7,13,17)    =         2.764987	     158.422093
	 D(14,7,13,18)    =        -0.278332	     -15.947263

	Current energy   :      -381.4605568423

	Energy change for the previous step:
		Projected    :        -0.0104401650
		Actual       :        -0.0055873076

	Performing BFGS update.
	Previous computed or guess Hessian on step 1.
	Steps to be used in Hessian update: 1
	Taking RFO optimization step.
	Going to follow RFO solution 1.
	Using RFO vector 1.

	Determining step-restricting scale parameter for RS-RFO.
	Maximum step size allowed    0.50000

	 Iter      |step|        alpha        rfo_root  
	------------------------------------------------
	    0     0.51710       1.00000           1
	    1     0.50088       1.13531           1
	    2     0.50000       1.14308           1
	------------------------------------------------
	Norm of target step-size    0.50000
	Projected energy change by RFO approximation:        -0.0063754352

	Back-transformation to cartesian coordinates...
	Could not converge backtransformation.
	Using first guess instead.

	Back-transformation to cartesian coordinates to adjust frozen coordinates...
	Successfully converged to displaced geometry.

	--- Internal Coordinate Step in ANG or DEG, aJ/ANG or AJ/DEG ---
	 ---------------------------------------------------------------------------
	   Coordinate                Previous        Force       Change         New 
	   ----------                --------       ------       ------       ------
	    1 R(1,2)          =      1.407257     0.006054     0.001030     1.408287
	    2 R(1,6)          =      1.409053    -0.018304    -0.002239     1.406815
	    3 R(1,7)          =      1.471770    -0.000268     0.002189     1.473959
	    4 R(2,3)          =      1.392430    -0.004260     0.000027     1.392457
	    5 R(2,8)          =      1.086612    -0.004522    -0.000474     1.086138
	    6 R(3,4)          =      1.397474    -0.004666    -0.000896     1.396578
	    7 R(3,9)          =      1.085340    -0.001062    -0.000051     1.085290
	    8 R(4,5)          =      1.398462    -0.001566     0.000016     1.398478
	    9 R(4,10)         =      1.085843    -0.001648    -0.000146     1.085697
	   10 R(5,6)          =      1.390537    -0.000649    -0.000292     1.390245
	   11 R(5,11)         =      1.085486    -0.002262    -0.000173     1.085313
	   12 R(6,12)         =      1.087288    -0.000947     0.000447     1.087735
	   13 R(7,13)         =      1.343258    -0.069534    -0.002252     1.341006
	   14 R(7,14)         =      1.330803    -0.021694    -0.001269     1.329534
	   15 R(13,17)        =      1.013651    -0.018167    -0.001552     1.012099
	   16 R(13,18)        =      1.027087    -0.100419     0.030775     1.057863
	   17 R(14,15)        =      1.013805    -0.002716     0.000882     1.014686
	   18 R(14,16)        =      1.018662    -0.054030    -0.004142     1.014521
	   19 B(1,2,3)        =    119.732382    -0.000001     0.030576   119.762958
	   20 B(1,2,8)        =    120.490943     0.000101     0.498093   120.989036
	   21 B(1,6,5)        =    119.874470     0.000028     0.173074   120.047543
	   22 B(1,6,12)       =    121.030619    -0.000051    -0.027483   121.003136
	   23 B(1,7,13)       =    121.303302    -0.000336    -0.473812   120.829490
	   24 B(1,7,14)       =    118.905108     0.000408     1.053420   119.958528
	   25 B(2,1,6)        =    119.879766    -0.000012    -0.160829   119.718937
	   26 B(2,1,7)        =    119.100850     0.000278     0.600473   119.701324
	   27 B(2,3,4)        =    120.148430     0.000003     0.070315   120.218745
	   28 B(2,3,9)        =    119.643029    -0.000011    -0.101350   119.541680
	   29 B(3,2,8)        =    119.675156    -0.000101    -0.563629   119.111527
	   30 B(3,4,5)        =    120.318772    -0.000020    -0.106658   120.212114
	   31 B(3,4,10)       =    119.866074     0.000004     0.034960   119.901034
	   32 B(4,3,9)        =    120.207541     0.000008     0.029274   120.236816
	   33 B(4,5,6)        =    120.033695     0.000003    -0.003698   120.029997
	   34 B(4,5,11)       =    120.201936     0.000005     0.027603   120.229539
	   35 B(5,4,10)       =    119.815148     0.000015     0.070639   119.885787
	   36 B(5,6,12)       =    119.032115     0.000024    -0.130979   118.901136
	   37 B(6,1,7)        =    121.018730    -0.000266    -0.458468   120.560262
	   38 B(6,5,11)       =    119.763523    -0.000008    -0.023484   119.740039
	   39 B(7,13,17)      =    120.587266     0.000018    -0.032599   120.554667
	   40 B(7,13,18)      =    122.229201    -0.000022    -2.612823   119.616378
	   41 B(7,14,15)      =    122.550833     0.000026    -0.007819   122.543014
	   42 B(7,14,16)      =    120.462720    -0.000016     0.141969   120.604688
	   43 B(13,7,14)      =    119.264143    -0.000064    -0.490030   118.774113
	   44 B(15,14,16)     =    116.981040    -0.000010    -0.141313   116.839727
	   45 B(17,13,18)     =    116.957450    -0.000041    -1.620132   115.337318
	   46 D(1,2,3,4)      =      1.239178    -0.000002    -0.166710     1.072468
	   47 D(1,2,3,9)      =   -178.397955    -0.000000     0.073228  -178.324728
	   48 D(1,6,5,4)      =      0.620293     0.000000     0.101416     0.721709
	   49 D(1,6,5,11)     =   -179.045717     0.000000     0.004143  -179.041574
	   50 *D(1,7,13,17)   =    -29.999999    -0.000000    -0.000000   -29.999999
	   51 D(1,7,13,18)    =    155.630646     0.000127    19.246680   174.877326
	   52 D(1,7,14,15)    =   -172.968484    -0.000021    -3.538530  -176.507014
	   53 D(1,7,14,16)    =      7.903300    -0.000011    -3.079371     4.823930
	   54 D(2,1,6,5)      =      0.124490    -0.000003    -0.477932    -0.353442
	   55 D(2,1,6,12)     =   -176.965693    -0.000005    -0.835362  -177.801055
	   56 D(2,1,7,13)     =   -140.505106    -0.000000     0.964671  -139.540436
	   57 D(2,1,7,14)     =     31.102319     0.000014     1.670866    32.773185
	   58 D(2,3,4,5)      =     -0.497778    -0.000001    -0.210942    -0.708720
	   59 D(2,3,4,10)     =    179.528997     0.000001     0.138012   179.667009
	   60 D(3,2,1,6)      =     -1.054251     0.000004     0.510725    -0.543526
	   61 D(3,2,1,7)      =    178.654642    -0.000003    -0.794292   177.860351
	   62 D(3,4,5,6)      =     -0.440272     0.000002     0.245079    -0.195193
	   63 D(3,4,5,11)     =    179.224260     0.000002     0.342660   179.566920
	   64 D(4,3,2,8)      =    177.594385    -0.000004    -0.725822   176.868563
	   65 D(4,5,6,12)     =    177.768618     0.000002     0.454138   178.222756
	   66 D(5,4,3,9)      =    179.137292    -0.000002    -0.453034   178.684258
	   67 D(5,6,1,7)      =   -179.578708     0.000004     0.835342  -178.743366
	   68 D(6,1,2,8)      =   -177.379230     0.000008     1.120223  -176.259007
	   69 D(6,1,7,13)     =     39.200365    -0.000008    -0.350594    38.849771
	   70 D(6,1,7,14)     =   -149.192209     0.000007     0.355601  -148.836608
	   71 D(6,5,4,10)     =    179.532966    -0.000000    -0.103831   179.429135
	   72 D(7,1,2,8)      =      2.329664     0.000001    -0.184794     2.144869
	   73 D(7,1,6,12)     =      3.331108     0.000002     0.477913     3.809021
	   74 D(8,2,3,9)      =     -2.042748    -0.000003    -0.485884    -2.528633
	   75 D(9,3,4,10)     =     -0.835933    -0.000001    -0.104080    -0.940013
	   76 D(10,4,5,11)    =     -0.802502    -0.000000    -0.006250    -0.808752
	   77 D(11,5,6,12)    =     -1.897392     0.000002     0.356865    -1.540527
	   78 D(13,7,14,15)   =     -1.187200    -0.000013    -2.848941    -4.036141
	   79 D(13,7,14,16)   =    179.684584    -0.000003    -2.389781   177.294803
	   80 D(14,7,13,17)   =    158.422093    -0.000023    -0.825134   157.596958
	   81 D(14,7,13,18)   =    -15.947263     0.000104    18.421546     2.474283
	 ---------------------------------------------------------------------------
	Successfully symmetrized geometry.

  ==> Convergence Check <==

  Measures of convergence in internal coordinates in au.
  Criteria marked as inactive (o), active & met (*), and active & unmet ( ).
  ---------------------------------------------------------------------------------------------
   Step     Total Energy     Delta E     MAX Force     RMS Force      MAX Disp      RMS Disp   
  ---------------------------------------------------------------------------------------------
    Convergence Criteria    1.00e-06 *    3.00e-04 *             o    1.20e-03 *             o
  ---------------------------------------------------------------------------------------------
      2    -381.46055684   -5.59e-03      1.22e-02      2.37e-03 o    3.36e-01      5.42e-02 o  ~
  ---------------------------------------------------------------------------------------------

	Writing optimization data to binary file.
	Structure for next step:
	Cartesian Geometry (in Angstrom)
	    C     0.0300511170  -0.0210684486  -0.1642146336
	    C     0.0868110679   1.2012555521   0.5329044061
	    C     0.0668013983   1.2045162594   1.9252136533
	    C     0.0133167740   0.0001472838   2.6302413843
	    C    -0.0354299675  -1.2164378426   1.9422851444
	    C    -0.0348684935  -1.2301159621   0.5521073249
	    C     0.0035589269  -0.0207666610  -1.6379353960
	    H     0.0766691619   2.1487799509   0.0020654175
	    H     0.0831273703   2.1496609749   2.4584006925
	    H     0.0033976273   0.0085014808   3.7158604682
	    H    -0.0699178693  -2.1528330295   2.4898969547
	    H    -0.0436904987  -2.1874621850   0.0357957010
	    N    -0.7870872208  -0.8691886162  -2.3112525430
	    N     0.6496635898   0.9247286329  -2.3133972239
	    H     0.6152975129   0.9929140856  -3.3252065170
	    H     1.2226896396   1.6065309721  -1.8275588284
	    H    -1.0191582389  -1.7744774057  -1.9227423563
	    H    -0.8526758972  -0.7983470418  -3.3647006488
			--------------------------
			 OPTKING Finished Execution 
			--------------------------

    Structure for next step:
    Molecular point group: c1
    Full point group: C1

    Geometry (in Angstrom), charge = 1, multiplicity = 1:

    C            0.030051116993    -0.021068448601    -0.164214633573
    C            0.086811067942     1.201255552066     0.532904406069
    C            0.066801398334     1.204516259382     1.925213653276
    C            0.013316773996     0.000147283808     2.630241384346
    C           -0.035429967542    -1.216437842621     1.942285144437
    C           -0.034868493550    -1.230115962094     0.552107324950
    C            0.003558926931    -0.020766660981    -1.637935395991
    H            0.076669161903     2.148779950905     0.002065417546
    H            0.083127370268     2.149660974934     2.458400692495
    H            0.003397627302     0.008501480827     3.715860468237
    H           -0.069917869303    -2.152833029479     2.489896954738
    H           -0.043690498692    -2.187462185029     0.035795700957
    N           -0.787087220830    -0.869188616246    -2.311252543013
    N            0.649663589841     0.924728632918    -2.313397223936
    H            0.615297512892     0.992914085589    -3.325206517002
    H            1.222689639646     1.606530972130    -1.827558828421
    H           -1.019158238938    -1.774477405717    -1.922742356284
    H           -0.852675897195    -0.798347041791    -3.364700648830

gradient() will perform analytic gradient computation.

*** tstart() called on green.prib.upf.edu
*** at Sat Sep 29 20:28:39 2018

   => Loading Basis Set <=

    Name: 6-31G*
    Role: ORBITAL
    Keyword: BASIS
[...]
	            -0.0000008902       -0.0000016698       -0.0000047434
	             0.0000012295       -0.0000007681       -0.0000030963
	             0.0000049551        0.0000010606       -0.0000010372
	            -0.0000021002       -0.0000014461       -0.0000033623
	            -0.0000017503       -0.0000049334        0.0000063698
	            -0.0128889021        0.0083267828        0.0058079569
	            -0.0000396688        0.0000309943       -0.0000106336
	            -0.0000006090        0.0000020235        0.0000020748
	             0.0000115778       -0.0000103888       -0.0000051753
	             0.0075332082       -0.0041897212       -0.0042565476
	             0.0000055103        0.0000010515        0.0000021114

	---Fragment 1 Intrafragment Coordinates---
	 - Coordinate -           - BOHR/RAD -       - ANG/DEG -
	 R(1,2)           =         2.659058	       1.407113
	 R(1,6)           =         2.658348	       1.406737
	 R(1,7)           =         2.777256	       1.469660
	 R(2,3)           =         2.629981	       1.391726
	 R(2,8)           =         2.052734	       1.086260
	 R(3,4)           =         2.641191	       1.397658
	 R(3,9)           =         2.050642	       1.085153
	 R(4,5)           =         2.642078	       1.398128
	 R(4,10)          =         2.051447	       1.085579
	 R(5,6)           =         2.628571	       1.390980
	 R(5,11)          =         2.050522	       1.085089
	 R(6,12)          =         2.054544	       1.087218
	 R(7,13)          =         2.529302	       1.338449
	 R(7,14)          =         2.509048	       1.327731
	 R(13,17)         =         1.915392	       1.013582
	 R(13,18)         =         1.919793	       1.015911
	 R(14,15)         =         1.915511	       1.013645
	 R(14,16)         =         1.911817	       1.011690
	 B(1,2,3)         =         2.088580	     119.666834
	 B(1,2,8)         =         2.106795	     120.710477
	 B(1,6,5)         =         2.091956	     119.860245
	 B(1,6,12)        =         2.109415	     120.860601
	 B(1,7,13)        =         2.094199	     119.988767
	 B(1,7,14)        =         2.088104	     119.639568
	 B(2,1,6)         =         2.094328	     119.996170
	 B(2,1,7)         =         2.090966	     119.803528
	 B(2,3,4)         =         2.096963	     120.147153
	 B(2,3,9)         =         2.087753	     119.619423
	 B(3,2,8)         =         2.086070	     119.523008
	 B(3,4,5)         =         2.100266	     120.336397
	 B(3,4,10)        =         2.091577	     119.838563
	 B(4,3,9)         =         2.098425	     120.230885
	 B(4,5,6)         =         2.094179	     119.987626
	 B(4,5,11)        =         2.098839	     120.254619
	 B(5,4,10)        =         2.091340	     119.824964
	 B(5,6,12)        =         2.080721	     119.216518
	 B(6,1,7)         =         2.097865	     120.198804
	 B(6,5,11)        =         2.090140	     119.756200
	 B(7,13,17)       =         2.068454	     118.513697
	 B(7,13,18)       =         2.085395	     119.484347
	 B(7,14,15)       =         2.147310	     123.031803
	 B(7,14,16)       =         2.094927	     120.030455
	 B(13,7,14)       =         2.091404	     119.828602
	 B(15,14,16)      =         2.040865	     116.932932
	 B(17,13,18)      =         1.974089	     113.106995
	 D(1,2,3,4)       =         0.014465	       0.828768
	 D(1,2,3,9)       =        -3.117036	    -178.592992
	 D(1,6,5,4)       =         0.008564	       0.490655
	 D(1,6,5,11)      =        -3.125132	    -179.056902
	*D(1,7,13,17)     =        -0.523599	     -29.999999
	 D(1,7,13,18)     =        -3.056226	    -175.108830
	 D(1,7,14,15)     =        -3.013725	    -172.673733
	 D(1,7,14,16)     =         0.142228	       8.149081
	 D(2,1,6,5)       =        -0.000904	      -0.051804
	 D(2,1,6,12)      =        -3.091870	    -177.151111
	 D(2,1,7,13)      =        -2.386795	    -136.753278
	 D(2,1,7,14)      =         0.607064	      34.782183
	 D(2,3,4,5)       =        -0.006864	      -0.393262
	 D(2,3,4,10)      =         3.136489	     179.707586
	 D(3,2,1,6)       =        -0.010618	      -0.608361
	 D(3,2,1,7)       =         3.123221	     178.947376
	 D(3,4,5,6)       =        -0.004760	      -0.272701
	 D(3,4,5,11)      =         3.128897	     179.272577
	 D(4,3,2,8)       =         3.093162	     177.225141
	 D(4,5,6,12)      =         3.100363	     177.637739
	 D(5,4,3,9)       =         3.124575	     179.024935
	 D(5,6,1,7)       =        -3.134712	    -179.605768
	 D(6,1,2,8)       =        -3.088554	    -176.961088
	 D(6,1,7,13)      =         0.747028	      42.801547
	 D(6,1,7,14)      =        -2.542299	    -145.662992
	 D(6,5,4,10)      =         3.135073	     179.626465
	 D(7,1,2,8)       =         0.045285	       2.594649
	 D(7,1,6,12)      =         0.057507	       3.294926
	 D(8,2,3,9)       =        -0.038338	      -2.196619
	 D(9,3,4,10)      =        -0.015258	      -0.874217
	 D(10,4,5,11)     =        -0.014456	      -0.828256
	 D(11,5,6,12)     =        -0.033333	      -1.909819
	 D(13,7,14,15)    =        -0.019628	      -1.124573
	 D(13,7,14,16)    =         3.136326	     179.698242
	 D(14,7,13,17)    =         2.766009	     158.480624
	 D(14,7,13,18)    =         0.233382	      13.371793

	Current energy   :      -381.4649147312

	Energy change for the previous step:
		Projected    :         0.0000007435
		Actual       :        -0.0000002619

	Performing BFGS update.
	Previous computed or guess Hessian on step 1.
	Steps to be used in Hessian update: 7 6
	Taking RFO optimization step.
	Going to follow RFO solution 1.
	Rejecting RFO root 1 because normalization gives large value.
	Using RFO vector 2.
	Norm of target step-size    0.00127
	Projected energy change by RFO approximation:        -0.0000000036

	Back-transformation to cartesian coordinates...
	Successfully converged to displaced geometry.

	Back-transformation to cartesian coordinates to adjust frozen coordinates...
	Successfully converged to displaced geometry.

	--- Internal Coordinate Step in ANG or DEG, aJ/ANG or AJ/DEG ---
	 ---------------------------------------------------------------------------
	   Coordinate                Previous        Force       Change         New 
	   ----------                --------       ------       ------       ------
	    1 R(1,2)          =      1.407113    -0.000038    -0.000009     1.407104
	    2 R(1,6)          =      1.406737    -0.000160    -0.000031     1.406706
	    3 R(1,7)          =      1.469660     0.000279     0.000051     1.469711
	    4 R(2,3)          =      1.391726     0.000030     0.000006     1.391732
	    5 R(2,8)          =      1.086260    -0.000006    -0.000002     1.086258
	    6 R(3,4)          =      1.397658    -0.000030    -0.000005     1.397653
	    7 R(3,9)          =      1.085153     0.000010     0.000001     1.085154
	    8 R(4,5)          =      1.398128    -0.000019    -0.000002     1.398126
	    9 R(4,10)         =      1.085579    -0.000001     0.000000     1.085579
	   10 R(5,6)          =      1.390980     0.000003     0.000001     1.390980
	   11 R(5,11)         =      1.085089     0.000002     0.000000     1.085089
	   12 R(6,12)         =      1.087218    -0.000003     0.000001     1.087219
	   13 R(7,13)         =      1.338449    -0.000073    -0.000001     1.338448
	   14 R(7,14)         =      1.327731    -0.000072    -0.000008     1.327723
	   15 R(13,17)        =      1.013582     0.000045     0.000006     1.013588
	   16 R(13,18)        =      1.015911     0.000024     0.000019     1.015930
	   17 R(14,15)        =      1.013645     0.000024     0.000004     1.013649
	   18 R(14,16)        =      1.011690     0.000003     0.000000     1.011690
	   19 B(1,2,3)        =    119.666834    -0.000001    -0.004416   119.662418
	   20 B(1,2,8)        =    120.710477     0.000001     0.002422   120.712899
	   21 B(1,6,5)        =    119.860245    -0.000000    -0.002581   119.857664
	   22 B(1,6,12)       =    120.860601    -0.000000    -0.003513   120.857089
	   23 B(1,7,13)       =    119.988767    -0.000001    -0.005475   119.983292
	   24 B(1,7,14)       =    119.639568    -0.000000     0.004401   119.643968
	   25 B(2,1,6)        =    119.996170     0.000001     0.005982   120.002152
	   26 B(2,1,7)        =    119.803528    -0.000001    -0.003443   119.800085
	   27 B(2,3,4)        =    120.147153    -0.000000     0.000267   120.147420
	   28 B(2,3,9)        =    119.619423     0.000000     0.000308   119.619731
	   29 B(3,2,8)        =    119.523008     0.000000     0.002468   119.525477
	   30 B(3,4,5)        =    120.336397     0.000000     0.001633   120.338030
	   31 B(3,4,10)       =    119.838563    -0.000000    -0.000464   119.838099
	   32 B(4,3,9)        =    120.230885    -0.000000    -0.000573   120.230312
	   33 B(4,5,6)        =    119.987626    -0.000000    -0.000919   119.986708
	   34 B(4,5,11)       =    120.254619    -0.000000    -0.000817   120.253802
	   35 B(5,4,10)       =    119.824964    -0.000000    -0.001180   119.823784
	   36 B(5,6,12)       =    119.216518     0.000001     0.005639   119.222157
	   37 B(6,1,7)        =    120.198804    -0.000001    -0.002585   120.196219
	   38 B(6,5,11)       =    119.756200     0.000000     0.001763   119.757963
	   39 B(7,13,17)      =    118.513697    -0.000001    -0.000962   118.512734
	   40 B(7,13,18)      =    119.484347     0.000001     0.004072   119.488419
	   41 B(7,14,15)      =    123.031803    -0.000000     0.000291   123.032094
	   42 B(7,14,16)      =    120.030455    -0.000000    -0.001413   120.029042
	   43 B(13,7,14)      =    119.828602     0.000002     0.000885   119.829487
	   44 B(15,14,16)     =    116.932932     0.000000     0.001464   116.934396
	   45 B(17,13,18)     =    113.106995    -0.000000     0.000909   113.107904
	   46 D(1,2,3,4)      =      0.828768     0.000000    -0.000700     0.828069
	   47 D(1,2,3,9)      =   -178.592992     0.000000    -0.000958  -178.593951
	   48 D(1,6,5,4)      =      0.490655     0.000000     0.011019     0.501675
	   49 D(1,6,5,11)     =   -179.056902     0.000000     0.007056  -179.049847
	   50 *D(1,7,13,17)   =    -29.999999     0.000000    -0.000000   -29.999999
	   51 D(1,7,13,18)    =   -175.108830     0.000000    -0.007380  -175.116209
	   52 D(1,7,14,15)    =   -172.673733    -0.000000    -0.005774  -172.679507
	   53 D(1,7,14,16)    =      8.149081    -0.000000    -0.035515     8.113566
	   54 D(2,1,6,5)      =     -0.051804    -0.000000    -0.013118    -0.064922
	   55 D(2,1,6,12)     =   -177.151111    -0.000000    -0.002790  -177.153901
	   56 D(2,1,7,13)     =   -136.753278    -0.000000     0.021944  -136.731334
	   57 D(2,1,7,14)     =     34.782183     0.000000     0.020556    34.802739
	   58 D(2,3,4,5)      =     -0.393262    -0.000000    -0.001450    -0.394711
	   59 D(2,3,4,10)     =    179.707586     0.000000     0.004784   179.712370
	   60 D(3,2,1,6)      =     -0.608361     0.000000     0.007937    -0.600424
	   61 D(3,2,1,7)      =    178.947376     0.000000     0.001169   178.948545
	   62 D(3,4,5,6)      =     -0.272701    -0.000000    -0.003783    -0.276484
	   63 D(3,4,5,11)     =    179.272577     0.000000     0.000213   179.272790
	   64 D(4,3,2,8)      =    177.225141     0.000000     0.007952   177.233093
	   65 D(4,5,6,12)     =    177.637739    -0.000000     0.000599   177.638338
	   66 D(5,4,3,9)      =    179.024935    -0.000000    -0.001184   179.023751
	   67 D(5,6,1,7)      =   -179.605768    -0.000000    -0.006319  -179.612087
	   68 D(6,1,2,8)      =   -176.961088     0.000000    -0.000817  -176.961905
	   69 D(6,1,7,13)     =     42.801547    -0.000000     0.015202    42.816749
	   70 D(6,1,7,14)     =   -145.662992     0.000000     0.013813  -145.649179
	   71 D(6,5,4,10)     =    179.626465    -0.000000    -0.010015   179.616450
	   72 D(7,1,2,8)      =      2.594649    -0.000000    -0.007585     2.587064
	   73 D(7,1,6,12)     =      3.294926     0.000000     0.004009     3.298934
	   74 D(8,2,3,9)      =     -2.196619     0.000000     0.007693    -2.188927
	   75 D(9,3,4,10)     =     -0.874217     0.000000     0.005050    -0.869167
	   76 D(10,4,5,11)    =     -0.828256    -0.000000    -0.006020    -0.834276
	   77 D(11,5,6,12)    =     -1.909819    -0.000000    -0.003364    -1.913183
	   78 D(13,7,14,15)   =     -1.124573     0.000000    -0.007705    -1.132278
	   79 D(13,7,14,16)   =    179.698242    -0.000000    -0.037446   179.660795
	   80 D(14,7,13,17)   =    158.480624    -0.000000     0.001093   158.481717
	   81 D(14,7,13,18)   =     13.371793    -0.000000    -0.006287    13.365507
	 ---------------------------------------------------------------------------
	Successfully symmetrized geometry.

  ==> Convergence Check <==

  Measures of convergence in internal coordinates in au.
  Criteria marked as inactive (o), active & met (*), and active & unmet ( ).
  ---------------------------------------------------------------------------------------------
   Step     Total Energy     Delta E     MAX Force     RMS Force      MAX Disp      RMS Disp   
  ---------------------------------------------------------------------------------------------
    Convergence Criteria    1.00e-06 *    3.00e-04 *             o    1.20e-03 *             o
  ---------------------------------------------------------------------------------------------
      8    -381.46491473   -2.62e-07 *    3.39e-05 *    8.23e-06 o    6.54e-04 *    1.41e-04 o  ~
  ---------------------------------------------------------------------------------------------


  **** Optimization is complete! (in 8 steps) ****

  ==> Optimization Summary <==

  Measures of convergence in internal coordinates in au.
  --------------------------------------------------------------------------------------------------------------- ~
   Step         Total Energy             Delta E       MAX Force       RMS Force        MAX Disp        RMS Disp  ~
  --------------------------------------------------------------------------------------------------------------- ~
      1    -381.454969534710   -381.454969534710      0.01240473      0.00269471      0.32368333      0.05483568  ~
      2    -381.460556842332     -0.005587307622      0.01218861      0.00237100      0.33591793      0.05415314  ~
      3    -381.462704060693     -0.002147218361      0.03306392      0.00387287      0.16200333      0.02615855  ~
      4    -381.464555304214     -0.001851243521      0.01351479      0.00155922      0.04618379      0.01437084  ~
      5    -381.464866551994     -0.000311247780      0.00495842      0.00064732      0.01211985      0.00333581  ~
      6    -381.464910150444     -0.000043598450      0.00063904      0.00011153      0.01205618      0.00266135  ~
      7    -381.464914469362     -0.000004318918      0.00011876      0.00003248      0.00122885      0.00042174  ~
      8    -381.464914731243     -0.000000261881      0.00003386      0.00000823      0.00065356      0.00014136  ~
  --------------------------------------------------------------------------------------------------------------- ~

	Writing optimization data to binary file.
	Final energy is   -381.4649147312432
	Final (previous) structure:
	Cartesian Geometry (in Angstrom)
	    C     0.0099715340  -0.0119774736  -0.1729271692
	    C     0.0564454787   1.2082663382   0.5262241607
	    C     0.0503690548   1.2054360623   1.9179338366
	    C     0.0158310695  -0.0041874256   2.6172666720
	    C    -0.0211238170  -1.2188118713   1.9258314439
	    C    -0.0293723870  -1.2270253636   0.5349004395
	    C    -0.0071672050  -0.0116499336  -1.6424875385
	    H     0.0376245760   2.1543340250  -0.0072198806
	    H     0.0630749162   2.1475764509   2.4562338033
	    H     0.0160477008  -0.0006815841   3.7028398467
	    H    -0.0360174494  -2.1574561718   2.4700225301
	    H    -0.0191115051  -2.1789517295   0.0097588160
	    N    -0.8352818614  -0.8305777231  -2.3020549283
	    N     0.6728612756   0.9151833131  -2.3068755655
	    H     0.6119033818   1.0309080339  -3.3120461200
	    H     1.2961797993   1.5387824468  -1.8107762542
	    H    -1.0850436110  -1.7143002794  -1.8731003303
	    H    -0.7886349507  -0.8785291144  -3.3157607622
	Saving final (previous) structure.
	Removing binary optimization data file.
			--------------------------
			 OPTKING Finished Execution 
			--------------------------

    Final optimized geometry and variables:
    Molecular point group: c1
    Full point group: C1

    Geometry (in Angstrom), charge = 1, multiplicity = 1:

    C            0.009971533984    -0.011977473643    -0.172927169186
    C            0.056445478674     1.208266338164     0.526224160736
    C            0.050369054809     1.205436062269     1.917933836625
    C            0.015831069526    -0.004187425602     2.617266671983
    C           -0.021123816958    -1.218811871319     1.925831443944
    C           -0.029372386975    -1.227025363590     0.534900439451
    C           -0.007167205048    -0.011649933592    -1.642487538491
    H            0.037624576027     2.154334024952    -0.007219880557
    H            0.063074916175     2.147576450868     2.456233803340
    H            0.016047700804    -0.000681584090     3.702839846699
    H           -0.036017449411    -2.157456171771     2.470022530051
    H           -0.019111505137    -2.178951729521     0.009758815968
    N           -0.835281861426    -0.830577723137    -2.302054928338
    N            0.672861275583     0.915183313099    -2.306875565462
    H            0.611903381784     1.030908033883    -3.312046120013
    H            1.296179799347     1.538782446817    -1.810776254226
    H           -1.085043611037    -1.714300279422    -1.873100330343
    H           -0.788634950721    -0.878529114363    -3.315760762182

	Removing binary optimization data file.
	Cleaning optimization helper files.


Properties will be evaluated at   0.000000,   0.000000,   0.000000 [a0]
OEProp: No title given, name of density matrix used for the following properties is 'SCF density'
  Nuclear Dipole Moment: [e a0]
     X:    -1.1172      Y:     0.3292      Z:     0.5629

  Electronic Dipole Moment: [e a0]
     X:     1.3260      Y:    -0.3871      Z:    -2.8219

  Dipole Moment: [e a0]
     X:     0.2088      Y:    -0.0578      Z:    -2.2590     Total:     2.2694

  Dipole Moment: [D]
     X:     0.5307      Y:    -0.1470      Z:    -5.7418     Total:     5.7681

  Quadrupole Moment: [D A]
    XX:   -51.6125     YY:   -36.2536     ZZ:   -13.0528
    XY:     5.8699     XZ:    -0.5776     YZ:     0.0540

  Traceless Quadrupole Moment: [D A]
    XX:   -17.9728     YY:    -2.6140     ZZ:    20.5868
    XY:     5.8699     XZ:    -0.5776     YZ:     0.0540

  Mulliken Charges: (a.u.)
   Center  Symbol    Alpha    Beta     Spin     Total
       1     C     2.94280  2.94280  0.00000  0.11440
       2     C     3.08236  3.08236  0.00000 -0.16471
       3     C     3.06216  3.06216  0.00000 -0.12431
       4     C     3.05162  3.05162  0.00000 -0.10324
       5     C     3.06234  3.06234  0.00000 -0.12468
       6     C     3.08470  3.08470  0.00000 -0.16940
       7     C     2.74193  2.74193  0.00000  0.51614
       8     H     0.41495  0.41495  0.00000  0.17010
       9     H     0.40522  0.40522  0.00000  0.18955
      10     H     0.40376  0.40376  0.00000  0.19249
      11     H     0.40533  0.40533  0.00000  0.18934
      12     H     0.41837  0.41837  0.00000  0.16325
      13     N     3.84882  3.84882  0.00000 -0.69763
      14     N     3.86020  3.86020  0.00000 -0.72040
      15     H     0.30460  0.30460  0.00000  0.39080
      16     H     0.29871  0.29871  0.00000  0.40259
      17     H     0.30181  0.30181  0.00000  0.39639
      18     H     0.31034  0.31034  0.00000  0.37932

   Total alpha = 32.00000, Total beta = 32.00000, Total charge =  1.00000


    Psi4 stopped on: Saturday, 29 September 2018 08:31PM
    Psi4 wall time for execution: 0:03:46.25

*** Psi4 exiting successfully. Buy a developer a beer!
