
    -----------------------------------------------------------------------
          Psi4: An Open-Source Ab Initio Electronic Structure Package
                               Psi4 1.2.1 release

                         Git: Rev {HEAD} 406f4de 


    R. M. Parrish, L. A. Burns, D. G. A. Smith, A. C. Simmonett,
    A. E. DePrince III, E. G. Hohenstein, U. Bozkaya, A. Yu. Sokolov,
    R. Di Remigio, R. M. Richard, J. F. Gonthier, A. M. James,
    H. R. McAlexander, A. Kumar, M. Saitow, X. Wang, B. P. Pritchard,
    P. Verma, H. F. Schaefer III, K. Patkowski, R. A. King, E. F. Valeev,
    F. A. Evangelista, J. M. Turney, T. D. Crawford, and C. D. Sherrill,
    J. Chem. Theory Comput. 13(7) pp 3185--3197 (2017).
    (doi: 10.1021/acs.jctc.7b00174)


                         Additional Contributions by
    P. Kraus, H. Kruse, M. H. Lechner, M. C. Schieber, and R. A. Shaw

    -----------------------------------------------------------------------


    Psi4 started on: Saturday, 29 September 2018 08:31PM

    Process ID: 16696
    Host:       green.prib.upf.edu
    PSIDATADIR: /shared/joao/test_parameterize/miniconda3/share/psi4
    Memory:     500.0 MiB
    Threads:    1
    
  ==> Input File <==

--------------------------------------------------------------------------
set_num_threads(4)
set_memory('3000 MB')

set { scf_mem_safety_factor 0.7 }

set { reference rks }
set { basis 6-31G* }

molecule MOL {
    1 1
    noreorient
    nocom
    symmetry c1
    C   -0.000000  -0.000000  -0.177864
    C    0.036678   1.219374   0.524165
    C    0.031765   1.213120   1.915444
    C    0.000000   0.000000   2.610107
    C   -0.031765  -1.213120   1.915444
    C   -0.036678  -1.219375   0.524165
    C   -0.000000   0.000000  -1.644734
    H    0.018170   2.164705  -0.010854
    H    0.042402   2.152895   2.457886
    H    0.000000   0.000000   3.695756
    H   -0.042402  -2.152895   2.457886
    H   -0.018170  -2.164705  -0.010853
    N   -0.712590  -0.905950  -2.308461
    N    0.712590   0.905950  -2.308460
    H    0.673432   1.006470  -3.315997
    H    1.377190   1.485970  -1.813316
    H   -1.633024  -1.164261  -1.977763
    H   -0.405286  -1.314607  -3.183292
}

set optking { frozen_dihedral = (" 1 7 13 17 ") }

set optking { dynamic_level = 1 
 geom_maxiter = 250
 print_trajectory_xyz_file = True }

energy, wfn = optimize('B3LYP-D3', return_wfn=True)

import os
os.chdir(os.environ['HTMD_PSI4_WORKDIR'])

oeprop(wfn, 'DIPOLE', 'QUADRUPOLE', 'MULLIKEN_CHARGES')

with open('psi4out.xyz', 'w') as f:
    f.write('18 ' )
    f.write('%.12f\n' % energy)
    f.write(MOL.save_string_xyz())
--------------------------------------------------------------------------
  Threads set to 4 by Python driver.

  Memory set to   2.794 GiB by Python driver.
gradient() will perform analytic gradient computation.

*** tstart() called on green.prib.upf.edu
*** at Sat Sep 29 20:31:21 2018

   => Loading Basis Set <=

    Name: 6-31G*
    Role: ORBITAL
    Keyword: BASIS
    atoms 1-7         entry C          line   111 file /shared/joao/test_parameterize/miniconda3/share/psi4/basis/6-31gs.gbs 
    atoms 8-12, 15-18 entry H          line    44 file /shared/joao/test_parameterize/miniconda3/share/psi4/basis/6-31gs.gbs 
    atoms 13-14       entry N          line   128 file /shared/joao/test_parameterize/miniconda3/share/psi4/basis/6-31gs.gbs 


         ---------------------------------------------------------
                                   SCF
            by Justin Turney, Rob Parrish, Andy Simmonett
                             and Daniel Smith
                              RKS Reference
                        4 Threads,   2861 MiB Core
         ---------------------------------------------------------

  ==> Geometry <==

    Molecular point group: c1
    Full point group: C1

    Geometry (in Angstrom), charge = 1, multiplicity = 1:

       Center              X                  Y                   Z               Mass       
    ------------   -----------------  -----------------  -----------------  -----------------
         C            0.000000000000     0.000000000000    -0.177864000000    12.000000000000
         C            0.036678000000     1.219374000000     0.524165000000    12.000000000000
         C            0.031765000000     1.213120000000     1.915444000000    12.000000000000
         C            0.000000000000     0.000000000000     2.610107000000    12.000000000000
         C           -0.031765000000    -1.213120000000     1.915444000000    12.000000000000
         C           -0.036678000000    -1.219375000000     0.524165000000    12.000000000000
         C            0.000000000000     0.000000000000    -1.644734000000    12.000000000000
         H            0.018170000000     2.164705000000    -0.010854000000     1.007825032070
         H            0.042402000000     2.152895000000     2.457886000000     1.007825032070
         H            0.000000000000     0.000000000000     3.695756000000     1.007825032070
         H           -0.042402000000    -2.152895000000     2.457886000000     1.007825032070
         H           -0.018170000000    -2.164705000000    -0.010853000000     1.007825032070
         N           -0.712590000000    -0.905950000000    -2.308461000000    14.003074004780
         N            0.712590000000     0.905950000000    -2.308460000000    14.003074004780
         H            0.673432000000     1.006470000000    -3.315997000000     1.007825032070
         H            1.377190000000     1.485970000000    -1.813316000000     1.007825032070
         H           -1.633024000000    -1.164261000000    -1.977763000000     1.007825032070
         H           -0.405286000000    -1.314607000000    -3.183292000000     1.007825032070

  Running in c1 symmetry.

  Rotational constants: A =      0.12160  B =      0.03954  C =      0.03132 [cm^-1]
  Rotational constants: A =   3645.38316  B =   1185.45173  C =    938.88157 [MHz]
  Nuclear repulsion =  416.744628872436920

  Charge       = 1
  Multiplicity = 1
  Electrons    = 64
  Nalpha       = 32
  Nbeta        = 32

  ==> Algorithm <==

  SCF Algorithm Type is DF.
  DIIS enabled.
  MOM disabled.
  Fractional occupation disabled.
  Guess Type is SAD.
  Energy threshold   = 1.00e-08
  Density threshold  = 1.00e-08
  Integral threshold = 0.00e+00

  ==> Primary Basis <==

  Basis Set: 6-31G*
    Blend: 6-31G*
    Number of shells: 72
    Number of basis function: 153
    Number of Cartesian functions: 153
    Spherical Harmonics?: false
    Max angular momentum: 2

  ==> DFT Potential <==

   => Composite Functional: B3LYP-D3ZERO <= 

    B3LYP-d3zero Hyb-GGA Exchange-Correlation Functional

    P. J. Stephens, F. J. Devlin, C. F. Chabalowski, and M. J. Frisch, J. Phys. Chem. 98, 11623 (1994)

    Deriv               =              1
    GGA                 =           TRUE
    Meta                =          FALSE

    Exchange Hybrid     =           TRUE
    MP2 Hybrid          =          FALSE

   => Exchange Functionals <=

    0.0800   Slater exchange
    0.7200         Becke 88

   => Exact (HF) Exchange <=

    0.2000               HF 

   => Correlation Functionals <=

    0.1900   Vosko, Wilk & Nusair (VWN5_RPA)
    0.8100   Lee, Yang & Parr

   => Molecular Quadrature <=

    Radial Scheme       =       TREUTLER
    Pruning Scheme      =           FLAT
    Nuclear Scheme      =       TREUTLER

    BS radius alpha     =              1
    Pruning alpha       =              1
    Radial Points       =             75
    Spherical Points    =            302
    Total Points        =         397055
    Total Blocks        =           3022
    Max Points          =            256
    Max Functions       =            149

   => -D3ZERO: Empirical Dispersion <=

    Grimme's -D3 (zero-damping) Dispersion Correction
    Grimme S.; Antony J.; Ehrlich S.; Krieg H. (2010), J. Chem. Phys., 132: 154104

        S6 =   1.000000E+00
        S8 =   1.703000E+00
       SR6 =   1.261000E+00
       SR8 =   1.000000E+00
    ALPHA6 =   1.400000E+01

   => Loading Basis Set <=

    Name: (6-31G* AUX)
    Role: JKFIT
    Keyword: DF_BASIS_SCF
    atoms 1-7         entry C          line   121 file /shared/joao/test_parameterize/miniconda3/share/psi4/basis/cc-pvdz-jkfit.gbs 
    atoms 8-12, 15-18 entry H          line    51 file /shared/joao/test_parameterize/miniconda3/share/psi4/basis/cc-pvdz-jkfit.gbs 
    atoms 13-14       entry N          line   171 file /shared/joao/test_parameterize/miniconda3/share/psi4/basis/cc-pvdz-jkfit.gbs 

  ==> Pre-Iterations <==

   -------------------------------------------------------
    Irrep   Nso     Nmo     Nalpha   Nbeta   Ndocc  Nsocc
   -------------------------------------------------------
     A        153     153       0       0       0       0
   -------------------------------------------------------
    Total     153     153      32      32      32       0
   -------------------------------------------------------

  ==> Integral Setup <==

  ==> DiskDFJK: Density-Fitted J/K Matrices <==

    J tasked:                  Yes
    K tasked:                  Yes
    wK tasked:                  No
    OpenMP threads:              4
    Integrals threads:           4
    Memory (MB):              2002
    Algorithm:                Core
    Integral Cache:           NONE
    Schwarz Cutoff:          1E-12
    Fitting Condition:       1E-12

   => Auxiliary Basis Set <=

  Basis Set: (6-31G* AUX)
    Blend: CC-PVDZ-JKFIT
    Number of shells: 297
    Number of basis function: 954
    Number of Cartesian functions: 954
    Spherical Harmonics?: false
    Max angular momentum: 3

  Minimum eigenvalue in the overlap matrix is 4.8721628147E-04.
  Using Symmetric Orthogonalization.

  SCF Guess: Superposition of Atomic Densities via on-the-fly atomic UHF.

  ==> Iterations <==

                           Total Energy        Delta E     RMS |[F,P]|

   @DF-RKS iter   0:  -379.61586862983506   -3.79616e+02   6.82045e-02 
   @DF-RKS iter   1:  -381.02911478319430   -1.41325e+00   1.19983e-02 
   @DF-RKS iter   2:  -380.91992204735993    1.09193e-01   1.34488e-02 DIIS
   @DF-RKS iter   3:  -381.45015100405857   -5.30229e-01   2.03959e-03 DIIS
   @DF-RKS iter   4:  -381.45967504382639   -9.52404e-03   8.63050e-04 DIIS
   @DF-RKS iter   5:  -381.46146616232636   -1.79112e-03   2.77866e-04 DIIS
   @DF-RKS iter   6:  -381.46165487607146   -1.88714e-04   9.13843e-05 DIIS
   @DF-RKS iter   7:  -381.46167766278705   -2.27867e-05   2.18364e-05 DIIS
   @DF-RKS iter   8:  -381.46167903605135   -1.37326e-06   6.79596e-06 DIIS
   @DF-RKS iter   9:  -381.46167917939306   -1.43342e-07   2.51448e-06 DIIS
   @DF-RKS iter  10:  -381.46167919803145   -1.86384e-08   6.26335e-07 DIIS
   @DF-RKS iter  11:  -381.46167919907629   -1.04484e-09   1.71401e-07 DIIS
   @DF-RKS iter  12:  -381.46167919914433   -6.80416e-11   9.14215e-08 DIIS
   @DF-RKS iter  13:  -381.46167919917315   -2.88196e-11   1.54871e-08 DIIS
   @DF-RKS iter  14:  -381.46167919917480   -1.64846e-12   3.49681e-09 DIIS

  ==> Post-Iterations <==

    Orbital Energies [Eh]
    ---------------------

    Doubly Occupied:                                                      

       1A    -14.571460     2A    -14.556320     3A    -10.494855  
       4A    -10.370980     5A    -10.356059     6A    -10.355092  
       7A    -10.344459     8A    -10.340404     9A    -10.339750  
      10A     -1.180573    11A     -1.088444    12A     -1.013588  
      13A     -0.925179    14A     -0.901560    15A     -0.843037  
      16A     -0.781005    17A     -0.769652    18A     -0.741485  
      19A     -0.730006    20A     -0.698052    21A     -0.669696  
      22A     -0.625864    23A     -0.609137    24A     -0.581673  
      25A     -0.577865    26A     -0.563288    27A     -0.518479  
      28A     -0.504977    29A     -0.497256    30A     -0.469042  
      31A     -0.413257    32A     -0.405229  

    Virtual:                                                              

      33A     -0.228210    34A     -0.155532    35A     -0.132270  
      36A     -0.101839    37A     -0.069696    38A     -0.052751  
      39A     -0.037466    40A     -0.023330    41A      0.007714  
      42A      0.013133    43A      0.022214    44A      0.054219  
      45A      0.061949    46A      0.088762    47A      0.133247  
      48A      0.143125    49A      0.155086    50A      0.158586  
      51A      0.204789    52A      0.242786    53A      0.298780  
      54A      0.353138    55A      0.356982    56A      0.382891  
      57A      0.391543    58A      0.397723    59A      0.419806  
      60A      0.422869    61A      0.443235    62A      0.449214  
      63A      0.453104    64A      0.471304    65A      0.474582  
      66A      0.480552    67A      0.486309    68A      0.515375  
      69A      0.522300    70A      0.538875    71A      0.548640  
      72A      0.590808    73A      0.609830    74A      0.649826  
      75A      0.668063    76A      0.686140    77A      0.690928  
      78A      0.703196    79A      0.710815    80A      0.722151  
      81A      0.727514    82A      0.747492    83A      0.773867  
      84A      0.786630    85A      0.807984    86A      0.821023  
      87A      0.855227    88A      0.933688    89A      0.950154  
      90A      0.978141    91A      1.003983    92A      1.021923  
      93A      1.062127    94A      1.080039    95A      1.113477  
      96A      1.145059    97A      1.234673    98A      1.276124  
      99A      1.281181   100A      1.310011   101A      1.320914  
     102A      1.343019   103A      1.361780   104A      1.389283  
     105A      1.434759   106A      1.457162   107A      1.524857  
     108A      1.618106   109A      1.631536   110A      1.661074  
     111A      1.673102   112A      1.736431   113A      1.750760  
     114A      1.796530   115A      1.817093   116A      1.830577  
     117A      1.890413   118A      1.910323   119A      1.963184  
     120A      1.974932   121A      1.989992   122A      2.000581  
     123A      2.027365   124A      2.042831   125A      2.126518  
     126A      2.132450   127A      2.154987   128A      2.198158  
     129A      2.239103   130A      2.332596   131A      2.364414  
     132A      2.371345   133A      2.443888   134A      2.452055  
     135A      2.488690   136A      2.513280   137A      2.553451  
     138A      2.587189   139A      2.601079   140A      2.631311  
     141A      2.736313   142A      2.857326   143A      2.981450  
     144A      3.258766   145A      3.632454   146A      3.665523  
     147A      3.912561   148A      3.946897   149A      3.964339  
     150A      4.047182   151A      4.174630   152A      4.255106  
     153A      4.546627  

    Final Occupation by Irrep:
              A 
    DOCC [    32 ]

  Energy converged.

  @DF-RKS Final Energy:  -381.46167919917480

   => Energetics <=

    Nuclear Repulsion Energy =            416.7446288724369197
    One-Electron Energy =               -1328.7887265184524495
    Two-Electron Energy =                 575.0010651272549467
    DFT Exchange-Correlation Energy =     -44.4067048204142338
    Empirical Dispersion Energy =          -0.0119418600000000
    VV10 Nonlocal Energy =                  0.0000000000000000
    Total Energy =                       -381.4616791991747959



Properties will be evaluated at   0.000000,   0.000000,   0.000000 [a0]

Properties computed using the SCF density matrix

  Nuclear Dipole Moment: [e a0]
     X:     0.0233      Y:     0.0256      Z:    -0.0352

  Electronic Dipole Moment: [e a0]
     X:     0.0320      Y:     0.0087      Z:    -2.1677

  Dipole Moment: [e a0]
     X:     0.0552      Y:     0.0343      Z:    -2.2030     Total:     2.2039

  Dipole Moment: [D]
     X:     0.1404      Y:     0.0872      Z:    -5.5994     Total:     5.6018


*** tstop() called on green.prib.upf.edu at Sat Sep 29 20:31:49 2018
Module time:
	user time   =     103.47 seconds =       1.72 minutes
	system time =       0.44 seconds =       0.01 minutes
	total time  =         28 seconds =       0.47 minutes
Total time:
	user time   =     103.47 seconds =       1.72 minutes
	system time =       0.44 seconds =       0.01 minutes
	total time  =         28 seconds =       0.47 minutes

*** tstart() called on green.prib.upf.edu
*** at Sat Sep 29 20:31:49 2018


         ------------------------------------------------------------
                                   SCF GRAD                          
                          Rob Parrish, Justin Turney,                
                       Andy Simmonett, and Alex Sokolov              
         ------------------------------------------------------------

  ==> Geometry <==

    Molecular point group: c1
    Full point group: C1

    Geometry (in Angstrom), charge = 1, multiplicity = 1:

       Center              X                  Y                   Z               Mass       
    ------------   -----------------  -----------------  -----------------  -----------------
         C            0.000000000000     0.000000000000    -0.177864000000    12.000000000000
         C            0.036678000000     1.219374000000     0.524165000000    12.000000000000
         C            0.031765000000     1.213120000000     1.915444000000    12.000000000000
         C            0.000000000000     0.000000000000     2.610107000000    12.000000000000
         C           -0.031765000000    -1.213120000000     1.915444000000    12.000000000000
         C           -0.036678000000    -1.219375000000     0.524165000000    12.000000000000
         C            0.000000000000     0.000000000000    -1.644734000000    12.000000000000
         H            0.018170000000     2.164705000000    -0.010854000000     1.007825032070
         H            0.042402000000     2.152895000000     2.457886000000     1.007825032070
         H            0.000000000000     0.000000000000     3.695756000000     1.007825032070
         H           -0.042402000000    -2.152895000000     2.457886000000     1.007825032070
         H           -0.018170000000    -2.164705000000    -0.010853000000     1.007825032070
         N           -0.712590000000    -0.905950000000    -2.308461000000    14.003074004780
         N            0.712590000000     0.905950000000    -2.308460000000    14.003074004780
         H            0.673432000000     1.006470000000    -3.315997000000     1.007825032070
         H            1.377190000000     1.485970000000    -1.813316000000     1.007825032070
         H           -1.633024000000    -1.164261000000    -1.977763000000     1.007825032070
         H           -0.405286000000    -1.314607000000    -3.183292000000     1.007825032070

  Nuclear repulsion =  416.744628872436920

  ==> Basis Set <==

  Basis Set: 6-31G*
    Blend: 6-31G*
    Number of shells: 72
    Number of basis function: 153
    Number of Cartesian functions: 153
    Spherical Harmonics?: false
    Max angular momentum: 2

  ==> DFJKGrad: Density-Fitted SCF Gradients <==

    Gradient:                    1
    J tasked:                  Yes
    K tasked:                  Yes
    wK tasked:                  No
    OpenMP threads:              4
    Integrals threads:           4
    Memory (MB):              2002
    Schwarz Cutoff:          0E+00
    Fitting Condition:       1E-12

   => Auxiliary Basis Set <=

  Basis Set: (6-31G* AUX)
    Blend: CC-PVDZ-JKFIT
    Number of shells: 297
    Number of basis function: 954
    Number of Cartesian functions: 954
    Spherical Harmonics?: false
    Max angular momentum: 3

  ==> DFT Potential <==

   => Composite Functional: B3LYP-D3ZERO <= 

    B3LYP-d3zero Hyb-GGA Exchange-Correlation Functional

    P. J. Stephens, F. J. Devlin, C. F. Chabalowski, and M. J. Frisch, J. Phys. Chem. 98, 11623 (1994)

    Deriv               =              1
    GGA                 =           TRUE
    Meta                =          FALSE

    Exchange Hybrid     =           TRUE
    MP2 Hybrid          =          FALSE

   => Exchange Functionals <=

    0.0800   Slater exchange
    0.7200         Becke 88

   => Exact (HF) Exchange <=

    0.2000               HF 

   => Correlation Functionals <=

    0.1900   Vosko, Wilk & Nusair (VWN5_RPA)
    0.8100   Lee, Yang & Parr

   => Molecular Quadrature <=

    Radial Scheme       =       TREUTLER
    Pruning Scheme      =           FLAT
    Nuclear Scheme      =       TREUTLER

    BS radius alpha     =              1
    Pruning alpha       =              1
    Radial Points       =             75
    Spherical Points    =            302
    Total Points        =         397055
    Total Blocks        =           3022
    Max Points          =            256
    Max Functions       =            149


  -Total Gradient:
     Atom            X                  Y                   Z
    ------   -----------------  -----------------  -----------------
       1        0.004986185023    -0.006011848609     0.004675242626
       2       -0.000095617091    -0.000910887409    -0.003320607981
       3       -0.000550349694    -0.001672433137     0.001122375618
       4        0.000112621014     0.000524280573    -0.000068658641
       5       -0.000566545509    -0.000104165033     0.000414030441
       6        0.000518808609     0.002560626600     0.000070208083
       7       -0.004969369530    -0.009987337452    -0.010237838802
       8        0.000288630819    -0.000096084815     0.000071846778
       9        0.000025358725     0.000025986356    -0.000150292020
      10        0.000117645592    -0.000058983241    -0.000071563851
      11       -0.000056995387     0.000007453888     0.000018845910
      12        0.001206658154    -0.001119519209     0.000870283877
      13        0.004095374213     0.009930875366     0.008507813730
      14       -0.004197748600     0.005115610296    -0.001519842848
      15        0.001855833786     0.000592007403     0.000556685676
      16       -0.002544887229     0.000693711541    -0.000074312899
      17       -0.004024572439     0.008001621391    -0.005874486897
      18        0.003784296493    -0.007495748802     0.005004713566


*** tstop() called on green.prib.upf.edu at Sat Sep 29 20:31:56 2018
Module time:
	user time   =      25.99 seconds =       0.43 minutes
	system time =       0.21 seconds =       0.00 minutes
	total time  =          7 seconds =       0.12 minutes
Total time:
	user time   =     129.51 seconds =       2.16 minutes
	system time =       0.66 seconds =       0.01 minutes
	total time  =         35 seconds =       0.58 minutes

			-----------------------------------------
			 OPTKING 2.0: for geometry optimizations 
			  - R.A. King,  Bethel University        
			-----------------------------------------
	At level 1: Red. Int., RFO, no backsteps, dynamic trust

	Internal coordinates to be generated automatically.
	Detected frag 1 with atoms:  1 2 3 4 5 6 7 8 9 10 11 12 13 14 15 16 17 18
	---Fragment 1 Bond Connectivity---
	 1 : 2 6 7
	 2 : 1 3 8
	 3 : 2 4 9
	 4 : 3 5 10
	 5 : 4 6 11
	 6 : 1 5 12
	 7 : 1 13 14
	 8 : 2
	 9 : 3
	 10 : 4
	 11 : 5
	 12 : 6
	 13 : 7 17 18
	 14 : 7 15 16
	 15 : 14
	 16 : 14
	 17 : 13
	 18 : 13

	Assuming in current code that numbering for constraints corresponds to unified fragment.
	Frozen dihedral atom list: 
	     1     7    13    17
	---Fragment 1 Geometry and Gradient---
	 C           0.0000000000        0.0000000000       -0.3361142489
	 C           0.0693113751        2.3042829136        0.9905282984
	 C           0.0600271506        2.2924645663        3.6196645829
	 C           0.0000000000        0.0000000000        4.9323874075
	 C          -0.0600271506       -2.2924645663        3.6196645829
	 C          -0.0693113751       -2.3042848033        0.9905282984
	 C           0.0000000000        0.0000000000       -3.1080968214
	 H           0.0343363238        4.0906996085       -0.0205110874
	 H           0.0801281675        4.0683819429        4.6447314059
	 H           0.0000000000        0.0000000000        6.9839666940
	 H          -0.0801281675       -4.0683819429        4.6447314059
	 H          -0.0343363238       -4.0906996085       -0.0205091977
	 N          -1.3465999450       -1.7119973901       -4.3623590784
	 N           1.3465999450        1.7119973901       -4.3623571887
	 H           1.2726020491        1.9019526610       -6.2663261875
	 H           2.6025119329        2.8080763417       -3.4266706324
	 H          -3.0859681284       -2.2001344372       -3.7374304258
	 H          -0.7658795455       -2.4842472024       -6.0155500810
	             0.0049861850       -0.0060118486        0.0046752426
	            -0.0000956171       -0.0009108874       -0.0033206080
	            -0.0005503497       -0.0016724331        0.0011223756
	             0.0001126210        0.0005242806       -0.0000686586
	            -0.0005665455       -0.0001041650        0.0004140304
	             0.0005188086        0.0025606266        0.0000702081
	            -0.0049693695       -0.0099873375       -0.0102378388
	             0.0002886308       -0.0000960848        0.0000718468
	             0.0000253587        0.0000259864       -0.0001502920
	             0.0001176456       -0.0000589832       -0.0000715639
	            -0.0000569954        0.0000074539        0.0000188459
	             0.0012066582       -0.0011195192        0.0008702839
	             0.0040953742        0.0099308754        0.0085078137
	            -0.0041977486        0.0051156103       -0.0015198428
	             0.0018558338        0.0005920074        0.0005566857
	            -0.0025448872        0.0006937115       -0.0000743129
	            -0.0040245724        0.0080016214       -0.0058744869
	             0.0037842965       -0.0074957488        0.0050047136

	Previous optimization step data not found.  Starting new optimization.

	---Fragment 1 Intrafragment Coordinates---
	 - Coordinate -           - BOHR/RAD -       - ANG/DEG -
	 R(1,2)           =         2.659794	       1.407502
	 R(1,6)           =         2.659796	       1.407503
	 R(1,7)           =         2.771983	       1.466870
	 R(2,3)           =         2.629179	       1.391302
	 R(2,8)           =         2.052976	       1.086388
	 R(3,4)           =         2.642393	       1.398294
	 R(3,9)           =         2.050622	       1.085142
	 R(4,5)           =         2.642393	       1.398294
	 R(4,10)          =         2.051579	       1.085649
	 R(5,6)           =         2.629179	       1.391302
	 R(5,11)          =         2.050622	       1.085142
	 R(6,12)          =         2.052973	       1.086386
	 R(7,13)          =         2.513452	       1.330061
	 R(7,14)          =         2.513451	       1.330061
	 R(13,17)         =         1.911600	       1.011575
	 R(13,18)         =         1.914849	       1.013294
	 R(14,15)         =         1.914852	       1.013296
	 R(14,16)         =         1.911600	       1.011575
	 B(1,2,3)         =         2.088380	     119.655376
	 B(1,2,8)         =         2.103396	     120.515689
	 B(1,6,5)         =         2.088379	     119.655315
	 B(1,6,12)        =         2.103396	     120.515729
	 B(1,7,13)        =         2.093264	     119.935172
	 B(1,7,14)        =         2.093263	     119.935135
	 B(2,1,6)         =         2.097220	     120.161857
	 B(2,1,7)         =         2.092983	     119.919082
	 B(2,3,4)         =         2.095279	     120.050636
	 B(2,3,9)         =         2.089719	     119.732108
	 B(3,2,8)         =         2.090149	     119.756722
	 B(3,4,5)         =         2.101793	     120.423859
	 B(3,4,10)        =         2.090696	     119.788070
	 B(4,3,9)         =         2.098135	     120.214297
	 B(4,5,6)         =         2.095280	     120.050677
	 B(4,5,11)        =         2.098135	     120.214297
	 B(5,4,10)        =         2.090696	     119.788070
	 B(5,6,12)        =         2.090149	     119.756743
	 B(6,1,7)         =         2.092982	     119.919061
	 B(6,5,11)        =         2.089719	     119.732067
	 B(7,13,17)       =         2.092411	     119.886334
	 B(7,13,18)       =         2.144859	     122.891392
	 B(7,14,15)       =         2.144860	     122.891405
	 B(7,14,16)       =         2.092412	     119.886393
	 B(13,7,14)       =         2.096659	     120.129694
	 B(15,14,16)      =         2.043399	     117.078146
	 B(17,13,18)      =         2.043400	     117.078217
	 D(1,2,3,4)       =         0.007799	       0.446825
	 D(1,2,3,9)       =        -3.122896	    -178.928735
	 D(1,6,5,4)       =         0.007799	       0.446822
	 D(1,6,5,11)      =        -3.122896	    -178.928737
	*D(1,7,13,17)     =         0.698131	      39.999961
	 D(1,7,13,18)     =        -2.521878	    -144.492939
	 D(1,7,14,15)     =        -3.032165	    -173.730230
	 D(1,7,14,16)     =         0.187844	      10.762681
	 D(2,1,6,5)       =        -0.003906	      -0.223802
	 D(2,1,6,12)      =        -3.091437	    -177.126283
	 D(2,1,7,13)      =        -2.505167	    -143.535494
	 D(2,1,7,14)      =         0.636426	      36.464506
	 D(2,3,4,5)       =        -0.003942	      -0.225875
	 D(2,3,4,10)      =         3.137650	     179.774125
	 D(3,2,1,6)       =        -0.003906	      -0.223806
	 D(3,2,1,7)       =         3.137687	     179.776196
	 D(3,4,5,6)       =        -0.003942	      -0.225874
	 D(3,4,5,11)      =         3.126699	     179.146646
	 D(4,3,2,8)       =         3.095744	     177.373058
	 D(4,5,6,12)      =         3.095744	     177.373055
	 D(5,4,3,9)       =         3.126699	     179.146646
	 D(5,6,1,7)       =         3.137687	     179.776197
	 D(6,1,2,8)       =        -3.091437	    -177.126287
	 D(6,1,7,13)      =         0.636426	      36.464508
	 D(6,1,7,14)      =        -2.505167	    -143.535492
	 D(6,5,4,10)      =         3.137650	     179.774126
	 D(7,1,2,8)       =         0.050156	       2.873714
	 D(7,1,6,12)      =         0.050156	       2.873716
	 D(8,2,3,9)       =        -0.034950	      -2.002503
	 D(9,3,4,10)      =        -0.014894	      -0.853354
	 D(10,4,5,11)     =        -0.014894	      -0.853354
	 D(11,5,6,12)     =        -0.034950	      -2.002504
	 D(13,7,14,15)    =         0.109428	       6.269770
	 D(13,7,14,16)    =        -2.953748	    -169.237319
	 D(14,7,13,17)    =        -2.443462	    -140.000039
	 D(14,7,13,18)    =         0.619715	      35.507061

	Current energy   :      -381.4616791992

	Generating empirical Hessian (Schlegel '84) for each fragment.
	Taking RFO optimization step.
	Going to follow RFO solution 1.
	Using RFO vector 1.

	Determining step-restricting scale parameter for RS-RFO.
	Maximum step size allowed    0.50000

	 Iter      |step|        alpha        rfo_root  
	------------------------------------------------
	    0     0.50589       1.00000           1
	    1     0.50012       1.05219           1
	    2     0.50000       1.05328           1
	------------------------------------------------
	Norm of target step-size    0.50000
	Projected energy change by RFO approximation:        -0.0053199196

	Back-transformation to cartesian coordinates...
	Could not converge backtransformation.
	Using first guess instead.

	Back-transformation to cartesian coordinates to adjust frozen coordinates...
	Successfully converged to displaced geometry.

	--- Internal Coordinate Step in ANG or DEG, aJ/ANG or AJ/DEG ---
	 ---------------------------------------------------------------------------
	   Coordinate                Previous        Force       Change         New 
	   ----------                --------       ------       ------       ------
	    1 R(1,2)          =      1.407502     0.019459     0.003124     1.410626
	    2 R(1,6)          =      1.407503    -0.000405     0.000165     1.407669
	    3 R(1,7)          =      1.466870    -0.029949    -0.005179     1.461691
	    4 R(2,3)          =      1.391302    -0.008413    -0.000765     1.390537
	    5 R(2,8)          =      1.086388     0.001022     0.000246     1.086634
	    6 R(3,4)          =      1.398294     0.008546     0.001284     1.399578
	    7 R(3,9)          =      1.085142     0.000430     0.000435     1.085577
	    8 R(4,5)          =      1.398294     0.006115     0.001393     1.399687
	    9 R(4,10)         =      1.085649     0.000587     0.000313     1.085962
	   10 R(5,6)          =      1.391302    -0.002009     0.000071     1.391373
	   11 R(5,11)         =      1.085142    -0.000030     0.000123     1.085265
	   12 R(6,12)         =      1.086386    -0.004663     0.000345     1.086731
	   13 R(7,13)         =      1.330061     0.107021     0.017854     1.347916
	   14 R(7,14)         =      1.330061    -0.018645    -0.001695     1.328366
	   15 R(13,17)        =      1.011575     0.002504     0.006397     1.017972
	   16 R(13,18)        =      1.013294     0.001232     0.018635     1.031930
	   17 R(14,15)        =      1.013296     0.004674     0.001599     1.014895
	   18 R(14,16)        =      1.011575     0.010781     0.001809     1.013384
	   19 B(1,2,3)        =    119.655376     0.000004     0.041267   119.696643
	   20 B(1,2,8)        =    120.515689    -0.000004    -0.015852   120.499838
	   21 B(1,6,5)        =    119.655315    -0.000037    -0.150006   119.505308
	   22 B(1,6,12)       =    120.515729    -0.000081    -0.371701   120.144029
	   23 B(1,7,13)       =    119.935172     0.000108     0.145081   120.080252
	   24 B(1,7,14)       =    119.935135     0.000107     0.314009   120.249143
	   25 B(2,1,6)        =    120.161857     0.000027     0.095544   120.257400
	   26 B(2,1,7)        =    119.919082     0.000266     0.773519   120.692601
	   27 B(2,3,4)        =    120.050636    -0.000048    -0.170291   119.880345
	   28 B(2,3,9)        =    119.732108     0.000035     0.142471   119.874578
	   29 B(3,2,8)        =    119.756722     0.000000    -0.009215   119.747507
	   30 B(3,4,5)        =    120.423859     0.000042     0.129390   120.553249
	   31 B(3,4,10)       =    119.788070    -0.000026    -0.096905   119.691166
	   32 B(4,3,9)        =    120.214297     0.000013     0.025858   120.240155
	   33 B(4,5,6)        =    120.050677     0.000012     0.046117   120.096794
	   34 B(4,5,11)       =    120.214297    -0.000004     0.002346   120.216642
	   35 B(5,4,10)       =    119.788070    -0.000017    -0.033337   119.754733
	   36 B(5,6,12)       =    119.756743     0.000119     0.544959   120.301702
	   37 B(6,1,7)        =    119.919061    -0.000293    -0.869064   119.049998
	   38 B(6,5,11)       =    119.732067    -0.000007    -0.045942   119.686124
	   39 B(7,13,17)      =    119.886334     0.000052     0.282448   120.168782
	   40 B(7,13,18)      =    122.891392    -0.000098    -2.287612   120.603780
	   41 B(7,14,15)      =    122.891405    -0.000179    -0.827442   122.063963
	   42 B(7,14,16)      =    119.886393     0.000103     0.430810   120.317202
	   43 B(13,7,14)      =    120.129694    -0.000216    -0.902584   119.227110
	   44 B(15,14,16)     =    117.078146     0.000070     0.203073   117.281219
	   45 B(17,13,18)     =    117.078217     0.000016     0.355521   117.433739
	   46 D(1,2,3,4)      =      0.446825    -0.000003    -0.424599     0.022226
	   47 D(1,2,3,9)      =   -178.928735    -0.000002    -0.244026  -179.172761
	   48 D(1,6,5,4)      =      0.446822     0.000004     0.492637     0.939459
	   49 D(1,6,5,11)     =   -178.928737     0.000001     0.108778  -178.819959
	   50 *D(1,7,13,17)   =     39.999961     0.000000     0.000000    39.999961
	   51 D(1,7,13,18)    =   -144.492939    -0.000107   -11.148133  -155.641072
	   52 D(1,7,14,15)    =   -173.730230    -0.000017    -2.406313  -176.136543
	   53 D(1,7,14,16)    =     10.762681     0.000004    -0.044589    10.718092
	   54 D(2,1,6,5)      =     -0.223802    -0.000008    -1.016736    -1.240538
	   55 D(2,1,6,12)     =   -177.126283    -0.000013    -1.577403  -178.703686
	   56 D(2,1,7,13)     =   -143.535494    -0.000049    -7.630392  -151.165886
	   57 D(2,1,7,14)     =     36.464506     0.000010     0.069733    36.534239
	   58 D(2,3,4,5)      =     -0.225875    -0.000001    -0.097370    -0.323246
	   59 D(2,3,4,10)     =    179.774125     0.000002     0.239314   180.013439
	   60 D(3,2,1,6)      =     -0.223806     0.000007     0.983824     0.760018
	   61 D(3,2,1,7)      =    179.776196     0.000007     0.996729   180.772924
	   62 D(3,4,5,6)      =     -0.225874     0.000000     0.062427    -0.163447
	   63 D(3,4,5,11)     =    179.146646     0.000003     0.448038   179.594684
	   64 D(4,3,2,8)      =    177.373058    -0.000001    -0.058638   177.314419
	   65 D(4,5,6,12)     =    177.373055     0.000007     1.025478   178.398534
	   66 D(5,4,3,9)      =    179.146646    -0.000002    -0.277883   178.868763
	   67 D(5,6,1,7)      =    179.776197    -0.000008    -1.029430   178.746767
	   68 D(6,1,2,8)      =   -177.126287     0.000005     0.614837  -176.511450
	   69 D(6,1,7,13)     =     36.464508    -0.000050    -7.617641    28.846866
	   70 D(6,1,7,14)     =   -143.535492     0.000010     0.082484  -143.453009
	   71 D(6,5,4,10)     =    179.774126    -0.000002    -0.274470   179.499655
	   72 D(7,1,2,8)      =      2.873714     0.000004     0.627742     3.501456
	   73 D(7,1,6,12)     =      2.873716    -0.000013    -1.590097     1.283619
	   74 D(8,2,3,9)      =     -2.002503     0.000001     0.121935    -1.880568
	   75 D(9,3,4,10)     =     -0.853354     0.000000     0.058802    -0.794552
	   76 D(10,4,5,11)    =     -0.853354     0.000001     0.111140    -0.742214
	   77 D(11,5,6,12)    =     -2.002504     0.000005     0.641619    -1.360885
	   78 D(13,7,14,15)   =      6.269770     0.000043     5.228421    11.498192
	   79 D(13,7,14,16)   =   -169.237319     0.000063     7.590145  -161.647174
	   80 D(14,7,13,17)   =   -140.000039    -0.000060    -7.621588  -147.621627
	   81 D(14,7,13,18)   =     35.507061    -0.000167   -18.769721    16.737340
	 ---------------------------------------------------------------------------
	Successfully symmetrized geometry.

  ==> Convergence Check <==

  Measures of convergence in internal coordinates in au.
  Criteria marked as inactive (o), active & met (*), and active & unmet ( ).
  --------------------------------------------------------------------------------------------- ~
   Step     Total Energy     Delta E     MAX Force     RMS Force      MAX Disp      RMS Disp    ~
  --------------------------------------------------------------------------------------------- ~
    Convergence Criteria    1.00e-06 *    3.00e-04 *             o    1.20e-03 *             o  ~
  --------------------------------------------------------------------------------------------- ~
      1    -381.46167920   -3.81e+02      1.30e-02      2.31e-03 o    3.28e-01      5.39e-02 o  ~
  ---------------------------------------------------------------------------------------------

	Writing optimization data to binary file.
	Structure for next step:
	Cartesian Geometry (in Angstrom)
	    C    -0.0290966940   0.0288463019  -0.1701487002
	    C     0.0348899878   1.2433650523   0.5444949357
	    C     0.0578775095   1.2242434773   1.9347100889
	    C     0.0179464928   0.0023215044   2.6159808754
	    C    -0.0518862625  -1.2041120378   1.9097486069
	    C    -0.0856968319  -1.1973971582   0.5188029004
	    C    -0.0374070348   0.0227821293  -1.6318034374
	    H     0.0217787584   2.1941174671   0.0184994263
	    H     0.0935162304   2.1576690738   2.4878137011
	    H     0.0358298593  -0.0090202927   3.7017359639
	    H    -0.0759612870  -2.1487928307   2.4434139687
	    H    -0.1137069976  -2.1328895194  -0.0335146449
	    N    -0.6535213990  -0.9727522222  -2.2997792118
	    N     0.6865786372   0.9071445610  -2.3087842270
	    H     0.6570276524   0.9653090881  -3.3215800277
	    H     1.3700072649   1.4823516235  -1.8302355926
	    H    -1.5429096166  -1.3388010486  -1.9662172917
	    H    -0.3729542691  -1.2108141692  -3.2638783341
			--------------------------
			 OPTKING Finished Execution 
			--------------------------

    Structure for next step:
    Molecular point group: c1
    Full point group: C1

    Geometry (in Angstrom), charge = 1, multiplicity = 1:

    C           -0.029096694030     0.028846301932    -0.170148700167
    C            0.034889987798     1.243365052316     0.544494935689
    C            0.057877509454     1.224243477322     1.934710088904
    C            0.017946492790     0.002321504442     2.615980875367
    C           -0.051886262476    -1.204112037774     1.909748606938
    C           -0.085696831892    -1.197397158172     0.518802900403
    C           -0.037407034784     0.022782129272    -1.631803437432
    H            0.021778758447     2.194117467101     0.018499426349
    H            0.093516230358     2.157669073763     2.487813701063
    H            0.035829859267    -0.009020292697     3.701735963920
    H           -0.075961287038    -2.148792830660     2.443413968710
    H           -0.113706997630    -2.132889519387    -0.033514644900
    N           -0.653521399026    -0.972752222168    -2.299779211761
    N            0.686578637152     0.907144561012    -2.308784227016
    H            0.657027652414     0.965309088061    -3.321580027651
    H            1.370007264869     1.482351623478    -1.830235592581
    H           -1.542909616612    -1.338801048622    -1.966217291714
    H           -0.372954269060    -1.210814169217    -3.263878334122

gradient() will perform analytic gradient computation.

*** tstart() called on green.prib.upf.edu
*** at Sat Sep 29 20:31:56 2018

   => Loading Basis Set <=

    Name: 6-31G*
    Role: ORBITAL
    Keyword: BASIS
    atoms 1-7         entry C          line   111 file /shared/joao/test_parameterize/miniconda3/share/psi4/basis/6-31gs.gbs 
    atoms 8-12, 15-18 entry H          line    44 file /shared/joao/test_parameterize/miniconda3/share/psi4/basis/6-31gs.gbs 
    atoms 13-14       entry N          line   128 file /shared/joao/test_parameterize/miniconda3/share/psi4/basis/6-31gs.gbs 


         ---------------------------------------------------------
                                   SCF
            by Justin Turney, Rob Parrish, Andy Simmonett
                             and Daniel Smith
                              RKS Reference
                        4 Threads,   2861 MiB Core
         ---------------------------------------------------------

  ==> Geometry <==

    Molecular point group: c1
    Full point group: C1

    Geometry (in Angstrom), charge = 1, multiplicity = 1:

       Center              X                  Y                   Z               Mass       
    ------------   -----------------  -----------------  -----------------  -----------------
         C           -0.029096694030     0.028846301932    -0.170148700167    12.000000000000
         C            0.034889987798     1.243365052316     0.544494935689    12.000000000000
         C            0.057877509454     1.224243477322     1.934710088904    12.000000000000
         C            0.017946492790     0.002321504442     2.615980875367    12.000000000000
         C           -0.051886262476    -1.204112037774     1.909748606938    12.000000000000
         C           -0.085696831892    -1.197397158172     0.518802900403    12.000000000000
         C           -0.037407034784     0.022782129272    -1.631803437432    12.000000000000
         H            0.021778758447     2.194117467101     0.018499426349     1.007825032070
         H            0.093516230358     2.157669073763     2.487813701063     1.007825032070
         H            0.035829859267    -0.009020292697     3.701735963920     1.007825032070
         H           -0.075961287038    -2.148792830660     2.443413968710     1.007825032070
         H           -0.113706997630    -2.132889519387    -0.033514644900     1.007825032070
         N           -0.653521399026    -0.972752222168    -2.299779211761    14.003074004780
         N            0.686578637152     0.907144561012    -2.308784227016    14.003074004780
         H            0.657027652414     0.965309088061    -3.321580027651     1.007825032070
         H            1.370007264869     1.482351623478    -1.830235592581     1.007825032070
         H           -1.542909616612    -1.338801048622    -1.966217291714     1.007825032070
         H           -0.372954269060    -1.210814169217    -3.263878334122     1.007825032070

  Running in c1 symmetry.

  Rotational constants: A =      0.12147  B =      0.03967  C =      0.03113 [cm^-1]
  Rotational constants: A =   3641.57515  B =   1189.19412  C =    933.30937 [MHz]
  Nuclear repulsion =  416.345683393878630

  Charge       = 1
  Multiplicity = 1
  Electrons    = 64
  Nalpha       = 32
  Nbeta        = 32

  ==> Algorithm <==

  SCF Algorithm Type is DF.
  DIIS enabled.
  MOM disabled.
  Fractional occupation disabled.
  Guess Type is READ.
  Energy threshold   = 1.00e-08
  Density threshold  = 1.00e-08
  Integral threshold = 0.00e+00

  ==> Primary Basis <==

  Basis Set: 6-31G*
    Blend: 6-31G*
    Number of shells: 72
    Number of basis function: 153
    Number of Cartesian functions: 153
    Spherical Harmonics?: false
    Max angular momentum: 2

  ==> DFT Potential <==

   => Composite Functional: B3LYP-D3ZERO <= 

    B3LYP-d3zero Hyb-GGA Exchange-Correlation Functional

    P. J. Stephens, F. J. Devlin, C. F. Chabalowski, and M. J. Frisch, J. Phys. Chem. 98, 11623 (1994)

    Deriv               =              1
    GGA                 =           TRUE
    Meta                =          FALSE

    Exchange Hybrid     =           TRUE
    MP2 Hybrid          =          FALSE

   => Exchange Functionals <=

    0.0800   Slater exchange
    0.7200         Becke 88

   => Exact (HF) Exchange <=

    0.2000               HF 

   => Correlation Functionals <=

    0.1900   Vosko, Wilk & Nusair (VWN5_RPA)
    0.8100   Lee, Yang & Parr

   => Molecular Quadrature <=

    Radial Scheme       =       TREUTLER
    Pruning Scheme      =           FLAT
    Nuclear Scheme      =       TREUTLER

    BS radius alpha     =              1
    Pruning alpha       =              1
    Radial Points       =             75
    Spherical Points    =            302
    Total Points        =         397010
    Total Blocks        =           3014
    Max Points          =            256
    Max Functions       =            149

   => -D3ZERO: Empirical Dispersion <=

    Grimme's -D3 (zero-damping) Dispersion Correction
    Grimme S.; Antony J.; Ehrlich S.; Krieg H. (2010), J. Chem. Phys., 132: 154104

        S6 =   1.000000E+00
        S8 =   1.703000E+00
       SR6 =   1.261000E+00
       SR8 =   1.000000E+00
    ALPHA6 =   1.400000E+01

   => Loading Basis Set <=

    Name: (6-31G* AUX)
    Role: JKFIT
    Keyword: DF_BASIS_SCF
    atoms 1-7         entry C          line   121 file /shared/joao/test_parameterize/miniconda3/share/psi4/basis/cc-pvdz-jkfit.gbs 
    atoms 8-12, 15-18 entry H          line    51 file /shared/joao/test_parameterize/miniconda3/share/psi4/basis/cc-pvdz-jkfit.gbs 
    atoms 13-14       entry N          line   171 file /shared/joao/test_parameterize/miniconda3/share/psi4/basis/cc-pvdz-jkfit.gbs 

  Reading orbitals from file 180, no projection.

  ==> Pre-Iterations <==

   -------------------------------------------------------
    Irrep   Nso     Nmo     Nalpha   Nbeta   Ndocc  Nsocc
   -------------------------------------------------------
     A        153     153       0       0       0       0
   -------------------------------------------------------
    Total     153     153      32      32      32       0
   -------------------------------------------------------

  ==> Integral Setup <==

  ==> DiskDFJK: Density-Fitted J/K Matrices <==

    J tasked:                  Yes
    K tasked:                  Yes
    wK tasked:                  No
    OpenMP threads:              4
    Integrals threads:           4
    Memory (MB):              2002
    Algorithm:                Core
    Integral Cache:           NONE
    Schwarz Cutoff:          1E-12
    Fitting Condition:       1E-12

   => Auxiliary Basis Set <=

  Basis Set: (6-31G* AUX)
    Blend: CC-PVDZ-JKFIT
    Number of shells: 297
    Number of basis function: 954
    Number of Cartesian functions: 954
    Spherical Harmonics?: false
    Max angular momentum: 3

  Minimum eigenvalue in the overlap matrix is 4.8923637141E-04.
  Using Symmetric Orthogonalization.

  SCF Guess: Orbitals guess was supplied from a previous computation.

  ==> Iterations <==

                           Total Energy        Delta E     RMS |[F,P]|

   @DF-RKS iter   0:  -381.42986849869607   -3.81430e+02   2.27607e-03 
   @DF-RKS iter   1:  -381.46526619741627   -3.53977e-02   3.09113e-04 
   @DF-RKS iter   2:  -381.46518771338771    7.84840e-05   3.86760e-04 DIIS
   @DF-RKS iter   3:  -381.46560658708097   -4.18874e-04   8.07031e-05 DIIS
   @DF-RKS iter   4:  -381.46562000527194   -1.34182e-05   4.36720e-05 DIIS
   @DF-RKS iter   5:  -381.46562539439839   -5.38913e-06   1.10434e-05 DIIS
   @DF-RKS iter   6:  -381.46562573906078   -3.44662e-07   3.59560e-06 DIIS
   @DF-RKS iter   7:  -381.46562577700837   -3.79476e-08   1.03275e-06 DIIS
   @DF-RKS iter   8:  -381.46562577989619   -2.88782e-09   3.73578e-07 DIIS
   @DF-RKS iter   9:  -381.46562578033496   -4.38774e-10   9.46760e-08 DIIS
   @DF-RKS iter  10:  -381.46562578035548   -2.05205e-11   4.12939e-08 DIIS
   @DF-RKS iter  11:  -381.46562578036048   -5.00222e-12   1.47829e-08 DIIS
   @DF-RKS iter  12:  -381.46562578036094   -4.54747e-13   2.56484e-09 DIIS

  ==> Post-Iterations <==

    Orbital Energies [Eh]
    ---------------------

    Doubly Occupied:                                                      

       1A    -14.570927     2A    -14.562500     3A    -10.495603  
       4A    -10.371853     5A    -10.356715     6A    -10.355296  
       7A    -10.344862     8A    -10.340855     9A    -10.340097  
      10A     -1.179119    11A     -1.085188    12A     -1.013657  
      13A     -0.925816    14A     -0.901848    15A     -0.841609  
      16A     -0.780978    17A     -0.770052    18A     -0.736998  
      19A     -0.729256    20A     -0.693972    21A     -0.668835  
      22A     -0.625222    23A     -0.609596    24A     -0.581923  
      25A     -0.578992    26A     -0.567528    27A     -0.517449  
      28A     -0.505366    29A     -0.497657    30A     -0.471723  
      31A     -0.412687    32A     -0.405563  

    Virtual:                                                              

      33A     -0.226220    34A     -0.156070    35A     -0.129204  
      36A     -0.107953    37A     -0.070728    38A     -0.059939  
      39A     -0.036766    40A     -0.028739    41A      0.008645  
      42A      0.014477    43A      0.022478    44A      0.053584  
      45A      0.061575    46A      0.086621    47A      0.128160  
      48A      0.141328    49A      0.157507    50A      0.158646  
      51A      0.202604    52A      0.241801    53A      0.299988  
      54A      0.353958    55A      0.356411    56A      0.381526  
      57A      0.390178    58A      0.397374    59A      0.419332  
      60A      0.424281    61A      0.441963    62A      0.448241  
      63A      0.454217    64A      0.471257    65A      0.474449  
      66A      0.476002    67A      0.485708    68A      0.516341  
      69A      0.521503    70A      0.537495    71A      0.543710  
      72A      0.595525    73A      0.606573    74A      0.655893  
      75A      0.662318    76A      0.682735    77A      0.689508  
      78A      0.702869    79A      0.713817    80A      0.717949  
      81A      0.729412    82A      0.759299    83A      0.774369  
      84A      0.793420    85A      0.807218    86A      0.822931  
      87A      0.853774    88A      0.935824    89A      0.942998  
      90A      0.979136    91A      1.002432    92A      1.024369  
      93A      1.065318    94A      1.100233    95A      1.108343  
      96A      1.152355    97A      1.214746    98A      1.277163  
      99A      1.281938   100A      1.308566   101A      1.325150  
     102A      1.342132   103A      1.358919   104A      1.385926  
     105A      1.408548   106A      1.449693   107A      1.522182  
     108A      1.618815   109A      1.650335   110A      1.655288  
     111A      1.676536   112A      1.737987   113A      1.753515  
     114A      1.794578   115A      1.821519   116A      1.826608  
     117A      1.879195   118A      1.901869   119A      1.961786  
     120A      1.972002   121A      1.988931   122A      1.999192  
     123A      2.026629   124A      2.045800   125A      2.121863  
     126A      2.134193   127A      2.154366   128A      2.184888  
     129A      2.252412   130A      2.284024   131A      2.345223  
     132A      2.372907   133A      2.444884   134A      2.453589  
     135A      2.486274   136A      2.507634   137A      2.544618  
     138A      2.587205   139A      2.600499   140A      2.630055  
     141A      2.736178   142A      2.841178   143A      2.987107  
     144A      3.256870   145A      3.628205   146A      3.654489  
     147A      3.910479   148A      3.945746   149A      3.963821  
     150A      4.045425   151A      4.172924   152A      4.254882  
     153A      4.546267  

    Final Occupation by Irrep:
              A 
    DOCC [    32 ]

  Energy converged.

  @DF-RKS Final Energy:  -381.46562578036094

   => Energetics <=

    Nuclear Repulsion Energy =            416.3456833938786303
    One-Electron Energy =               -1328.0065545071847737
    Two-Electron Energy =                 574.5966301538782091
    DFT Exchange-Correlation Energy =     -44.3894487009330305
    Empirical Dispersion Energy =          -0.0119361200000000
    VV10 Nonlocal Energy =                  0.0000000000000000
    Total Energy =                       -381.4656257803609378



Properties will be evaluated at   0.000000,   0.000000,   0.000000 [a0]

Properties computed using the SCF density matrix

  Nuclear Dipole Moment: [e a0]
     X:    -0.4842      Y:     0.4161      Z:     0.5798

  Electronic Dipole Moment: [e a0]
     X:     0.5196      Y:    -0.3693      Z:    -2.8087

  Dipole Moment: [e a0]
     X:     0.0354      Y:     0.0468      Z:    -2.2290     Total:     2.2297

  Dipole Moment: [D]
     X:     0.0900      Y:     0.1188      Z:    -5.6655     Total:     5.6674


*** tstop() called on green.prib.upf.edu at Sat Sep 29 20:32:20 2018
Module time:
	user time   =      88.24 seconds =       1.47 minutes
	system time =       0.40 seconds =       0.01 minutes
	total time  =         24 seconds =       0.40 minutes
Total time:
	user time   =     218.69 seconds =       3.64 minutes
	system time =       1.09 seconds =       0.02 minutes
	total time  =         59 seconds =       0.98 minutes

*** tstart() called on green.prib.upf.edu
*** at Sat Sep 29 20:32:20 2018


         ------------------------------------------------------------
                                   SCF GRAD                          
                          Rob Parrish, Justin Turney,                
                       Andy Simmonett, and Alex Sokolov              
         ------------------------------------------------------------

  ==> Geometry <==

    Molecular point group: c1
    Full point group: C1

    Geometry (in Angstrom), charge = 1, multiplicity = 1:

       Center              X                  Y                   Z               Mass       
    ------------   -----------------  -----------------  -----------------  -----------------
         C           -0.029096694030     0.028846301932    -0.170148700167    12.000000000000
         C            0.034889987798     1.243365052316     0.544494935689    12.000000000000
         C            0.057877509454     1.224243477322     1.934710088904    12.000000000000
         C            0.017946492790     0.002321504442     2.615980875367    12.000000000000
         C           -0.051886262476    -1.204112037774     1.909748606938    12.000000000000
         C           -0.085696831892    -1.197397158172     0.518802900403    12.000000000000
         C           -0.037407034784     0.022782129272    -1.631803437432    12.000000000000
         H            0.021778758447     2.194117467101     0.018499426349     1.007825032070
         H            0.093516230358     2.157669073763     2.487813701063     1.007825032070
         H            0.035829859267    -0.009020292697     3.701735963920     1.007825032070
         H           -0.075961287038    -2.148792830660     2.443413968710     1.007825032070
         H           -0.113706997630    -2.132889519387    -0.033514644900     1.007825032070
         N           -0.653521399026    -0.972752222168    -2.299779211761    14.003074004780
         N            0.686578637152     0.907144561012    -2.308784227016    14.003074004780
         H            0.657027652414     0.965309088061    -3.321580027651     1.007825032070
         H            1.370007264869     1.482351623478    -1.830235592581     1.007825032070
         H           -1.542909616612    -1.338801048622    -1.966217291714     1.007825032070
         H           -0.372954269060    -1.210814169217    -3.263878334122     1.007825032070

  Nuclear repulsion =  416.345683393878630

  ==> Basis Set <==

  Basis Set: 6-31G*
    Blend: 6-31G*
    Number of shells: 72
    Number of basis function: 153
    Number of Cartesian functions: 153
    Spherical Harmonics?: false
    Max angular momentum: 2

  ==> DFJKGrad: Density-Fitted SCF Gradients <==

    Gradient:                    1
    J tasked:                  Yes
    K tasked:                  Yes
    wK tasked:                  No
    OpenMP threads:              4
    Integrals threads:           4
    Memory (MB):              2002
    Schwarz Cutoff:          0E+00
    Fitting Condition:       1E-12

   => Auxiliary Basis Set <=

  Basis Set: (6-31G* AUX)
    Blend: CC-PVDZ-JKFIT
    Number of shells: 297
    Number of basis function: 954
    Number of Cartesian functions: 954
    Spherical Harmonics?: false
    Max angular momentum: 3

  ==> DFT Potential <==

   => Composite Functional: B3LYP-D3ZERO <= 

    B3LYP-d3zero Hyb-GGA Exchange-Correlation Functional

    P. J. Stephens, F. J. Devlin, C. F. Chabalowski, and M. J. Frisch, J. Phys. Chem. 98, 11623 (1994)

    Deriv               =              1
    GGA                 =           TRUE
    Meta                =          FALSE

    Exchange Hybrid     =           TRUE
    MP2 Hybrid          =          FALSE

   => Exchange Functionals <=

    0.0800   Slater exchange
    0.7200         Becke 88

   => Exact (HF) Exchange <=

    0.2000               HF 

   => Correlation Functionals <=

    0.1900   Vosko, Wilk & Nusair (VWN5_RPA)
    0.8100   Lee, Yang & Parr

   => Molecular Quadrature <=

    Radial Scheme       =       TREUTLER
    Pruning Scheme      =           FLAT
    Nuclear Scheme      =       TREUTLER

    BS radius alpha     =              1
    Pruning alpha       =              1
    Radial Points       =             75
    Spherical Points    =            302
    Total Points        =         397010
    Total Blocks        =           3014
    Max Points          =            256
    Max Functions       =            149


  -Total Gradient:
     Atom            X                  Y                   Z
    ------   -----------------  -----------------  -----------------
       1        0.007844349006    -0.004881788848     0.001364373533
       2       -0.000445073250     0.000379230185     0.000042354114
       3       -0.000134021017     0.000082478807     0.000682749766
       4        0.000158460484     0.000722558442     0.000279028768
       5        0.000289157216    -0.000384977779    -0.000073291592
       6        0.000203871603     0.001002040197    -0.001285195144
       7       -0.006089160855     0.013125665784     0.000904116064
       8        0.000018333410     0.000132542210     0.000288554537
       9       -0.000007688564     0.000304953430     0.000160914600
      10       -0.000143787509     0.000091451999     0.000146181139
      11       -0.000062857149    -0.000151564856    -0.000117382701
      12       -0.000414599783    -0.000856523186    -0.000775912664
      13       -0.001951703378    -0.005509107309     0.011269079255
      14       -0.001492237599    -0.000165542992     0.001418438575
      15        0.000175419307    -0.000827369249    -0.001132313664
      16        0.000666504865     0.000137362926     0.000369487482
      17       -0.007665962901     0.002775413604    -0.001289856150
      18        0.009048805694    -0.005983850315    -0.012268349411


*** tstop() called on green.prib.upf.edu at Sat Sep 29 20:32:27 2018
Module time:
	user time   =      26.82 seconds =       0.45 minutes
	system time =       0.22 seconds =       0.00 minutes
	total time  =          7 seconds =       0.12 minutes
Total time:
	user time   =     245.58 seconds =       4.09 minutes
	system time =       1.31 seconds =       0.02 minutes
	total time  =         66 seconds =       1.10 minutes

			-----------------------------------------
			 OPTKING 2.0: for geometry optimizations 
			  - R.A. King,  Bethel University        
			-----------------------------------------
	At level 1: Red. Int., RFO, no backsteps, dynamic trust

	Previous internal coordinate definitions found.
	---Fragment 1 Geometry and Gradient---
	 C          -0.0549847831        0.0545116106       -0.3215344452
	 C           0.0659325217        2.3496194321        1.0289463092
	 C           0.1093726421        2.3134848921        3.6560722146
	 C           0.0339139564        0.0043870076        4.9434874233
	 C          -0.0980508261       -2.2754419847        3.6089018498
	 C          -0.1619435427       -2.2627527012        0.9803953987
	 C          -0.0706890512        0.0430519850       -3.0836615994
	 H           0.0411558890        4.1462811162        0.0349588494
	 H           0.1767200644        4.0774036348        4.7012865646
	 H           0.0677086214       -0.0170458828        6.9952671881
	 H          -0.1435460292       -4.0606299663        4.6173832301
	 H          -0.2148750849       -4.0305770633       -0.0633335003
	 N          -1.2349764661       -1.8382352951       -4.3459528763
	 N           1.2974455929        1.7142547832       -4.3629698890
	 H           1.2416023248        1.8241698100       -6.2768765807
	 H           2.5889385307        2.8012386010       -3.4586440286
	 H          -2.9156766232       -2.5299673283       -3.7156121991
	 H          -0.7047814286       -2.2881071776       -6.1678361825
	             0.0078443490       -0.0048817888        0.0013643735
	            -0.0004450733        0.0003792302        0.0000423541
	            -0.0001340210        0.0000824788        0.0006827498
	             0.0001584605        0.0007225584        0.0002790288
	             0.0002891572       -0.0003849778       -0.0000732916
	             0.0002038716        0.0010020402       -0.0012851951
	            -0.0060891609        0.0131256658        0.0009041161
	             0.0000183334        0.0001325422        0.0002885545
	            -0.0000076886        0.0003049534        0.0001609146
	            -0.0001437875        0.0000914520        0.0001461811
	            -0.0000628571       -0.0001515649       -0.0001173827
	            -0.0004145998       -0.0008565232       -0.0007759127
	            -0.0019517034       -0.0055091073        0.0112690793
	            -0.0014922376       -0.0001655430        0.0014184386
	             0.0001754193       -0.0008273692       -0.0011323137
	             0.0006665049        0.0001373629        0.0003694875
	            -0.0076659629        0.0027754136       -0.0012898561
	             0.0090488057       -0.0059838503       -0.0122683494

	---Fragment 1 Intrafragment Coordinates---
	 - Coordinate -           - BOHR/RAD -       - ANG/DEG -
	 R(1,2)           =         2.665697	       1.410626
	 R(1,6)           =         2.660108	       1.407669
	 R(1,7)           =         2.762196	       1.461691
	 R(2,3)           =         2.627733	       1.390537
	 R(2,8)           =         2.053441	       1.086634
	 R(3,4)           =         2.644819	       1.399578
	 R(3,9)           =         2.051443	       1.085577
	 R(4,5)           =         2.645024	       1.399687
	 R(4,10)          =         2.052170	       1.085962
	 R(5,6)           =         2.629313	       1.391373
	 R(5,11)          =         2.050854	       1.085265
	 R(6,12)          =         2.053625	       1.086731
	 R(7,13)          =         2.547192	       1.347916
	 R(7,14)          =         2.510247	       1.328366
	 R(13,17)         =         1.923688	       1.017972
	 R(13,18)         =         1.950064	       1.031930
	 R(14,15)         =         1.917873	       1.014895
	 R(14,16)         =         1.915018	       1.013384
	 B(1,2,3)         =         2.089101	     119.696643
	 B(1,2,8)         =         2.103119	     120.499838
	 B(1,6,5)         =         2.085761	     119.505308
	 B(1,6,12)        =         2.096909	     120.144029
	 B(1,7,13)        =         2.095796	     120.080252
	 B(1,7,14)        =         2.098743	     120.249143
	 B(2,1,6)         =         2.098888	     120.257400
	 B(2,1,7)         =         2.106483	     120.692601
	 B(2,3,4)         =         2.092307	     119.880345
	 B(2,3,9)         =         2.092206	     119.874578
	 B(3,2,8)         =         2.089988	     119.747507
	 B(3,4,5)         =         2.104051	     120.553249
	 B(3,4,10)        =         2.089005	     119.691166
	 B(4,3,9)         =         2.098587	     120.240155
	 B(4,5,6)         =         2.096084	     120.096794
	 B(4,5,11)        =         2.098176	     120.216642
	 B(5,4,10)        =         2.090114	     119.754733
	 B(5,6,12)        =         2.099661	     120.301702
	 B(6,1,7)         =         2.077814	     119.049998
	 B(6,5,11)        =         2.088917	     119.686124
	 B(7,13,17)       =         2.097341	     120.168782
	 B(7,13,18)       =         2.104933	     120.603780
	 B(7,14,15)       =         2.130418	     122.063963
	 B(7,14,16)       =         2.099931	     120.317202
	 B(13,7,14)       =         2.080906	     119.227110
	 B(15,14,16)      =         2.046943	     117.281219
	 B(17,13,18)      =         2.049605	     117.433739
	 D(1,2,3,4)       =         0.000388	       0.022226
	 D(1,2,3,9)       =        -3.127155	    -179.172761
	 D(1,6,5,4)       =         0.016397	       0.939459
	 D(1,6,5,11)      =        -3.120997	    -178.819959
	*D(1,7,13,17)     =         0.698131	      39.999961
	 D(1,7,13,18)     =        -2.716449	    -155.641072
	 D(1,7,14,15)     =        -3.074163	    -176.136543
	 D(1,7,14,16)     =         0.187066	      10.718092
	 D(2,1,6,5)       =        -0.021651	      -1.240538
	 D(2,1,6,12)      =        -3.118968	    -178.703686
	 D(2,1,7,13)      =        -2.638342	    -151.165886
	 D(2,1,7,14)      =         0.637643	      36.534239
	 D(2,3,4,5)       =        -0.005642	      -0.323246
	 D(2,3,4,10)      =        -3.141358	    -179.986561
	 D(3,2,1,6)       =         0.013265	       0.760018
	 D(3,2,1,7)       =        -3.128103	    -179.227076
	 D(3,4,5,6)       =        -0.002853	      -0.163447
	 D(3,4,5,11)      =         3.134519	     179.594684
	 D(4,3,2,8)       =         3.094720	     177.314419
	 D(4,5,6,12)      =         3.113642	     178.398534
	 D(5,4,3,9)       =         3.121849	     178.868763
	 D(5,6,1,7)       =         3.119720	     178.746767
	 D(6,1,2,8)       =        -3.080706	    -176.511450
	 D(6,1,7,13)      =         0.503473	      28.846866
	 D(6,1,7,14)      =        -2.503727	    -143.453009
	 D(6,5,4,10)      =         3.132860	     179.499655
	 D(7,1,2,8)       =         0.061112	       3.501456
	 D(7,1,6,12)      =         0.022403	       1.283619
	 D(8,2,3,9)       =        -0.032822	      -1.880568
	 D(9,3,4,10)      =        -0.013868	      -0.794552
	 D(10,4,5,11)     =        -0.012954	      -0.742214
	 D(11,5,6,12)     =        -0.023752	      -1.360885
	 D(13,7,14,15)    =         0.200681	      11.498192
	 D(13,7,14,16)    =        -2.821275	    -161.647174
	 D(14,7,13,17)    =        -2.576483	    -147.621627
	 D(14,7,13,18)    =         0.292122	      16.737340

	Current energy   :      -381.4656257804

	Energy change for the previous step:
		Projected    :        -0.0053199196
		Actual       :        -0.0039465812

	Performing BFGS update.
	Previous computed or guess Hessian on step 1.
	Steps to be used in Hessian update: 1
	Taking RFO optimization step.
	Going to follow RFO solution 1.
	Using RFO vector 1.
	Norm of target step-size    0.37213
	Projected energy change by RFO approximation:        -0.0014831998

	Back-transformation to cartesian coordinates...
	Could not converge backtransformation.
	Using first guess instead.

	Back-transformation to cartesian coordinates to adjust frozen coordinates...
	Successfully converged to displaced geometry.

	--- Internal Coordinate Step in ANG or DEG, aJ/ANG or AJ/DEG ---
	 ---------------------------------------------------------------------------
	   Coordinate                Previous        Force       Change         New 
	   ----------                --------       ------       ------       ------
	    1 R(1,2)          =      1.410626    -0.009493    -0.000531     1.410095
	    2 R(1,6)          =      1.407669     0.010329     0.001798     1.409466
	    3 R(1,7)          =      1.461691    -0.006175    -0.002173     1.459518
	    4 R(2,3)          =      1.390537    -0.005237    -0.000823     1.389714
	    5 R(2,8)          =      1.086634     0.000199     0.000252     1.086886
	    6 R(3,4)          =      1.399578     0.000055     0.000439     1.400017
	    7 R(3,9)          =      1.085577    -0.002840    -0.000325     1.085252
	    8 R(4,5)          =      1.399687    -0.009159    -0.000855     1.398831
	    9 R(4,10)         =      1.085962    -0.001185    -0.000045     1.085916
	   10 R(5,6)          =      1.391373    -0.003665    -0.000288     1.391084
	   11 R(5,11)         =      1.085265    -0.000625     0.000031     1.085296
	   12 R(6,12)         =      1.086731    -0.009405    -0.001519     1.085212
	   13 R(7,13)         =      1.347916    -0.064510    -0.002466     1.345450
	   14 R(7,14)         =      1.328366     0.010366     0.001448     1.329813
	   15 R(13,17)        =      1.017972    -0.043476    -0.004390     1.013582
	   16 R(13,18)        =      1.031930    -0.126066     0.011905     1.043835
	   17 R(14,15)        =      1.014895    -0.008868    -0.000347     1.014548
	   18 R(14,16)        =      1.013384    -0.005792     0.000009     1.013392
	   19 B(1,2,3)        =    119.696643     0.000004     0.019402   119.716045
	   20 B(1,2,8)        =    120.499838    -0.000027    -0.127598   120.372240
	   21 B(1,6,5)        =    119.505308     0.000017     0.039374   119.544682
	   22 B(1,6,12)       =    120.144029     0.000009    -0.050386   120.093642
	   23 B(1,7,13)       =    120.080252     0.000074     0.399018   120.479270
	   24 B(1,7,14)       =    120.249143    -0.000053    -0.014213   120.234930
	   25 B(2,1,6)        =    120.257400    -0.000034    -0.070414   120.186986
	   26 B(2,1,7)        =    120.692601    -0.000156    -0.309795   120.382805
	   27 B(2,3,4)        =    119.880345     0.000026     0.031614   119.911959
	   28 B(2,3,9)        =    119.874578    -0.000012     0.003760   119.878338
	   29 B(3,2,8)        =    119.747507     0.000023     0.115358   119.862864
	   30 B(3,4,5)        =    120.553249     0.000001     0.020294   120.573543
	   31 B(3,4,10)       =    119.691166     0.000006     0.015071   119.706236
	   32 B(4,3,9)        =    120.240155    -0.000014    -0.035498   120.204656
	   33 B(4,5,6)        =    120.096794    -0.000014    -0.036303   120.060491
	   34 B(4,5,11)       =    120.216642    -0.000007    -0.043877   120.172765
	   35 B(5,4,10)       =    119.754733    -0.000007    -0.034527   119.720206
	   36 B(5,6,12)       =    120.301702    -0.000027     0.000041   120.301744
	   37 B(6,1,7)        =    119.049998     0.000191     0.375498   119.425496
	   38 B(6,5,11)       =    119.686124     0.000021     0.077591   119.763716
	   39 B(7,13,17)      =    120.168782    -0.000046    -1.058883   119.109899
	   40 B(7,13,18)      =    120.603780     0.000105    -1.865345   118.738436
	   41 B(7,14,15)      =    122.063963     0.000049     0.134435   122.198397
	   42 B(7,14,16)      =    120.317202    -0.000013     0.131109   120.448312
	   43 B(13,7,14)      =    119.227110    -0.000008    -0.124742   119.102368
	   44 B(15,14,16)     =    117.281219    -0.000029    -0.113647   117.167572
	   45 B(17,13,18)     =    117.433739    -0.000146    -2.379876   115.053863
	   46 D(1,2,3,4)      =      0.022226    -0.000001    -0.152703    -0.130477
	   47 D(1,2,3,9)      =   -179.172761    -0.000001    -0.142305  -179.315066
	   48 D(1,6,5,4)      =      0.939459    -0.000002    -0.270799     0.668659
	   49 D(1,6,5,11)     =   -178.819959     0.000001     0.120452  -178.699507
	   50 *D(1,7,13,17)   =     39.999961     0.000000    -0.000000    39.999961
	   51 D(1,7,13,18)    =   -155.641072    -0.000090   -15.253119  -170.894191
	   52 D(1,7,14,15)    =   -176.136543     0.000024     3.210962  -172.925580
	   53 D(1,7,14,16)    =     10.718092     0.000008     1.450438    12.168529
	   54 D(2,1,6,5)      =     -1.240538     0.000002     0.257597    -0.982940
	   55 D(2,1,6,12)     =   -178.703686     0.000005     0.527289  -178.176396
	   56 D(2,1,7,13)     =   -151.165886     0.000007    -0.513617  -151.679503
	   57 D(2,1,7,14)     =     36.534239    -0.000018    -3.247878    33.286361
	   58 D(2,3,4,5)      =     -0.323246     0.000001     0.139573    -0.183672
	   59 D(2,3,4,10)     =   -179.986561    -0.000001    -0.152918  -180.139479
	   60 D(3,2,1,6)      =      0.760018    -0.000001    -0.045947     0.714071
	   61 D(3,2,1,7)      =   -179.227076     0.000003     0.735359  -178.491717
	   62 D(3,4,5,6)      =     -0.163447     0.000001     0.074427    -0.089019
	   63 D(3,4,5,11)     =    179.594684    -0.000002    -0.318143   179.276541
	   64 D(4,3,2,8)      =    177.314419    -0.000000     0.022953   177.337372
	   65 D(4,5,6,12)     =    178.398534    -0.000004    -0.542361   177.856172
	   66 D(5,4,3,9)      =    178.868763     0.000001     0.129464   178.998227
	   67 D(5,6,1,7)      =    178.746767    -0.000002    -0.516323   178.230444
	   68 D(6,1,2,8)      =   -176.511450    -0.000002    -0.229226  -176.740676
	   69 D(6,1,7,13)     =     28.846866     0.000011     0.261818    29.108685
	   70 D(6,1,7,14)     =   -143.453009    -0.000014    -2.472443  -145.925451
	   71 D(6,5,4,10)     =    179.499655     0.000003     0.367126   179.866782
	   72 D(7,1,2,8)      =      3.501456     0.000002     0.552079     4.053535
	   73 D(7,1,6,12)     =      1.283619     0.000001    -0.246631     1.036988
	   74 D(8,2,3,9)      =     -1.880568    -0.000000     0.033351    -1.847217
	   75 D(9,3,4,10)     =     -0.794552    -0.000001    -0.163028    -0.957580
	   76 D(10,4,5,11)    =     -0.742214    -0.000000    -0.025445    -0.767658
	   77 D(11,5,6,12)    =     -1.360885    -0.000002    -0.151110    -1.511995
	   78 D(13,7,14,15)   =     11.498192    -0.000002     0.474069    11.972261
	   79 D(13,7,14,16)   =   -161.647174    -0.000018    -1.286455  -162.933629
	   80 D(14,7,13,17)   =   -147.621627     0.000024     2.711468  -144.910159
	   81 D(14,7,13,18)   =     16.737340    -0.000066   -12.541650     4.195689
	 ---------------------------------------------------------------------------
	Successfully symmetrized geometry.

  ==> Convergence Check <==

  Measures of convergence in internal coordinates in au.
  Criteria marked as inactive (o), active & met (*), and active & unmet ( ).
  ---------------------------------------------------------------------------------------------
   Step     Total Energy     Delta E     MAX Force     RMS Force      MAX Disp      RMS Disp   
  ---------------------------------------------------------------------------------------------
    Convergence Criteria    1.00e-06 *    3.00e-04 *             o    1.20e-03 *             o
  ---------------------------------------------------------------------------------------------
      2    -381.46562578   -3.95e-03      1.53e-02      2.23e-03 o    2.66e-01      4.09e-02 o  ~
  ---------------------------------------------------------------------------------------------

	Writing optimization data to binary file.
	Structure for next step:
	Cartesian Geometry (in Angstrom)
	    C    -0.0212569021   0.0029915035  -0.1668668413
	    C     0.0432901196   1.2255581681   0.5327999041
	    C     0.0595913725   1.2239800605   1.9224170605
	    C     0.0091846425   0.0110787539   2.6198238929
	    C    -0.0615331085  -1.2038354331   1.9301058139
	    C    -0.0842392128  -1.2152130660   0.5392533385
	    C    -0.0060594322  -0.0140584514  -1.6262059358
	    H     0.0386726664   2.1687393653  -0.0073008874
	    H     0.0979904537   2.1638253438   2.4637004503
	    H     0.0244037284   0.0136278710   3.7056306330
	    H    -0.0884916080  -2.1408374481   2.4770679932
	    H    -0.1040190213  -2.1565465032  -0.0003625857
	    N    -0.6084366158  -1.0084400354  -2.3033928381
	    N     0.6871521291   0.8995695473  -2.2993662289
	    H     0.6355854969   0.9814516622  -3.3092889811
	    H     1.3517089785   1.4959332197  -1.8201182651
	    H    -1.5003624387  -1.3596199888  -1.9740158567
	    H    -0.4608692483  -1.0746335695  -3.3346216664
			--------------------------
			 OPTKING Finished Execution 
			--------------------------

    Structure for next step:
    Molecular point group: c1
    Full point group: C1

    Geometry (in Angstrom), charge = 1, multiplicity = 1:

    C           -0.021256902054     0.002991503503    -0.166866841281
    C            0.043290119643     1.225558168141     0.532799904136
    C            0.059591372525     1.223980060496     1.922417060491
    C            0.009184642474     0.011078753912     2.619823892896
    C           -0.061533108548    -1.203835433050     1.930105813892
    C           -0.084239212815    -1.215213065970     0.539253338497
    C           -0.006059432202    -0.014058451378    -1.626205935810
    H            0.038672666430     2.168739365254    -0.007300887357
    H            0.097990453744     2.163825343810     2.463700450291
    H            0.024403728381     0.013627871036     3.705630632991
    H           -0.088491608026    -2.140837448081     2.477067993202
    H           -0.104019021323    -2.156546503155    -0.000362585681
    N           -0.608436615812    -1.008440035446    -2.303392838096
    N            0.687152129101     0.899569547326    -2.299366228867
    H            0.635585496936     0.981451662206    -3.309288981141
    H            1.351708978542     1.495933219728    -1.820118265075
    H           -1.500362438718    -1.359619988799    -1.974015856702
    H           -0.460869248278    -1.074633569533    -3.334621666384

gradient() will perform analytic gradient computation.

*** tstart() called on green.prib.upf.edu
*** at Sat Sep 29 20:32:27 2018

   => Loading Basis Set <=

    Name: 6-31G*
    Role: ORBITAL
    Keyword: BASIS
    atoms 1-7         entry C          line   111 file /shared/joao/test_parameterize/miniconda3/share/psi4/basis/6-31gs.gbs 
    atoms 8-12, 15-18 entry H          line    44 file /shared/joao/test_parameterize/miniconda3/share/psi4/basis/6-31gs.gbs 
    atoms 13-14       entry N          line   128 file /shared/joao/test_parameterize/miniconda3/share/psi4/basis/6-31gs.gbs 


         ---------------------------------------------------------
                                   SCF
[...]
	            -0.0000188079       -0.0000020999       -0.0000002429
	            -0.0000040327       -0.0000042967       -0.0000012953
	            -0.0000005441       -0.0000007982       -0.0000015482
	             0.0000005875        0.0000026277        0.0000029084
	            -0.0000105460        0.0000092162       -0.0000051794
	             0.0070896991       -0.0080592916        0.0057598532
	             0.0000218744        0.0000817260       -0.0000649774
	            -0.0000235505       -0.0000014257        0.0000105744
	             0.0000107203       -0.0000167432       -0.0000161722
	            -0.0034889815        0.0048847731       -0.0041392811
	             0.0000235014        0.0000181876       -0.0000875941

	---Fragment 1 Intrafragment Coordinates---
	 - Coordinate -           - BOHR/RAD -       - ANG/DEG -
	 R(1,2)           =         2.663412	       1.409417
	 R(1,6)           =         2.662260	       1.408807
	 R(1,7)           =         2.761321	       1.461228
	 R(2,3)           =         2.626839	       1.390064
	 R(2,8)           =         2.053383	       1.086603
	 R(3,4)           =         2.644068	       1.399181
	 R(3,9)           =         2.050555	       1.085107
	 R(4,5)           =         2.642904	       1.398564
	 R(4,10)          =         2.051736	       1.085732
	 R(5,6)           =         2.628192	       1.390779
	 R(5,11)          =         2.050632	       1.085148
	 R(6,12)          =         2.051160	       1.085427
	 R(7,13)          =         2.535885	       1.341932
	 R(7,14)          =         2.511662	       1.329114
	 R(13,17)         =         1.915807	       1.013801
	 R(13,18)         =         1.918586	       1.015272
	 R(14,15)         =         1.915330	       1.013549
	 R(14,16)         =         1.913080	       1.012359
	 B(1,2,3)         =         2.089525	     119.720974
	 B(1,2,8)         =         2.103189	     120.503864
	 B(1,6,5)         =         2.087341	     119.595817
	 B(1,6,12)        =         2.097660	     120.187052
	 B(1,7,13)        =         2.089772	     119.735131
	 B(1,7,14)        =         2.097133	     120.156843
	 B(2,1,6)         =         2.096729	     120.133731
	 B(2,1,7)         =         2.098548	     120.237958
	 B(2,3,4)         =         2.093728	     119.961806
	 B(2,3,9)         =         2.091428	     119.830014
	 B(3,2,8)         =         2.089290	     119.707514
	 B(3,4,5)         =         2.103167	     120.502606
	 B(3,4,10)        =         2.089716	     119.731881
	 B(4,3,9)         =         2.097951	     120.203718
	 B(4,5,6)         =         2.095821	     120.081682
	 B(4,5,11)        =         2.097519	     120.178958
	 B(5,4,10)        =         2.090302	     119.765457
	 B(5,6,12)        =         2.097072	     120.153390
	 B(6,1,7)         =         2.087907	     119.628243
	 B(6,5,11)        =         2.089792	     119.736273
	 B(7,13,17)       =         2.064401	     118.281476
	 B(7,13,18)       =         2.090380	     119.769968
	 B(7,14,15)       =         2.141122	     122.677227
	 B(7,14,16)       =         2.097527	     120.179460
	 B(13,7,14)       =         2.091262	     119.820468
	 B(15,14,16)      =         2.041269	     116.956087
	 B(17,13,18)      =         1.989655	     113.998814
	 D(1,2,3,4)       =         0.001038	       0.059462
	 D(1,2,3,9)       =        -3.127170	    -179.173668
	 D(1,6,5,4)       =         0.008862	       0.507783
	 D(1,6,5,11)      =        -3.121597	    -178.854332
	*D(1,7,13,17)     =         0.698131	      39.999961
	 D(1,7,13,18)     =        -3.017298	    -172.878463
	 D(1,7,14,15)     =        -3.046951	    -174.577454
	 D(1,7,14,16)     =         0.184110	      10.548703
	 D(2,1,6,5)       =        -0.012246	      -0.701650
	 D(2,1,6,12)      =        -3.103248	    -177.803040
	 D(2,1,7,13)      =        -2.640770	    -151.304981
	 D(2,1,7,14)      =         0.608495	      34.864217
	 D(2,3,4,5)       =        -0.004444	      -0.254615
	 D(2,3,4,10)      =         3.138664	     179.832175
	 D(3,2,1,6)       =         0.007292	       0.417796
	 D(3,2,1,7)       =        -3.132634	    -179.486713
	 D(3,4,5,6)       =        -0.000566	      -0.032402
	 D(3,4,5,11)      =         3.129844	     179.326866
	 D(4,3,2,8)       =         3.090699	     177.083996
	 D(4,5,6,12)      =         3.099882	     177.610163
	 D(5,4,3,9)       =         3.123714	     178.975619
	 D(5,6,1,7)       =         3.127690	     179.203443
	 D(6,1,2,8)       =        -3.081948	    -176.582640
	 D(6,1,7,13)      =         0.502481	      28.790026
	 D(6,1,7,14)      =        -2.531439	    -145.040775
	 D(6,5,4,10)      =         3.139512	     179.880779
	 D(7,1,2,8)       =         0.061311	       3.512850
	 D(7,1,6,12)      =         0.036688	       2.102053
	 D(8,2,3,9)       =        -0.037509	      -2.149134
	 D(9,3,4,10)      =        -0.016364	      -0.937591
	 D(10,4,5,11)     =        -0.013264	      -0.759953
	 D(11,5,6,12)     =        -0.030577	      -1.751952
	 D(13,7,14,15)    =         0.202406	      11.597025
	 D(13,7,14,16)    =        -2.849718	    -163.276819
	 D(14,7,13,17)    =        -2.550769	    -146.148290
	 D(14,7,13,18)    =         0.016987	       0.973285

	Current energy   :      -381.4675075747

	Energy change for the previous step:
		Projected    :        -0.0000005142
		Actual       :        -0.0000000773
	Energy ratio indicates iffy step: Trust radius decreased to 6.250e-02.


	Performing BFGS update.
	Previous computed or guess Hessian on step 1.
	Steps to be used in Hessian update: 6 5
	Taking RFO optimization step.
	Going to follow RFO solution 1.
	Rejecting RFO root 1 because normalization gives large value.
	Using RFO vector 2.
	Norm of target step-size    0.00523
	Projected energy change by RFO approximation:        -0.0000012492

	Back-transformation to cartesian coordinates...
	Could not converge backtransformation.
	Using first guess instead.

	Back-transformation to cartesian coordinates to adjust frozen coordinates...
	Successfully converged to displaced geometry.

	--- Internal Coordinate Step in ANG or DEG, aJ/ANG or AJ/DEG ---
	 ---------------------------------------------------------------------------
	   Coordinate                Previous        Force       Change         New 
	   ----------                --------       ------       ------       ------
	    1 R(1,2)          =      1.409417    -0.000142     0.000023     1.409440
	    2 R(1,6)          =      1.408807    -0.000031    -0.000028     1.408780
	    3 R(1,7)          =      1.461228     0.000642     0.000455     1.461683
	    4 R(2,3)          =      1.390064     0.000202     0.000046     1.390110
	    5 R(2,8)          =      1.086603     0.000014    -0.000013     1.086590
	    6 R(3,4)          =      1.399181    -0.000115    -0.000055     1.399126
	    7 R(3,9)          =      1.085107     0.000031     0.000009     1.085116
	    8 R(4,5)          =      1.398564     0.000107    -0.000002     1.398562
	    9 R(4,10)         =      1.085732     0.000006    -0.000006     1.085726
	   10 R(5,6)          =      1.390779     0.000109     0.000029     1.390809
	   11 R(5,11)         =      1.085148     0.000006     0.000001     1.085149
	   12 R(6,12)         =      1.085427     0.000050    -0.000005     1.085422
	   13 R(7,13)         =      1.341932     0.000396     0.000064     1.341996
	   14 R(7,14)         =      1.329114    -0.000712    -0.000162     1.328952
	   15 R(13,17)        =      1.013801     0.000452     0.000052     1.013854
	   16 R(13,18)        =      1.015272    -0.000722    -0.000369     1.014903
	   17 R(14,15)        =      1.013549     0.000092     0.000007     1.013556
	   18 R(14,16)        =      1.012359     0.000070    -0.000014     1.012345
	   19 B(1,2,3)        =    119.720974     0.000000     0.006792   119.727766
	   20 B(1,2,8)        =    120.503864    -0.000000     0.013837   120.517701
	   21 B(1,6,5)        =    119.595817    -0.000001     0.001295   119.597112
	   22 B(1,6,12)       =    120.187052     0.000001     0.004674   120.191726
	   23 B(1,7,13)       =    119.735131     0.000002     0.038204   119.773336
	   24 B(1,7,14)       =    120.156843    -0.000005    -0.077296   120.079547
	   25 B(2,1,6)        =    120.133731     0.000000    -0.007965   120.125766
	   26 B(2,1,7)        =    120.237958    -0.000003     0.007131   120.245088
	   27 B(2,3,4)        =    119.961806    -0.000000    -0.001541   119.960265
	   28 B(2,3,9)        =    119.830014    -0.000000    -0.000821   119.829193
	   29 B(3,2,8)        =    119.707514    -0.000000    -0.020016   119.687498
	   30 B(3,4,5)        =    120.502606    -0.000000    -0.003492   120.499114
	   31 B(3,4,10)       =    119.731881     0.000000     0.001696   119.733577
	   32 B(4,3,9)        =    120.203718     0.000000     0.002339   120.206056
	   33 B(4,5,6)        =    120.081682     0.000001     0.004650   120.086332
	   34 B(4,5,11)       =    120.178958     0.000000    -0.000643   120.178315
	   35 B(5,4,10)       =    119.765457     0.000000     0.001820   119.767276
	   36 B(5,6,12)       =    120.153390    -0.000000    -0.008740   120.144651
	   37 B(6,1,7)        =    119.628243     0.000003     0.000842   119.629085
	   38 B(6,5,11)       =    119.736273    -0.000001    -0.004179   119.732094
	   39 B(7,13,17)      =    118.281476    -0.000002    -0.040044   118.241431
	   40 B(7,13,18)      =    119.769968     0.000004     0.023892   119.793860
	   41 B(7,14,15)      =    122.677227     0.000002     0.014408   122.691636
	   42 B(7,14,16)      =    120.179460    -0.000001    -0.005738   120.173722
	   43 B(13,7,14)      =    119.820468     0.000003     0.042730   119.863199
	   44 B(15,14,16)     =    116.956087    -0.000000    -0.007311   116.948776
	   45 B(17,13,18)     =    113.998814    -0.000001    -0.035166   113.963648
	   46 D(1,2,3,4)      =      0.059462    -0.000000    -0.021203     0.038259
	   47 D(1,2,3,9)      =   -179.173668    -0.000000    -0.019257  -179.192925
	   48 D(1,6,5,4)      =      0.507783     0.000000     0.025019     0.532802
	   49 D(1,6,5,11)     =   -178.854332     0.000000     0.042574  -178.811758
	   50 *D(1,7,13,17)   =     39.999961     0.000000    -0.000000    39.999961
	   51 D(1,7,13,18)    =   -172.878463     0.000000    -0.107966  -172.986429
	   52 D(1,7,14,15)    =   -174.577454    -0.000000    -0.065444  -174.642898
	   53 D(1,7,14,16)    =     10.548703    -0.000000    -0.083656    10.465047
	   54 D(2,1,6,5)      =     -0.701650     0.000000    -0.032137    -0.733787
	   55 D(2,1,6,12)     =   -177.803040     0.000000     0.030411  -177.772629
	   56 D(2,1,7,13)     =   -151.304981    -0.000000     0.023749  -151.281232
	   57 D(2,1,7,14)     =     34.864217     0.000000    -0.017938    34.846279
	   58 D(2,3,4,5)      =     -0.254615     0.000000     0.014148    -0.240466
	   59 D(2,3,4,10)     =    179.832175    -0.000000    -0.006615   179.825560
	   60 D(3,2,1,6)      =      0.417796    -0.000000     0.030306     0.448102
	   61 D(3,2,1,7)      =   -179.486713     0.000000     0.024550  -179.462163
	   62 D(3,4,5,6)      =     -0.032402    -0.000000    -0.016073    -0.048474
	   63 D(3,4,5,11)     =    179.326866    -0.000000    -0.033729   179.293137
	   64 D(4,3,2,8)      =    177.083996     0.000000    -0.007276   177.076720
	   65 D(4,5,6,12)     =    177.610163    -0.000000    -0.037105   177.573058
	   66 D(5,4,3,9)      =    178.975619     0.000000     0.012171   178.987790
	   67 D(5,6,1,7)      =    179.203443    -0.000000    -0.026410   179.177032
	   68 D(6,1,2,8)      =   -176.582640    -0.000000     0.017287  -176.565353
	   69 D(6,1,7,13)     =     28.790026    -0.000000     0.018030    28.808056
	   70 D(6,1,7,14)     =   -145.040775     0.000000    -0.023657  -145.064432
	   71 D(6,5,4,10)     =    179.880779     0.000000     0.004698   179.885477
	   72 D(7,1,2,8)      =      3.512850    -0.000000     0.011531     3.524381
	   73 D(7,1,6,12)     =      2.102053     0.000000     0.036138     2.138191
	   74 D(8,2,3,9)      =     -2.149134     0.000000    -0.005330    -2.154464
	   75 D(9,3,4,10)     =     -0.937591     0.000000    -0.008593    -0.946184
	   76 D(10,4,5,11)    =     -0.759953     0.000000    -0.012959    -0.772911
	   77 D(11,5,6,12)    =     -1.751952    -0.000000    -0.019550    -1.771502
	   78 D(13,7,14,15)   =     11.597025    -0.000000    -0.106880    11.490145
	   79 D(13,7,14,16)   =   -163.276819    -0.000000    -0.125091  -163.401910
	   80 D(14,7,13,17)   =   -146.148290    -0.000000     0.034120  -146.114171
	   81 D(14,7,13,18)   =      0.973285    -0.000000    -0.073846     0.899439
	 ---------------------------------------------------------------------------
	Successfully symmetrized geometry.

  ==> Convergence Check <==

  Measures of convergence in internal coordinates in au.
  Criteria marked as inactive (o), active & met (*), and active & unmet ( ).
  ---------------------------------------------------------------------------------------------
   Step     Total Energy     Delta E     MAX Force     RMS Force      MAX Disp      RMS Disp   
  ---------------------------------------------------------------------------------------------
    Convergence Criteria    1.00e-06 *    3.00e-04 *             o    1.20e-03 *             o
  ---------------------------------------------------------------------------------------------
      7    -381.46750757   -7.73e-08 *    8.76e-05 *    2.37e-05 o    2.18e-03      5.81e-04 o  ~
  ---------------------------------------------------------------------------------------------


  **** Optimization is complete! (in 7 steps) ****

  ==> Optimization Summary <==

  Measures of convergence in internal coordinates in au.
  --------------------------------------------------------------------------------------------------------------- ~
   Step         Total Energy             Delta E       MAX Force       RMS Force        MAX Disp        RMS Disp  ~
  --------------------------------------------------------------------------------------------------------------- ~
      1    -381.461679199175   -381.461679199175      0.01298999      0.00230986      0.32759343      0.05388183  ~
      2    -381.465625780361     -0.003946581186      0.01530167      0.00222650      0.26621714      0.04085564  ~
      3    -381.466679339731     -0.001053559370      0.02304586      0.00267949      0.05288998      0.01100682  ~
      4    -381.467479224630     -0.000799884900      0.00297745      0.00040504      0.01602052      0.00426138  ~
      5    -381.467504531791     -0.000025307161      0.00085465      0.00014151      0.00382153      0.00124033  ~
      6    -381.467507497414     -0.000002965622      0.00020702      0.00003380      0.00174875      0.00044027  ~
      7    -381.467507574690     -0.000000077276      0.00008764      0.00002371      0.00218325      0.00058129  ~
  --------------------------------------------------------------------------------------------------------------- ~

	Writing optimization data to binary file.
	Final energy is   -381.4675075746897
	Final (previous) structure:
	Cartesian Geometry (in Angstrom)
	    C    -0.0106702594   0.0032993385  -0.1726493771
	    C     0.0457606835   1.2244980363   0.5287392010
	    C     0.0509340006   1.2212701019   1.9187893690
	    C     0.0014806805   0.0085764083   2.6149464424
	    C    -0.0586874849  -1.2052819394   1.9229132959
	    C    -0.0704906455  -1.2150280345   0.5322181329
	    C    -0.0053907504  -0.0070018769  -1.6338318421
	    H     0.0362646089   2.1695033396  -0.0075269448
	    H     0.0807748743   2.1609386860   2.4606287278
	    H     0.0084673352   0.0102875712   3.7006544237
	    H    -0.0858524547  -2.1432037118   2.4679920675
	    H    -0.0780346820  -2.1573723656  -0.0063751070
	    N    -0.6113327874  -1.0055088165  -2.2945892883
	    N     0.6988663486   0.8982981708  -2.3053960240
	    H     0.6670649046   0.9772285301  -3.3153663406
	    H     1.3566620660   1.4945916943  -1.8189715916
	    H    -1.4969194445  -1.3484598233  -1.9397453384
	    H    -0.5165849936  -1.0730643090  -3.3031708062
	Saving final (previous) structure.
	Removing binary optimization data file.
			--------------------------
			 OPTKING Finished Execution 
			--------------------------

    Final optimized geometry and variables:
    Molecular point group: c1
    Full point group: C1

    Geometry (in Angstrom), charge = 1, multiplicity = 1:

    C           -0.010670259407     0.003299338507    -0.172649377072
    C            0.045760683539     1.224498036269     0.528739200987
    C            0.050934000562     1.221270101914     1.918789368963
    C            0.001480680504     0.008576408301     2.614946442363
    C           -0.058687484867    -1.205281939359     1.922913295916
    C           -0.070490645462    -1.215028034489     0.532218132882
    C           -0.005390750422    -0.007001876865    -1.633831842112
    H            0.036264608936     2.169503339574    -0.007526944820
    H            0.080774874335     2.160938686045     2.460628727802
    H            0.008467335178     0.010287571229     3.700654423699
    H           -0.085852454681    -2.143203711839     2.467992067521
    H           -0.078034682022    -2.157372365633    -0.006375107030
    N           -0.611332787375    -1.005508816498    -2.294589288273
    N            0.698866348613     0.898298170769    -2.305396024025
    H            0.667064904614     0.977228530062    -3.315366340553
    H            1.356662065997     1.494591694348    -1.818971591587
    H           -1.496919444458    -1.348459823317    -1.939745338430
    H           -0.516584993583    -1.073064309017    -3.303170806229

	Removing binary optimization data file.
	Cleaning optimization helper files.


Properties will be evaluated at   0.000000,   0.000000,   0.000000 [a0]
OEProp: No title given, name of density matrix used for the following properties is 'SCF density'
  Nuclear Dipole Moment: [e a0]
     X:     0.5711      Y:    -0.9034      Z:     0.5763

  Electronic Dipole Moment: [e a0]
     X:    -0.6323      Y:     1.0587      Z:    -2.8220

  Dipole Moment: [e a0]
     X:    -0.0612      Y:     0.1553      Z:    -2.2457     Total:     2.2519

  Dipole Moment: [D]
     X:    -0.1555      Y:     0.3948      Z:    -5.7081     Total:     5.7238

  Quadrupole Moment: [D A]
    XX:   -48.6350     YY:   -39.0862     ZZ:   -12.9264
    XY:     6.3912     XZ:     0.2399     YZ:    -0.5216

  Traceless Quadrupole Moment: [D A]
    XX:   -15.0858     YY:    -5.5370     ZZ:    20.6228
    XY:     6.3912     XZ:     0.2399     YZ:    -0.5216

  Mulliken Charges: (a.u.)
   Center  Symbol    Alpha    Beta     Spin     Total
       1     C     2.95716  2.95716  0.00000  0.08568
       2     C     3.08377  3.08377  0.00000 -0.16753
       3     C     3.06264  3.06264  0.00000 -0.12527
       4     C     3.05084  3.05084  0.00000 -0.10167
       5     C     3.06263  3.06263  0.00000 -0.12525
       6     C     3.07722  3.07722  0.00000 -0.15445
       7     C     2.73455  2.73455  0.00000  0.53090
       8     H     0.41475  0.41475  0.00000  0.17049
       9     H     0.40538  0.40538  0.00000  0.18924
      10     H     0.40348  0.40348  0.00000  0.19304
      11     H     0.40512  0.40512  0.00000  0.18976
      12     H     0.40980  0.40980  0.00000  0.18040
      13     N     3.85979  3.85979  0.00000 -0.71957
      14     N     3.85708  3.85708  0.00000 -0.71417
      15     H     0.30541  0.30541  0.00000  0.38917
      16     H     0.29941  0.29941  0.00000  0.40119
      17     H     0.30131  0.30131  0.00000  0.39738
      18     H     0.30967  0.30967  0.00000  0.38065

   Total alpha = 32.00000, Total beta = 32.00000, Total charge =  1.00000


    Psi4 stopped on: Saturday, 29 September 2018 08:34PM
    Psi4 wall time for execution: 0:03:19.04

*** Psi4 exiting successfully. Buy a developer a beer!
