
    -----------------------------------------------------------------------
          Psi4: An Open-Source Ab Initio Electronic Structure Package
                               Psi4 1.2.1 release

                         Git: Rev {HEAD} 406f4de 


    R. M. Parrish, L. A. Burns, D. G. A. Smith, A. C. Simmonett,
    A. E. DePrince III, E. G. Hohenstein, U. Bozkaya, A. Yu. Sokolov,
    R. Di Remigio, R. M. Richard, J. F. Gonthier, A. M. James,
    H. R. McAlexander, A. Kumar, M. Saitow, X. Wang, B. P. Pritchard,
    P. Verma, H. F. Schaefer III, K. Patkowski, R. A. King, E. F. Valeev,
    F. A. Evangelista, J. M. Turney, T. D. Crawford, and C. D. Sherrill,
    J. Chem. Theory Comput. 13(7) pp 3185--3197 (2017).
    (doi: 10.1021/acs.jctc.7b00174)


                         Additional Contributions by
    P. Kraus, H. Kruse, M. H. Lechner, M. C. Schieber, and R. A. Shaw

    -----------------------------------------------------------------------


    Psi4 started on: Saturday, 29 September 2018 04:49PM

    Process ID: 4626
    Host:       loro.prib.upf.edu
    PSIDATADIR: /shared/joao/test_parameterize/miniconda3/share/psi4
    Memory:     500.0 MiB
    Threads:    1
    
  ==> Input File <==

--------------------------------------------------------------------------
set_num_threads(1)
set_memory('5348 MB')

set { scf_mem_safety_factor 0.7 }

set { reference rks }
set { basis cc-pVDZ }

molecule MOL {
    0 1
    noreorient
    nocom
    symmetry c1
    O    1.141000   0.017000   0.083000
    C    2.558000   0.086000  -0.005000
    C    3.192000  -0.789000   1.067000
    O    2.786440  -2.141677   0.896253
    H    0.789000   0.590000  -0.620000
    H    2.874000   1.128000   0.115000
    H    2.871000  -0.243000  -1.001000
    H    2.894645  -0.448339   2.063728
    H    4.284873  -0.733392   1.008574
    H    3.217714  -2.652726   1.603159
}

set optking { frozen_dihedral = (" 1 2 3 4 ") }

energy, wfn = energy('B3LYP-D3', return_wfn=True)

import os
os.chdir(os.environ['HTMD_PSI4_WORKDIR'])

oeprop(wfn, 'DIPOLE', 'QUADRUPOLE', 'MULLIKEN_CHARGES')

with open('psi4out.xyz', 'w') as f:
    f.write('10 ' )
    f.write('%.12f\n' % energy)
    f.write(MOL.save_string_xyz())
--------------------------------------------------------------------------
  Threads set to 1 by Python driver.

  Memory set to   4.981 GiB by Python driver.

*** tstart() called on loro.prib.upf.edu
*** at Sat Sep 29 16:49:50 2018

   => Loading Basis Set <=

    Name: CC-PVDZ
    Role: ORBITAL
    Keyword: BASIS
    atoms 1, 4 entry O          line   198 file /shared/joao/test_parameterize/miniconda3/share/psi4/basis/cc-pvdz.gbs 
    atoms 2-3  entry C          line   138 file /shared/joao/test_parameterize/miniconda3/share/psi4/basis/cc-pvdz.gbs 
    atoms 5-10 entry H          line    22 file /shared/joao/test_parameterize/miniconda3/share/psi4/basis/cc-pvdz.gbs 


         ---------------------------------------------------------
                                   SCF
            by Justin Turney, Rob Parrish, Andy Simmonett
                             and Daniel Smith
                              RKS Reference
                        1 Threads,   5100 MiB Core
         ---------------------------------------------------------

  ==> Geometry <==

    Molecular point group: c1
    Full point group: C1

    Geometry (in Angstrom), charge = 0, multiplicity = 1:

       Center              X                  Y                   Z               Mass       
    ------------   -----------------  -----------------  -----------------  -----------------
         O            1.141000000000     0.017000000000     0.083000000000    15.994914619560
         C            2.558000000000     0.086000000000    -0.005000000000    12.000000000000
         C            3.192000000000    -0.789000000000     1.067000000000    12.000000000000
         O            2.786440000000    -2.141677000000     0.896253000000    15.994914619560
         H            0.789000000000     0.590000000000    -0.620000000000     1.007825032070
         H            2.874000000000     1.128000000000     0.115000000000     1.007825032070
         H            2.871000000000    -0.243000000000    -1.001000000000     1.007825032070
         H            2.894645000000    -0.448339000000     2.063728000000     1.007825032070
         H            4.284873000000    -0.733392000000     1.008574000000     1.007825032070
         H            3.217714000000    -2.652726000000     1.603159000000     1.007825032070

  Running in c1 symmetry.

  Rotational constants: A =      0.32327  B =      0.03497  C =      0.03245 [cm^-1]
  Rotational constants: A =   9691.29551  B =   1048.26059  C =    972.97571 [MHz]
  Nuclear repulsion =  131.828641667042461

  Charge       = 0
  Multiplicity = 1
  Electrons    = 34
  Nalpha       = 17
  Nbeta        = 17

  ==> Algorithm <==

  SCF Algorithm Type is DF.
  DIIS enabled.
  MOM disabled.
  Fractional occupation disabled.
  Guess Type is SAD.
  Energy threshold   = 1.00e-06
  Density threshold  = 1.00e-06
  Integral threshold = 0.00e+00

  ==> Primary Basis <==

  Basis Set: CC-PVDZ
    Blend: CC-PVDZ
    Number of shells: 42
    Number of basis function: 86
    Number of Cartesian functions: 90
    Spherical Harmonics?: true
    Max angular momentum: 2

  ==> DFT Potential <==

   => Composite Functional: B3LYP-D3ZERO <= 

    B3LYP-d3zero Hyb-GGA Exchange-Correlation Functional

    P. J. Stephens, F. J. Devlin, C. F. Chabalowski, and M. J. Frisch, J. Phys. Chem. 98, 11623 (1994)

    Deriv               =              1
    GGA                 =           TRUE
    Meta                =          FALSE

    Exchange Hybrid     =           TRUE
    MP2 Hybrid          =          FALSE

   => Exchange Functionals <=

    0.0800   Slater exchange
    0.7200         Becke 88

   => Exact (HF) Exchange <=

    0.2000               HF 

   => Correlation Functionals <=

    0.1900   Vosko, Wilk & Nusair (VWN5_RPA)
    0.8100   Lee, Yang & Parr

   => Molecular Quadrature <=

    Radial Scheme       =       TREUTLER
    Pruning Scheme      =           FLAT
    Nuclear Scheme      =       TREUTLER

    BS radius alpha     =              1
    Pruning alpha       =              1
    Radial Points       =             75
    Spherical Points    =            302
    Total Points        =         222569
    Total Blocks        =           1736
    Max Points          =            256
    Max Functions       =             86

   => -D3ZERO: Empirical Dispersion <=

    Grimme's -D3 (zero-damping) Dispersion Correction
    Grimme S.; Antony J.; Ehrlich S.; Krieg H. (2010), J. Chem. Phys., 132: 154104

        S6 =   1.000000E+00
        S8 =   1.703000E+00
       SR6 =   1.261000E+00
       SR8 =   1.000000E+00
    ALPHA6 =   1.400000E+01

   => Loading Basis Set <=

    Name: (CC-PVDZ AUX)
    Role: JKFIT
    Keyword: DF_BASIS_SCF
    atoms 1, 4 entry O          line   221 file /shared/joao/test_parameterize/miniconda3/share/psi4/basis/cc-pvdz-jkfit.gbs 
    atoms 2-3  entry C          line   121 file /shared/joao/test_parameterize/miniconda3/share/psi4/basis/cc-pvdz-jkfit.gbs 
    atoms 5-10 entry H          line    51 file /shared/joao/test_parameterize/miniconda3/share/psi4/basis/cc-pvdz-jkfit.gbs 

  ==> Pre-Iterations <==

   -------------------------------------------------------
    Irrep   Nso     Nmo     Nalpha   Nbeta   Ndocc  Nsocc
   -------------------------------------------------------
     A         86      86       0       0       0       0
   -------------------------------------------------------
    Total      86      86      17      17      17       0
   -------------------------------------------------------

  ==> Integral Setup <==

  DFHelper Memory: AOs need 0.030 [GiB]; user supplied 3.486 [GiB]. Using in-core AOs.

  ==> MemDFJK: Density-Fitted J/K Matrices <==

    J tasked:                   Yes
    K tasked:                   Yes
    wK tasked:                   No
    OpenMP threads:               1
    Memory (MB):               3570
    Algorithm:                 Core
    Schwarz Cutoff:           1E-12
    Mask sparsity (%):       0.0000
    Fitting Condition:        1E-12

   => Auxiliary Basis Set <=

  Basis Set: (CC-PVDZ AUX)
    Blend: CC-PVDZ-JKFIT
    Number of shells: 150
    Number of basis function: 418
    Number of Cartesian functions: 474
    Spherical Harmonics?: true
    Max angular momentum: 3

  Minimum eigenvalue in the overlap matrix is 5.1681440162E-03.
  Using Symmetric Orthogonalization.

  SCF Guess: Superposition of Atomic Densities via on-the-fly atomic UHF.

  ==> Iterations <==

                           Total Energy        Delta E     RMS |[F,P]|

   @DF-RKS iter   0:  -230.80426256801326   -2.30804e+02   3.90707e-02 
   @DF-RKS iter   1:  -230.12793512052383    6.76327e-01   6.49047e-03 
   @DF-RKS iter   2:  -230.00135073753069    1.26584e-01   9.46681e-03 DIIS
   @DF-RKS iter   3:  -230.25411165696548   -2.52761e-01   6.87379e-04 DIIS
   @DF-RKS iter   4:  -230.25527465633743   -1.16300e-03   3.47847e-04 DIIS
   @DF-RKS iter   5:  -230.25569332943496   -4.18673e-04   5.64123e-05 DIIS
   @DF-RKS iter   6:  -230.25570416544764   -1.08360e-05   5.90010e-06 DIIS
   @DF-RKS iter   7:  -230.25570427322157   -1.07774e-07   2.20556e-06 DIIS
   @DF-RKS iter   8:  -230.25570428818028   -1.49587e-08   8.63215e-07 DIIS

  ==> Post-Iterations <==

    Orbital Energies [Eh]
    ---------------------

    Doubly Occupied:                                                      

       1A    -19.124749     2A    -19.124711     3A    -10.227412  
       4A    -10.227218     5A     -1.016451     6A     -0.998879  
       7A     -0.733840     8A     -0.602016     9A     -0.520146  
      10A     -0.500991    11A     -0.438741    12A     -0.416271  
      13A     -0.403738    14A     -0.340265    15A     -0.318358  
      16A     -0.261226    17A     -0.257272  

    Virtual:                                                              

      18A      0.045349    19A      0.069518    20A      0.096646  
      21A      0.120570    22A      0.132730    23A      0.147163  
      24A      0.199614    25A      0.218187    26A      0.231023  
      27A      0.464145    28A      0.470128    29A      0.502317  
      30A      0.513219    31A      0.543357    32A      0.558121  
      33A      0.609562    34A      0.625663    35A      0.641152  
      36A      0.658348    37A      0.663235    38A      0.695993  
      39A      0.887734    40A      0.913237    41A      0.915049  
      42A      0.990290    43A      0.998737    44A      1.039407  
      45A      1.082754    46A      1.155910    47A      1.202131  
      48A      1.235008    49A      1.278008    50A      1.316695  
      51A      1.327026    52A      1.385494    53A      1.495428  
      54A      1.514887    55A      1.607709    56A      1.611930  
      57A      1.618870    58A      1.630600    59A      1.647902  
      60A      1.705012    61A      1.715684    62A      1.739155  
      63A      1.885965    64A      1.886702    65A      1.933446  
      66A      1.983587    67A      2.011177    68A      2.040375  
      69A      2.150731    70A      2.151614    71A      2.239249  
      72A      2.275725    73A      2.406669    74A      2.413559  
      75A      2.518231    76A      2.529125    77A      2.923437  
      78A      2.954526    79A      2.992227    80A      3.036904  
      81A      3.066531    82A      3.153204    83A      3.196342  
      84A      3.226135    85A      3.656423    86A      3.740103  

    Final Occupation by Irrep:
              A 
    DOCC [    17 ]

  Energy converged.

  @DF-RKS Final Energy:  -230.25570428818028

   => Energetics <=

    Nuclear Repulsion Energy =            131.8286416670424614
    One-Electron Energy =                -575.5135791612640332
    Two-Electron Energy =                 237.9696683419414285
    DFT Exchange-Correlation Energy =     -24.5361010059001430
    Empirical Dispersion Energy =          -0.0043341300000000
    VV10 Nonlocal Energy =                  0.0000000000000000
    Total Energy =                       -230.2557042881802829



Properties will be evaluated at   0.000000,   0.000000,   0.000000 [a0]

Properties computed using the SCF density matrix

  Nuclear Dipole Moment: [e a0]
     X:   156.5652      Y:   -44.5501      Z:    32.8349

  Electronic Dipole Moment: [e a0]
     X:  -155.9503      Y:    45.0308      Z:   -32.8070

  Dipole Moment: [e a0]
     X:     0.6150      Y:     0.4807      Z:     0.0279     Total:     0.7811

  Dipole Moment: [D]
     X:     1.5631      Y:     1.2219      Z:     0.0708     Total:     1.9853


*** tstop() called on loro.prib.upf.edu at Sat Sep 29 16:50:05 2018
Module time:
	user time   =      12.67 seconds =       0.21 minutes
	system time =       0.20 seconds =       0.00 minutes
	total time  =         15 seconds =       0.25 minutes
Total time:
	user time   =      12.67 seconds =       0.21 minutes
	system time =       0.20 seconds =       0.00 minutes
	total time  =         15 seconds =       0.25 minutes


Properties will be evaluated at   0.000000,   0.000000,   0.000000 [a0]
OEProp: No title given, name of density matrix used for the following properties is 'SCF density'
  Nuclear Dipole Moment: [e a0]
     X:   156.5652      Y:   -44.5501      Z:    32.8349

  Electronic Dipole Moment: [e a0]
     X:  -155.9503      Y:    45.0308      Z:   -32.8070

  Dipole Moment: [e a0]
     X:     0.6150      Y:     0.4807      Z:     0.0279     Total:     0.7811

  Dipole Moment: [D]
     X:     1.5631      Y:     1.2219      Z:     0.0708     Total:     1.9853

  Quadrupole Moment: [D A]
    XX:   -16.5441     YY:   -24.0612     ZZ:   -21.0268
    XY:    -0.8894     XZ:     4.2262     YZ:    -3.8883

  Traceless Quadrupole Moment: [D A]
    XX:     3.9999     YY:    -3.5172     ZZ:    -0.4828
    XY:    -0.8894     XZ:     4.2262     YZ:    -3.8883

  Mulliken Charges: (a.u.)
   Center  Symbol    Alpha    Beta     Spin     Total
       1     O     4.13464  4.13464  0.00000 -0.26928
       2     C     2.93250  2.93250  0.00000  0.13499
       3     C     2.93267  2.93267  0.00000  0.13466
       4     O     4.13486  4.13486  0.00000 -0.26971
       5     H     0.43067  0.43067  0.00000  0.13867
       6     H     0.50364  0.50364  0.00000 -0.00728
       7     H     0.49849  0.49849  0.00000  0.00302
       8     H     0.49838  0.49838  0.00000  0.00323
       9     H     0.50353  0.50353  0.00000 -0.00707
      10     H     0.43061  0.43061  0.00000  0.13878

   Total alpha = 17.00000, Total beta = 17.00000, Total charge = -0.00000


    Psi4 stopped on: Saturday, 29 September 2018 04:50PM
    Psi4 wall time for execution: 0:00:15.97

*** Psi4 exiting successfully. Buy a developer a beer!
