
    -----------------------------------------------------------------------
          Psi4: An Open-Source Ab Initio Electronic Structure Package
                               Psi4 1.2.1 release

                         Git: Rev {HEAD} 406f4de 


    R. M. Parrish, L. A. Burns, D. G. A. Smith, A. C. Simmonett,
    A. E. DePrince III, E. G. Hohenstein, U. Bozkaya, A. Yu. Sokolov,
    R. Di Remigio, R. M. Richard, J. F. Gonthier, A. M. James,
    H. R. McAlexander, A. Kumar, M. Saitow, X. Wang, B. P. Pritchard,
    P. Verma, H. F. Schaefer III, K. Patkowski, R. A. King, E. F. Valeev,
    F. A. Evangelista, J. M. Turney, T. D. Crawford, and C. D. Sherrill,
    J. Chem. Theory Comput. 13(7) pp 3185--3197 (2017).
    (doi: 10.1021/acs.jctc.7b00174)


                         Additional Contributions by
    P. Kraus, H. Kruse, M. H. Lechner, M. C. Schieber, and R. A. Shaw

    -----------------------------------------------------------------------


    Psi4 started on: Saturday, 29 September 2018 04:50PM

    Process ID: 5381
    Host:       loro.prib.upf.edu
    PSIDATADIR: /shared/joao/test_parameterize/miniconda3/share/psi4
    Memory:     500.0 MiB
    Threads:    1
    
  ==> Input File <==

--------------------------------------------------------------------------
set_num_threads(1)
set_memory('5348 MB')

set { scf_mem_safety_factor 0.7 }

set { reference rks }
set { basis cc-pVDZ }

molecule MOL {
    0 1
    noreorient
    nocom
    symmetry c1
    O    1.141000   0.017000   0.083000
    C    2.558000   0.086000  -0.005000
    C    3.192000  -0.789000   1.067000
    O    4.610000  -0.719000   0.979000
    H    0.789000   0.590000  -0.620000
    H    2.874000   1.128000   0.115000
    H    2.871000  -0.243000  -1.001000
    H    2.876000  -1.830000   0.947000
    H    2.879000  -0.459000   2.064000
    H    4.823910   0.164825   0.632616
}

set optking { frozen_dihedral = (" 2 3 4 10 ") }

energy, wfn = energy('B3LYP-D3', return_wfn=True)

import os
os.chdir(os.environ['HTMD_PSI4_WORKDIR'])

oeprop(wfn, 'DIPOLE', 'QUADRUPOLE', 'MULLIKEN_CHARGES')

with open('psi4out.xyz', 'w') as f:
    f.write('10 ' )
    f.write('%.12f\n' % energy)
    f.write(MOL.save_string_xyz())
--------------------------------------------------------------------------
  Threads set to 1 by Python driver.

  Memory set to   4.981 GiB by Python driver.

*** tstart() called on loro.prib.upf.edu
*** at Sat Sep 29 16:50:24 2018

   => Loading Basis Set <=

    Name: CC-PVDZ
    Role: ORBITAL
    Keyword: BASIS
    atoms 1, 4 entry O          line   198 file /shared/joao/test_parameterize/miniconda3/share/psi4/basis/cc-pvdz.gbs 
    atoms 2-3  entry C          line   138 file /shared/joao/test_parameterize/miniconda3/share/psi4/basis/cc-pvdz.gbs 
    atoms 5-10 entry H          line    22 file /shared/joao/test_parameterize/miniconda3/share/psi4/basis/cc-pvdz.gbs 


         ---------------------------------------------------------
                                   SCF
            by Justin Turney, Rob Parrish, Andy Simmonett
                             and Daniel Smith
                              RKS Reference
                        1 Threads,   5100 MiB Core
         ---------------------------------------------------------

  ==> Geometry <==

    Molecular point group: c1
    Full point group: C1

    Geometry (in Angstrom), charge = 0, multiplicity = 1:

       Center              X                  Y                   Z               Mass       
    ------------   -----------------  -----------------  -----------------  -----------------
         O            1.141000000000     0.017000000000     0.083000000000    15.994914619560
         C            2.558000000000     0.086000000000    -0.005000000000    12.000000000000
         C            3.192000000000    -0.789000000000     1.067000000000    12.000000000000
         O            4.610000000000    -0.719000000000     0.979000000000    15.994914619560
         H            0.789000000000     0.590000000000    -0.620000000000     1.007825032070
         H            2.874000000000     1.128000000000     0.115000000000     1.007825032070
         H            2.871000000000    -0.243000000000    -1.001000000000     1.007825032070
         H            2.876000000000    -1.830000000000     0.947000000000     1.007825032070
         H            2.879000000000    -0.459000000000     2.064000000000     1.007825032070
         H            4.823910000000     0.164825000000     0.632616000000     1.007825032070

  Running in c1 symmetry.

  Rotational constants: A =      0.81904  B =      0.02558  C =      0.02505 [cm^-1]
  Rotational constants: A =  24554.16171  B =    766.93859  C =    751.11119 [MHz]
  Nuclear repulsion =  130.073176655380138

  Charge       = 0
  Multiplicity = 1
  Electrons    = 34
  Nalpha       = 17
  Nbeta        = 17

  ==> Algorithm <==

  SCF Algorithm Type is DF.
  DIIS enabled.
  MOM disabled.
  Fractional occupation disabled.
  Guess Type is SAD.
  Energy threshold   = 1.00e-06
  Density threshold  = 1.00e-06
  Integral threshold = 0.00e+00

  ==> Primary Basis <==

  Basis Set: CC-PVDZ
    Blend: CC-PVDZ
    Number of shells: 42
    Number of basis function: 86
    Number of Cartesian functions: 90
    Spherical Harmonics?: true
    Max angular momentum: 2

  ==> DFT Potential <==

   => Composite Functional: B3LYP-D3ZERO <= 

    B3LYP-d3zero Hyb-GGA Exchange-Correlation Functional

    P. J. Stephens, F. J. Devlin, C. F. Chabalowski, and M. J. Frisch, J. Phys. Chem. 98, 11623 (1994)

    Deriv               =              1
    GGA                 =           TRUE
    Meta                =          FALSE

    Exchange Hybrid     =           TRUE
    MP2 Hybrid          =          FALSE

   => Exchange Functionals <=

    0.0800   Slater exchange
    0.7200         Becke 88

   => Exact (HF) Exchange <=

    0.2000               HF 

   => Correlation Functionals <=

    0.1900   Vosko, Wilk & Nusair (VWN5_RPA)
    0.8100   Lee, Yang & Parr

   => Molecular Quadrature <=

    Radial Scheme       =       TREUTLER
    Pruning Scheme      =           FLAT
    Nuclear Scheme      =       TREUTLER

    BS radius alpha     =              1
    Pruning alpha       =              1
    Radial Points       =             75
    Spherical Points    =            302
    Total Points        =         222531
    Total Blocks        =           1743
    Max Points          =            256
    Max Functions       =             86

   => -D3ZERO: Empirical Dispersion <=

    Grimme's -D3 (zero-damping) Dispersion Correction
    Grimme S.; Antony J.; Ehrlich S.; Krieg H. (2010), J. Chem. Phys., 132: 154104

        S6 =   1.000000E+00
        S8 =   1.703000E+00
       SR6 =   1.261000E+00
       SR8 =   1.000000E+00
    ALPHA6 =   1.400000E+01

   => Loading Basis Set <=

    Name: (CC-PVDZ AUX)
    Role: JKFIT
    Keyword: DF_BASIS_SCF
    atoms 1, 4 entry O          line   221 file /shared/joao/test_parameterize/miniconda3/share/psi4/basis/cc-pvdz-jkfit.gbs 
    atoms 2-3  entry C          line   121 file /shared/joao/test_parameterize/miniconda3/share/psi4/basis/cc-pvdz-jkfit.gbs 
    atoms 5-10 entry H          line    51 file /shared/joao/test_parameterize/miniconda3/share/psi4/basis/cc-pvdz-jkfit.gbs 

  ==> Pre-Iterations <==

   -------------------------------------------------------
    Irrep   Nso     Nmo     Nalpha   Nbeta   Ndocc  Nsocc
   -------------------------------------------------------
     A         86      86       0       0       0       0
   -------------------------------------------------------
    Total      86      86      17      17      17       0
   -------------------------------------------------------

  ==> Integral Setup <==

  DFHelper Memory: AOs need 0.030 [GiB]; user supplied 3.486 [GiB]. Using in-core AOs.

  ==> MemDFJK: Density-Fitted J/K Matrices <==

    J tasked:                   Yes
    K tasked:                   Yes
    wK tasked:                   No
    OpenMP threads:               1
    Memory (MB):               3570
    Algorithm:                 Core
    Schwarz Cutoff:           1E-12
    Mask sparsity (%):       0.2704
    Fitting Condition:        1E-12

   => Auxiliary Basis Set <=

  Basis Set: (CC-PVDZ AUX)
    Blend: CC-PVDZ-JKFIT
    Number of shells: 150
    Number of basis function: 418
    Number of Cartesian functions: 474
    Spherical Harmonics?: true
    Max angular momentum: 3

  Minimum eigenvalue in the overlap matrix is 5.0284634516E-03.
  Using Symmetric Orthogonalization.

  SCF Guess: Superposition of Atomic Densities via on-the-fly atomic UHF.

  ==> Iterations <==

                           Total Energy        Delta E     RMS |[F,P]|

   @DF-RKS iter   0:  -231.05200522343065   -2.31052e+02   4.14600e-02 
   @DF-RKS iter   1:  -230.19112456915235    8.60881e-01   4.68883e-03 
   @DF-RKS iter   2:  -230.15890508914919    3.22195e-02   6.03978e-03 DIIS
   @DF-RKS iter   3:  -230.25557207539364   -9.66670e-02   6.91783e-04 DIIS
   @DF-RKS iter   4:  -230.25686340862345   -1.29133e-03   2.11498e-04 DIIS
   @DF-RKS iter   5:  -230.25702011745463   -1.56709e-04   4.82571e-05 DIIS
   @DF-RKS iter   6:  -230.25702820160097   -8.08415e-06   6.05960e-06 DIIS
   @DF-RKS iter   7:  -230.25702826844974   -6.68488e-08   3.93294e-06 DIIS
   @DF-RKS iter   8:  -230.25702830893803   -4.04883e-08   5.06153e-07 DIIS

  ==> Post-Iterations <==

    Orbital Energies [Eh]
    ---------------------

    Doubly Occupied:                                                      

       1A    -19.138249     2A    -19.133751     3A    -10.235187  
       4A    -10.226986     5A     -1.024824     6A     -1.012152  
       7A     -0.733104     8A     -0.623942     9A     -0.518159  
      10A     -0.491917    11A     -0.468617    12A     -0.425365  
      13A     -0.399000    14A     -0.352693    15A     -0.323929  
      16A     -0.271997    17A     -0.266662  

    Virtual:                                                              

      18A      0.040981    19A      0.052016    20A      0.100131  
      21A      0.111117    22A      0.125432    23A      0.164622  
      24A      0.199128    25A      0.230547    26A      0.243873  
      27A      0.432908    28A      0.439688    29A      0.496191  
      30A      0.525072    31A      0.552971    32A      0.575119  
      33A      0.599520    34A      0.621478    35A      0.635542  
      36A      0.652584    37A      0.659029    38A      0.673966  
      39A      0.874993    40A      0.885687    41A      0.908933  
      42A      0.973176    43A      1.023846    44A      1.050250  
      45A      1.055261    46A      1.155496    47A      1.164684  
      48A      1.206477    49A      1.238085    50A      1.309441  
      51A      1.337748    52A      1.382984    53A      1.511386  
      54A      1.515871    55A      1.589576    56A      1.621609  
      57A      1.644243    58A      1.652641    59A      1.660475  
      60A      1.678147    61A      1.728784    62A      1.775148  
      63A      1.805242    64A      1.859883    65A      1.903656  
      66A      1.980636    67A      2.033841    68A      2.053634  
      69A      2.121259    70A      2.131633    71A      2.248107  
      72A      2.285221    73A      2.406009    74A      2.440353  
      75A      2.473791    76A      2.513505    77A      2.923362  
      78A      2.933225    79A      3.003986    80A      3.008466  
      81A      3.078899    82A      3.086641    83A      3.184349  
      84A      3.255772    85A      3.667813    86A      3.691349  

    Final Occupation by Irrep:
              A 
    DOCC [    17 ]

  Energy converged.

  @DF-RKS Final Energy:  -230.25702830893803

   => Energetics <=

    Nuclear Repulsion Energy =            130.0731766553801378
    One-Electron Energy =                -571.7347064681478059
    Two-Electron Energy =                 235.9473162786903799
    DFT Exchange-Correlation Energy =     -24.5381723248607742
    Empirical Dispersion Energy =          -0.0046424500000000
    VV10 Nonlocal Energy =                  0.0000000000000000
    Total Energy =                       -230.2570283089380325



Properties will be evaluated at   0.000000,   0.000000,   0.000000 [a0]

Properties computed using the SCF density matrix

  Nuclear Dipole Moment: [e a0]
     X:   184.4768      Y:   -19.8103      Z:    32.1360

  Electronic Dipole Moment: [e a0]
     X:  -184.6219      Y:    20.6097      Z:   -32.7493

  Dipole Moment: [e a0]
     X:    -0.1451      Y:     0.7993      Z:    -0.6133     Total:     1.0179

  Dipole Moment: [D]
     X:    -0.3687      Y:     2.0317      Z:    -1.5589     Total:     2.5873


*** tstop() called on loro.prib.upf.edu at Sat Sep 29 16:50:40 2018
Module time:
	user time   =      12.94 seconds =       0.22 minutes
	system time =       0.20 seconds =       0.00 minutes
	total time  =         16 seconds =       0.27 minutes
Total time:
	user time   =      12.94 seconds =       0.22 minutes
	system time =       0.20 seconds =       0.00 minutes
	total time  =         16 seconds =       0.27 minutes


Properties will be evaluated at   0.000000,   0.000000,   0.000000 [a0]
OEProp: No title given, name of density matrix used for the following properties is 'SCF density'
  Nuclear Dipole Moment: [e a0]
     X:   184.4768      Y:   -19.8103      Z:    32.1360

  Electronic Dipole Moment: [e a0]
     X:  -184.6219      Y:    20.6097      Z:   -32.7493

  Dipole Moment: [e a0]
     X:    -0.1451      Y:     0.7993      Z:    -0.6133     Total:     1.0179

  Dipole Moment: [D]
     X:    -0.3687      Y:     2.0317      Z:    -1.5589     Total:     2.5873

  Quadrupole Moment: [D A]
    XX:   -29.6067     YY:   -24.3404     ZZ:   -24.9143
    XY:     7.2612     XZ:    -3.7817     YZ:     0.1054

  Traceless Quadrupole Moment: [D A]
    XX:    -3.3196     YY:     1.9467     ZZ:     1.3728
    XY:     7.2612     XZ:    -3.7817     YZ:     0.1054

  Mulliken Charges: (a.u.)
   Center  Symbol    Alpha    Beta     Spin     Total
       1     O     4.13734  4.13734  0.00000 -0.27468
       2     C     2.95755  2.95755  0.00000  0.08489
       3     C     2.92120  2.92120  0.00000  0.15760
       4     O     4.13759  4.13759  0.00000 -0.27518
       5     H     0.42801  0.42801  0.00000  0.14398
       6     H     0.50411  0.50411  0.00000 -0.00822
       7     H     0.49803  0.49803  0.00000  0.00395
       8     H     0.48773  0.48773  0.00000  0.02454
       9     H     0.49590  0.49590  0.00000  0.00821
      10     H     0.43254  0.43254  0.00000  0.13492

   Total alpha = 17.00000, Total beta = 17.00000, Total charge =  0.00000


    Psi4 stopped on: Saturday, 29 September 2018 04:50PM
    Psi4 wall time for execution: 0:00:16.13

*** Psi4 exiting successfully. Buy a developer a beer!
