
    -----------------------------------------------------------------------
          Psi4: An Open-Source Ab Initio Electronic Structure Package
                               Psi4 1.2.1 release

                         Git: Rev {HEAD} 406f4de 


    R. M. Parrish, L. A. Burns, D. G. A. Smith, A. C. Simmonett,
    A. E. DePrince III, E. G. Hohenstein, U. Bozkaya, A. Yu. Sokolov,
    R. Di Remigio, R. M. Richard, J. F. Gonthier, A. M. James,
    H. R. McAlexander, A. Kumar, M. Saitow, X. Wang, B. P. Pritchard,
    P. Verma, H. F. Schaefer III, K. Patkowski, R. A. King, E. F. Valeev,
    F. A. Evangelista, J. M. Turney, T. D. Crawford, and C. D. Sherrill,
    J. Chem. Theory Comput. 13(7) pp 3185--3197 (2017).
    (doi: 10.1021/acs.jctc.7b00174)


                         Additional Contributions by
    P. Kraus, H. Kruse, M. H. Lechner, M. C. Schieber, and R. A. Shaw

    -----------------------------------------------------------------------


    Psi4 started on: Saturday, 29 September 2018 04:50PM

    Process ID: 4916
    Host:       loro.prib.upf.edu
    PSIDATADIR: /shared/joao/test_parameterize/miniconda3/share/psi4
    Memory:     500.0 MiB
    Threads:    1
    
  ==> Input File <==

--------------------------------------------------------------------------
set_num_threads(1)
set_memory('5348 MB')

set { scf_mem_safety_factor 0.7 }

set { reference rks }
set { basis cc-pVDZ }

molecule MOL {
    0 1
    noreorient
    nocom
    symmetry c1
    O    1.141000   0.017000   0.083000
    C    2.558000   0.086000  -0.005000
    C    3.192000  -0.789000   1.067000
    O    4.610000  -0.719000   0.979000
    H    0.789000   0.590000  -0.620000
    H    2.874000   1.128000   0.115000
    H    2.871000  -0.243000  -1.001000
    H    2.876000  -1.830000   0.947000
    H    2.879000  -0.459000   2.064000
    H    4.959724  -1.409398   1.568855
}

set optking { frozen_dihedral = (" 2 3 4 10 ") }

energy, wfn = energy('B3LYP-D3', return_wfn=True)

import os
os.chdir(os.environ['HTMD_PSI4_WORKDIR'])

oeprop(wfn, 'DIPOLE', 'QUADRUPOLE', 'MULLIKEN_CHARGES')

with open('psi4out.xyz', 'w') as f:
    f.write('10 ' )
    f.write('%.12f\n' % energy)
    f.write(MOL.save_string_xyz())
--------------------------------------------------------------------------
  Threads set to 1 by Python driver.

  Memory set to   4.981 GiB by Python driver.

*** tstart() called on loro.prib.upf.edu
*** at Sat Sep 29 16:50:06 2018

   => Loading Basis Set <=

    Name: CC-PVDZ
    Role: ORBITAL
    Keyword: BASIS
    atoms 1, 4 entry O          line   198 file /shared/joao/test_parameterize/miniconda3/share/psi4/basis/cc-pvdz.gbs 
    atoms 2-3  entry C          line   138 file /shared/joao/test_parameterize/miniconda3/share/psi4/basis/cc-pvdz.gbs 
    atoms 5-10 entry H          line    22 file /shared/joao/test_parameterize/miniconda3/share/psi4/basis/cc-pvdz.gbs 


         ---------------------------------------------------------
                                   SCF
            by Justin Turney, Rob Parrish, Andy Simmonett
                             and Daniel Smith
                              RKS Reference
                        1 Threads,   5100 MiB Core
         ---------------------------------------------------------

  ==> Geometry <==

    Molecular point group: c1
    Full point group: C1

    Geometry (in Angstrom), charge = 0, multiplicity = 1:

       Center              X                  Y                   Z               Mass       
    ------------   -----------------  -----------------  -----------------  -----------------
         O            1.141000000000     0.017000000000     0.083000000000    15.994914619560
         C            2.558000000000     0.086000000000    -0.005000000000    12.000000000000
         C            3.192000000000    -0.789000000000     1.067000000000    12.000000000000
         O            4.610000000000    -0.719000000000     0.979000000000    15.994914619560
         H            0.789000000000     0.590000000000    -0.620000000000     1.007825032070
         H            2.874000000000     1.128000000000     0.115000000000     1.007825032070
         H            2.871000000000    -0.243000000000    -1.001000000000     1.007825032070
         H            2.876000000000    -1.830000000000     0.947000000000     1.007825032070
         H            2.879000000000    -0.459000000000     2.064000000000     1.007825032070
         H            4.959724000000    -1.409398000000     1.568855000000     1.007825032070

  Running in c1 symmetry.

  Rotational constants: A =      0.82397  B =      0.02538  C =      0.02485 [cm^-1]
  Rotational constants: A =  24702.05111  B =    760.72914  C =    744.99219 [MHz]
  Nuclear repulsion =  129.444675270759006

  Charge       = 0
  Multiplicity = 1
  Electrons    = 34
  Nalpha       = 17
  Nbeta        = 17

  ==> Algorithm <==

  SCF Algorithm Type is DF.
  DIIS enabled.
  MOM disabled.
  Fractional occupation disabled.
  Guess Type is SAD.
  Energy threshold   = 1.00e-06
  Density threshold  = 1.00e-06
  Integral threshold = 0.00e+00

  ==> Primary Basis <==

  Basis Set: CC-PVDZ
    Blend: CC-PVDZ
    Number of shells: 42
    Number of basis function: 86
    Number of Cartesian functions: 90
    Spherical Harmonics?: true
    Max angular momentum: 2

  ==> DFT Potential <==

   => Composite Functional: B3LYP-D3ZERO <= 

    B3LYP-d3zero Hyb-GGA Exchange-Correlation Functional

    P. J. Stephens, F. J. Devlin, C. F. Chabalowski, and M. J. Frisch, J. Phys. Chem. 98, 11623 (1994)

    Deriv               =              1
    GGA                 =           TRUE
    Meta                =          FALSE

    Exchange Hybrid     =           TRUE
    MP2 Hybrid          =          FALSE

   => Exchange Functionals <=

    0.0800   Slater exchange
    0.7200         Becke 88

   => Exact (HF) Exchange <=

    0.2000               HF 

   => Correlation Functionals <=

    0.1900   Vosko, Wilk & Nusair (VWN5_RPA)
    0.8100   Lee, Yang & Parr

   => Molecular Quadrature <=

    Radial Scheme       =       TREUTLER
    Pruning Scheme      =           FLAT
    Nuclear Scheme      =       TREUTLER

    BS radius alpha     =              1
    Pruning alpha       =              1
    Radial Points       =             75
    Spherical Points    =            302
    Total Points        =         222569
    Total Blocks        =           1736
    Max Points          =            256
    Max Functions       =             86

   => -D3ZERO: Empirical Dispersion <=

    Grimme's -D3 (zero-damping) Dispersion Correction
    Grimme S.; Antony J.; Ehrlich S.; Krieg H. (2010), J. Chem. Phys., 132: 154104

        S6 =   1.000000E+00
        S8 =   1.703000E+00
       SR6 =   1.261000E+00
       SR8 =   1.000000E+00
    ALPHA6 =   1.400000E+01

   => Loading Basis Set <=

    Name: (CC-PVDZ AUX)
    Role: JKFIT
    Keyword: DF_BASIS_SCF
    atoms 1, 4 entry O          line   221 file /shared/joao/test_parameterize/miniconda3/share/psi4/basis/cc-pvdz-jkfit.gbs 
    atoms 2-3  entry C          line   121 file /shared/joao/test_parameterize/miniconda3/share/psi4/basis/cc-pvdz-jkfit.gbs 
    atoms 5-10 entry H          line    51 file /shared/joao/test_parameterize/miniconda3/share/psi4/basis/cc-pvdz-jkfit.gbs 

  ==> Pre-Iterations <==

   -------------------------------------------------------
    Irrep   Nso     Nmo     Nalpha   Nbeta   Ndocc  Nsocc
   -------------------------------------------------------
     A         86      86       0       0       0       0
   -------------------------------------------------------
    Total      86      86      17      17      17       0
   -------------------------------------------------------

  ==> Integral Setup <==

  DFHelper Memory: AOs need 0.030 [GiB]; user supplied 3.486 [GiB]. Using in-core AOs.

  ==> MemDFJK: Density-Fitted J/K Matrices <==

    J tasked:                   Yes
    K tasked:                   Yes
    wK tasked:                   No
    OpenMP threads:               1
    Memory (MB):               3570
    Algorithm:                 Core
    Schwarz Cutoff:           1E-12
    Mask sparsity (%):       0.5949
    Fitting Condition:        1E-12

   => Auxiliary Basis Set <=

  Basis Set: (CC-PVDZ AUX)
    Blend: CC-PVDZ-JKFIT
    Number of shells: 150
    Number of basis function: 418
    Number of Cartesian functions: 474
    Spherical Harmonics?: true
    Max angular momentum: 3

  Minimum eigenvalue in the overlap matrix is 4.9989317949E-03.
  Using Symmetric Orthogonalization.

  SCF Guess: Superposition of Atomic Densities via on-the-fly atomic UHF.

  ==> Iterations <==

                           Total Energy        Delta E     RMS |[F,P]|

   @DF-RKS iter   0:  -231.05249561427743   -2.31052e+02   4.14080e-02 
   @DF-RKS iter   1:  -230.19187311566105    8.60622e-01   4.67571e-03 
   @DF-RKS iter   2:  -230.16490521730336    2.69679e-02   5.87520e-03 DIIS
   @DF-RKS iter   3:  -230.25591984722220   -9.10146e-02   6.74109e-04 DIIS
   @DF-RKS iter   4:  -230.25712601137818   -1.20616e-03   2.03619e-04 DIIS
   @DF-RKS iter   5:  -230.25726917383847   -1.43162e-04   4.90395e-05 DIIS
   @DF-RKS iter   6:  -230.25727771000197   -8.53616e-06   3.69671e-06 DIIS
   @DF-RKS iter   7:  -230.25727775428700   -4.42850e-08   8.11786e-07 DIIS

  ==> Post-Iterations <==

    Orbital Energies [Eh]
    ---------------------

    Doubly Occupied:                                                      

       1A    -19.131715     2A    -19.131612     3A    -10.226357  
       4A    -10.226080     5A     -1.018861     6A     -1.008600  
       7A     -0.732290     8A     -0.603720     9A     -0.525985  
      10A     -0.480310    11A     -0.473578    12A     -0.412520  
      13A     -0.395132    14A     -0.349902    15A     -0.319349  
      16A     -0.264206    17A     -0.263482  

    Virtual:                                                              

      18A      0.042557    19A      0.058485    20A      0.110932  
      21A      0.115272    22A      0.124396    23A      0.168684  
      24A      0.187678    25A      0.242246    26A      0.244365  
      27A      0.440508    28A      0.446692    29A      0.493970  
      30A      0.536681    31A      0.548333    32A      0.594685  
      33A      0.617370    34A      0.625911    35A      0.631303  
      36A      0.647298    37A      0.655852    38A      0.686611  
      39A      0.887207    40A      0.889684    41A      0.917873  
      42A      0.963653    43A      1.009940    44A      1.055745  
      45A      1.063484    46A      1.171816    47A      1.204981  
      48A      1.214375    49A      1.263033    50A      1.305195  
      51A      1.341373    52A      1.352066    53A      1.476413  
      54A      1.569802    55A      1.601478    56A      1.608421  
      57A      1.629200    58A      1.651050    59A      1.651719  
      60A      1.703584    61A      1.747335    62A      1.768875  
      63A      1.791262    64A      1.884537    65A      1.923782  
      66A      1.972705    67A      2.044863    68A      2.057951  
      69A      2.112233    70A      2.157630    71A      2.275038  
      72A      2.293907    73A      2.406021    74A      2.426895  
      75A      2.474260    76A      2.520916    77A      2.907380  
      78A      2.962074    79A      3.003577    80A      3.022153  
      81A      3.061698    82A      3.142937    83A      3.179929  
      84A      3.210712    85A      3.676122    86A      3.705547  

    Final Occupation by Irrep:
              A 
    DOCC [    17 ]

  Energy converged.

  @DF-RKS Final Energy:  -230.25727775428700

   => Energetics <=

    Nuclear Repulsion Energy =            129.4446752707590065
    One-Electron Energy =                -570.6437106549215059
    Two-Electron Energy =                 235.4849394870840626
    DFT Exchange-Correlation Energy =     -24.5387722772086150
    Empirical Dispersion Energy =          -0.0044095800000000
    VV10 Nonlocal Energy =                  0.0000000000000000
    Total Energy =                       -230.2572777542870028



Properties will be evaluated at   0.000000,   0.000000,   0.000000 [a0]

Properties computed using the SCF density matrix

  Nuclear Dipole Moment: [e a0]
     X:   184.7334      Y:   -22.7852      Z:    33.9052

  Electronic Dipole Moment: [e a0]
     X:  -184.7350      Y:    22.7108      Z:   -33.9748

  Dipole Moment: [e a0]
     X:    -0.0016      Y:    -0.0744      Z:    -0.0696     Total:     0.1019

  Dipole Moment: [D]
     X:    -0.0041      Y:    -0.1891      Z:    -0.1769     Total:     0.2590


*** tstop() called on loro.prib.upf.edu at Sat Sep 29 16:50:20 2018
Module time:
	user time   =      11.44 seconds =       0.19 minutes
	system time =       0.20 seconds =       0.00 minutes
	total time  =         14 seconds =       0.23 minutes
Total time:
	user time   =      11.44 seconds =       0.19 minutes
	system time =       0.20 seconds =       0.00 minutes
	total time  =         14 seconds =       0.23 minutes


Properties will be evaluated at   0.000000,   0.000000,   0.000000 [a0]
OEProp: No title given, name of density matrix used for the following properties is 'SCF density'
  Nuclear Dipole Moment: [e a0]
     X:   184.7334      Y:   -22.7852      Z:    33.9052

  Electronic Dipole Moment: [e a0]
     X:  -184.7350      Y:    22.7108      Z:   -33.9748

  Dipole Moment: [e a0]
     X:    -0.0016      Y:    -0.0744      Z:    -0.0696     Total:     0.1019

  Dipole Moment: [D]
     X:    -0.0041      Y:    -0.1891      Z:    -0.1769     Total:     0.2590

  Quadrupole Moment: [D A]
    XX:   -26.5114     YY:   -21.6869     ZZ:   -21.6170
    XY:    -4.7928     XZ:     3.7684     YZ:    -3.4585

  Traceless Quadrupole Moment: [D A]
    XX:    -3.2397     YY:     1.5849     ZZ:     1.6548
    XY:    -4.7928     XZ:     3.7684     YZ:    -3.4585

  Mulliken Charges: (a.u.)
   Center  Symbol    Alpha    Beta     Spin     Total
       1     O     4.14047  4.14047  0.00000 -0.28094
       2     C     2.93618  2.93618  0.00000  0.12765
       3     C     2.93646  2.93646  0.00000  0.12707
       4     O     4.14061  4.14061  0.00000 -0.28123
       5     H     0.42732  0.42732  0.00000  0.14535
       6     H     0.49760  0.49760  0.00000  0.00479
       7     H     0.49859  0.49859  0.00000  0.00282
       8     H     0.49808  0.49808  0.00000  0.00384
       9     H     0.49747  0.49747  0.00000  0.00506
      10     H     0.42720  0.42720  0.00000  0.14559

   Total alpha = 17.00000, Total beta = 17.00000, Total charge =  0.00000


    Psi4 stopped on: Saturday, 29 September 2018 04:50PM
    Psi4 wall time for execution: 0:00:13.85

*** Psi4 exiting successfully. Buy a developer a beer!
