
    -----------------------------------------------------------------------
          Psi4: An Open-Source Ab Initio Electronic Structure Package
                               Psi4 1.2.1 release

                         Git: Rev {HEAD} 406f4de 


    R. M. Parrish, L. A. Burns, D. G. A. Smith, A. C. Simmonett,
    A. E. DePrince III, E. G. Hohenstein, U. Bozkaya, A. Yu. Sokolov,
    R. Di Remigio, R. M. Richard, J. F. Gonthier, A. M. James,
    H. R. McAlexander, A. Kumar, M. Saitow, X. Wang, B. P. Pritchard,
    P. Verma, H. F. Schaefer III, K. Patkowski, R. A. King, E. F. Valeev,
    F. A. Evangelista, J. M. Turney, T. D. Crawford, and C. D. Sherrill,
    J. Chem. Theory Comput. 13(7) pp 3185--3197 (2017).
    (doi: 10.1021/acs.jctc.7b00174)


                         Additional Contributions by
    P. Kraus, H. Kruse, M. H. Lechner, M. C. Schieber, and R. A. Shaw

    -----------------------------------------------------------------------


    Psi4 started on: Saturday, 29 September 2018 05:09PM

    Process ID: 13497
    Host:       loro.prib.upf.edu
    PSIDATADIR: /shared/joao/test_parameterize/miniconda3/share/psi4
    Memory:     500.0 MiB
    Threads:    1
    
  ==> Input File <==

--------------------------------------------------------------------------
set_num_threads(1)
set_memory('5348 MB')

set { scf_mem_safety_factor 0.7 }

set { reference rks }
set { basis cc-pVDZ }

molecule MOL {
    0 1
    noreorient
    nocom
    symmetry c1
    O    1.050400   0.042900  -0.048100
    C    2.474100   0.047400  -0.029000
    C    3.002600  -1.068900  -0.932000
    N    4.462700  -1.072400  -1.006800
    H    0.760400   0.728400   0.578000
    H    2.809900  -0.097900   1.003200
    H    2.817400   1.026800  -0.378600
    H    2.581000  -0.963300  -1.938400
    H    2.653800  -2.036400  -0.553400
    H    4.848442  -0.875126  -0.083887
    H    4.762385  -0.302355  -1.604689
}

set optking { frozen_dihedral = (" 2 3 4 10 ") }

energy, wfn = energy('B3LYP-D3', return_wfn=True)

import os
os.chdir(os.environ['HTMD_PSI4_WORKDIR'])

oeprop(wfn, 'DIPOLE', 'QUADRUPOLE', 'MULLIKEN_CHARGES')

with open('psi4out.xyz', 'w') as f:
    f.write('11 ' )
    f.write('%.12f\n' % energy)
    f.write(MOL.save_string_xyz())
--------------------------------------------------------------------------
  Threads set to 1 by Python driver.

  Memory set to   4.981 GiB by Python driver.

*** tstart() called on loro.prib.upf.edu
*** at Sat Sep 29 17:09:48 2018

   => Loading Basis Set <=

    Name: CC-PVDZ
    Role: ORBITAL
    Keyword: BASIS
    atoms 1    entry O          line   198 file /shared/joao/test_parameterize/miniconda3/share/psi4/basis/cc-pvdz.gbs 
    atoms 2-3  entry C          line   138 file /shared/joao/test_parameterize/miniconda3/share/psi4/basis/cc-pvdz.gbs 
    atoms 4    entry N          line   168 file /shared/joao/test_parameterize/miniconda3/share/psi4/basis/cc-pvdz.gbs 
    atoms 5-11 entry H          line    22 file /shared/joao/test_parameterize/miniconda3/share/psi4/basis/cc-pvdz.gbs 


         ---------------------------------------------------------
                                   SCF
            by Justin Turney, Rob Parrish, Andy Simmonett
                             and Daniel Smith
                              RKS Reference
                        1 Threads,   5100 MiB Core
         ---------------------------------------------------------

  ==> Geometry <==

    Molecular point group: c1
    Full point group: C1

    Geometry (in Angstrom), charge = 0, multiplicity = 1:

       Center              X                  Y                   Z               Mass       
    ------------   -----------------  -----------------  -----------------  -----------------
         O            1.050400000000     0.042900000000    -0.048100000000    15.994914619560
         C            2.474100000000     0.047400000000    -0.029000000000    12.000000000000
         C            3.002600000000    -1.068900000000    -0.932000000000    12.000000000000
         N            4.462700000000    -1.072400000000    -1.006800000000    14.003074004780
         H            0.760400000000     0.728400000000     0.578000000000     1.007825032070
         H            2.809900000000    -0.097900000000     1.003200000000     1.007825032070
         H            2.817400000000     1.026800000000    -0.378600000000     1.007825032070
         H            2.581000000000    -0.963300000000    -1.938400000000     1.007825032070
         H            2.653800000000    -2.036400000000    -0.553400000000     1.007825032070
         H            4.848442000000    -0.875126000000    -0.083887000000     1.007825032070
         H            4.762385000000    -0.302355000000    -1.604689000000     1.007825032070

  Running in c1 symmetry.

  Rotational constants: A =      0.72270  B =      0.02780  C =      0.02715 [cm^-1]
  Rotational constants: A =  21666.04979  B =    833.27489  C =    813.88445 [MHz]
  Nuclear repulsion =  130.876923310943994

  Charge       = 0
  Multiplicity = 1
  Electrons    = 34
  Nalpha       = 17
  Nbeta        = 17

  ==> Algorithm <==

  SCF Algorithm Type is DF.
  DIIS enabled.
  MOM disabled.
  Fractional occupation disabled.
  Guess Type is SAD.
  Energy threshold   = 1.00e-06
  Density threshold  = 1.00e-06
  Integral threshold = 0.00e+00

  ==> Primary Basis <==

  Basis Set: CC-PVDZ
    Blend: CC-PVDZ
    Number of shells: 45
    Number of basis function: 91
    Number of Cartesian functions: 95
    Spherical Harmonics?: true
    Max angular momentum: 2

  ==> DFT Potential <==

   => Composite Functional: B3LYP-D3ZERO <= 

    B3LYP-d3zero Hyb-GGA Exchange-Correlation Functional

    P. J. Stephens, F. J. Devlin, C. F. Chabalowski, and M. J. Frisch, J. Phys. Chem. 98, 11623 (1994)

    Deriv               =              1
    GGA                 =           TRUE
    Meta                =          FALSE

    Exchange Hybrid     =           TRUE
    MP2 Hybrid          =          FALSE

   => Exchange Functionals <=

    0.0800   Slater exchange
    0.7200         Becke 88

   => Exact (HF) Exchange <=

    0.2000               HF 

   => Correlation Functionals <=

    0.1900   Vosko, Wilk & Nusair (VWN5_RPA)
    0.8100   Lee, Yang & Parr

   => Molecular Quadrature <=

    Radial Scheme       =       TREUTLER
    Pruning Scheme      =           FLAT
    Nuclear Scheme      =       TREUTLER

    BS radius alpha     =              1
    Pruning alpha       =              1
    Radial Points       =             75
    Spherical Points    =            302
    Total Points        =         245066
    Total Blocks        =           1877
    Max Points          =            255
    Max Functions       =             91

   => -D3ZERO: Empirical Dispersion <=

    Grimme's -D3 (zero-damping) Dispersion Correction
    Grimme S.; Antony J.; Ehrlich S.; Krieg H. (2010), J. Chem. Phys., 132: 154104

        S6 =   1.000000E+00
        S8 =   1.703000E+00
       SR6 =   1.261000E+00
       SR8 =   1.000000E+00
    ALPHA6 =   1.400000E+01

   => Loading Basis Set <=

    Name: (CC-PVDZ AUX)
    Role: JKFIT
    Keyword: DF_BASIS_SCF
    atoms 1    entry O          line   221 file /shared/joao/test_parameterize/miniconda3/share/psi4/basis/cc-pvdz-jkfit.gbs 
    atoms 2-3  entry C          line   121 file /shared/joao/test_parameterize/miniconda3/share/psi4/basis/cc-pvdz-jkfit.gbs 
    atoms 4    entry N          line   171 file /shared/joao/test_parameterize/miniconda3/share/psi4/basis/cc-pvdz-jkfit.gbs 
    atoms 5-11 entry H          line    51 file /shared/joao/test_parameterize/miniconda3/share/psi4/basis/cc-pvdz-jkfit.gbs 

  ==> Pre-Iterations <==

   -------------------------------------------------------
    Irrep   Nso     Nmo     Nalpha   Nbeta   Ndocc  Nsocc
   -------------------------------------------------------
     A         91      91       0       0       0       0
   -------------------------------------------------------
    Total      91      91      17      17      17       0
   -------------------------------------------------------

  ==> Integral Setup <==

  DFHelper Memory: AOs need 0.036 [GiB]; user supplied 3.486 [GiB]. Using in-core AOs.

  ==> MemDFJK: Density-Fitted J/K Matrices <==

    J tasked:                   Yes
    K tasked:                   Yes
    wK tasked:                   No
    OpenMP threads:               1
    Memory (MB):               3570
    Algorithm:                 Core
    Schwarz Cutoff:           1E-12
    Mask sparsity (%):       0.0966
    Fitting Condition:        1E-12

   => Auxiliary Basis Set <=

  Basis Set: (CC-PVDZ AUX)
    Blend: CC-PVDZ-JKFIT
    Number of shells: 159
    Number of basis function: 441
    Number of Cartesian functions: 499
    Spherical Harmonics?: true
    Max angular momentum: 3

  Minimum eigenvalue in the overlap matrix is 4.6482194344E-03.
  Using Symmetric Orthogonalization.

  SCF Guess: Superposition of Atomic Densities via on-the-fly atomic UHF.

  ==> Iterations <==

                           Total Energy        Delta E     RMS |[F,P]|

   @DF-RKS iter   0:  -210.84264316140718   -2.10843e+02   3.66451e-02 
   @DF-RKS iter   1:  -210.22047305756882    6.22170e-01   6.97380e-03 
   @DF-RKS iter   2:  -210.07392757227416    1.46545e-01   9.63408e-03 DIIS
   @DF-RKS iter   3:  -210.39122938029996   -3.17302e-01   6.29496e-04 DIIS
   @DF-RKS iter   4:  -210.39219157038443   -9.62190e-04   3.59199e-04 DIIS
   @DF-RKS iter   5:  -210.39265932959719   -4.67759e-04   4.81240e-05 DIIS
   @DF-RKS iter   6:  -210.39266528225880   -5.95266e-06   2.45714e-05 DIIS
   @DF-RKS iter   7:  -210.39266743936344   -2.15710e-06   2.22772e-06 DIIS
   @DF-RKS iter   8:  -210.39266745709514   -1.77317e-08   8.71260e-07 DIIS

  ==> Post-Iterations <==

    Orbital Energies [Eh]
    ---------------------

    Doubly Occupied:                                                      

       1A    -19.128652     2A    -14.307876     3A    -10.225082  
       4A    -10.202700     5A     -1.011344     6A     -0.879936  
       7A     -0.710847     8A     -0.605349     9A     -0.507047  
      10A     -0.496393    11A     -0.441872    12A     -0.419351  
      13A     -0.401136    14A     -0.352183    15A     -0.331362  
      16A     -0.263667    17A     -0.236102  

    Virtual:                                                              

      18A      0.050563    19A      0.055108    20A      0.094617  
      21A      0.110799    22A      0.129834    23A      0.156894  
      24A      0.165876    25A      0.208875    26A      0.249419  
      27A      0.255441    28A      0.430650    29A      0.450484  
      30A      0.493589    31A      0.513982    32A      0.515450  
      33A      0.562558    34A      0.597430    35A      0.633526  
      36A      0.636600    37A      0.651262    38A      0.657311  
      39A      0.679524    40A      0.714145    41A      0.826011  
      42A      0.841949    43A      0.851488    44A      0.915288  
      45A      0.937207    46A      0.985204    47A      0.991855  
      48A      1.061473    49A      1.193328    50A      1.209551  
      51A      1.232016    52A      1.269955    53A      1.289865  
      54A      1.345658    55A      1.374879    56A      1.508562  
      57A      1.581745    58A      1.588490    59A      1.616453  
      60A      1.639679    61A      1.647745    62A      1.657678  
      63A      1.675495    64A      1.717752    65A      1.734801  
      66A      1.790748    67A      1.807327    68A      1.884829  
      69A      1.910947    70A      1.936958    71A      1.969533  
      72A      2.001816    73A      2.085497    74A      2.099643  
      75A      2.169054    76A      2.215755    77A      2.291822  
      78A      2.388429    79A      2.413238    80A      2.419648  
      81A      2.471462    82A      2.517984    83A      2.642430  
      84A      2.673255    85A      2.812127    86A      2.950780  
      87A      3.026901    88A      3.047810    89A      3.095144  
      90A      3.206556    91A      3.691982  

    Final Occupation by Irrep:
              A 
    DOCC [    17 ]

  Energy converged.

  @DF-RKS Final Energy:  -210.39266745709514

   => Energetics <=

    Nuclear Repulsion Energy =            130.8769233109439938
    One-Electron Energy =                -544.6152015281886634
    Two-Electron Energy =                 226.8368019772153161
    DFT Exchange-Correlation Energy =     -23.4860467670657691
    Empirical Dispersion Energy =          -0.0051444500000000
    VV10 Nonlocal Energy =                  0.0000000000000000
    Total Energy =                       -210.3926674570951150



Properties will be evaluated at   0.000000,   0.000000,   0.000000 [a0]

Properties computed using the SCF density matrix

  Nuclear Dipole Moment: [e a0]
     X:   177.1347      Y:   -29.8813      Z:   -30.5685

  Electronic Dipole Moment: [e a0]
     X:  -176.9383      Y:    30.6916      Z:    31.0606

  Dipole Moment: [e a0]
     X:     0.1963      Y:     0.8104      Z:     0.4920     Total:     0.9682

  Dipole Moment: [D]
     X:     0.4990      Y:     2.0597      Z:     1.2506     Total:     2.4608


*** tstop() called on loro.prib.upf.edu at Sat Sep 29 17:10:05 2018
Module time:
	user time   =      15.04 seconds =       0.25 minutes
	system time =       0.24 seconds =       0.00 minutes
	total time  =         17 seconds =       0.28 minutes
Total time:
	user time   =      15.04 seconds =       0.25 minutes
	system time =       0.24 seconds =       0.00 minutes
	total time  =         17 seconds =       0.28 minutes


Properties will be evaluated at   0.000000,   0.000000,   0.000000 [a0]
OEProp: No title given, name of density matrix used for the following properties is 'SCF density'
  Nuclear Dipole Moment: [e a0]
     X:   177.1347      Y:   -29.8813      Z:   -30.5685

  Electronic Dipole Moment: [e a0]
     X:  -176.9383      Y:    30.6916      Z:    31.0606

  Dipole Moment: [e a0]
     X:     0.1963      Y:     0.8104      Z:     0.4920     Total:     0.9682

  Dipole Moment: [D]
     X:     0.4990      Y:     2.0597      Z:     1.2506     Total:     2.4608

  Quadrupole Moment: [D A]
    XX:   -24.6051     YY:   -27.3439     ZZ:   -24.5848
    XY:     6.4389     XZ:     2.6431     YZ:    -1.3784

  Traceless Quadrupole Moment: [D A]
    XX:     0.9061     YY:    -1.8326     ZZ:     0.9264
    XY:     6.4389     XZ:     2.6431     YZ:    -1.3784

  Mulliken Charges: (a.u.)
   Center  Symbol    Alpha    Beta     Spin     Total
       1     O     4.13860  4.13860  0.00000 -0.27720
       2     C     2.94243  2.94243  0.00000  0.11513
       3     C     2.97784  2.97784  0.00000  0.04431
       4     N     3.59041  3.59041  0.00000 -0.18081
       5     H     0.43095  0.43095  0.00000  0.13810
       6     H     0.50329  0.50329  0.00000 -0.00658
       7     H     0.50695  0.50695  0.00000 -0.01390
       8     H     0.48913  0.48913  0.00000  0.02174
       9     H     0.48938  0.48938  0.00000  0.02124
      10     H     0.46655  0.46655  0.00000  0.06690
      11     H     0.46447  0.46447  0.00000  0.07105

   Total alpha = 17.00000, Total beta = 17.00000, Total charge = -0.00000


    Psi4 stopped on: Saturday, 29 September 2018 05:10PM
    Psi4 wall time for execution: 0:00:17.47

*** Psi4 exiting successfully. Buy a developer a beer!
