
    -----------------------------------------------------------------------
          Psi4: An Open-Source Ab Initio Electronic Structure Package
                               Psi4 1.2.1 release

                         Git: Rev {HEAD} 406f4de 


    R. M. Parrish, L. A. Burns, D. G. A. Smith, A. C. Simmonett,
    A. E. DePrince III, E. G. Hohenstein, U. Bozkaya, A. Yu. Sokolov,
    R. Di Remigio, R. M. Richard, J. F. Gonthier, A. M. James,
    H. R. McAlexander, A. Kumar, M. Saitow, X. Wang, B. P. Pritchard,
    P. Verma, H. F. Schaefer III, K. Patkowski, R. A. King, E. F. Valeev,
    F. A. Evangelista, J. M. Turney, T. D. Crawford, and C. D. Sherrill,
    J. Chem. Theory Comput. 13(7) pp 3185--3197 (2017).
    (doi: 10.1021/acs.jctc.7b00174)


                         Additional Contributions by
    P. Kraus, H. Kruse, M. H. Lechner, M. C. Schieber, and R. A. Shaw

    -----------------------------------------------------------------------


    Psi4 started on: Saturday, 29 September 2018 05:10PM

    Process ID: 14089
    Host:       loro.prib.upf.edu
    PSIDATADIR: /shared/joao/test_parameterize/miniconda3/share/psi4
    Memory:     500.0 MiB
    Threads:    1
    
  ==> Input File <==

--------------------------------------------------------------------------
set_num_threads(1)
set_memory('5348 MB')

set { scf_mem_safety_factor 0.7 }

set { reference rks }
set { basis cc-pVDZ }

molecule MOL {
    0 1
    noreorient
    nocom
    symmetry c1
    O    1.050400   0.042900  -0.048100
    C    2.474100   0.047400  -0.029000
    C    3.002600  -1.068900  -0.932000
    N    4.462700  -1.072400  -1.006800
    H    0.783746  -0.289631  -0.922360
    H    2.809900  -0.097900   1.003200
    H    2.817400   1.026800  -0.378600
    H    2.581000  -0.963300  -1.938400
    H    2.653800  -2.036400  -0.553400
    H    4.779000  -0.221000  -1.470000
    H    4.758600  -1.842500  -1.606500
}

set optking { frozen_dihedral = (" 3 2 1 5 ") }

energy, wfn = energy('B3LYP-D3', return_wfn=True)

import os
os.chdir(os.environ['HTMD_PSI4_WORKDIR'])

oeprop(wfn, 'DIPOLE', 'QUADRUPOLE', 'MULLIKEN_CHARGES')

with open('psi4out.xyz', 'w') as f:
    f.write('11 ' )
    f.write('%.12f\n' % energy)
    f.write(MOL.save_string_xyz())
--------------------------------------------------------------------------
  Threads set to 1 by Python driver.

  Memory set to   4.981 GiB by Python driver.

*** tstart() called on loro.prib.upf.edu
*** at Sat Sep 29 17:10:43 2018

   => Loading Basis Set <=

    Name: CC-PVDZ
    Role: ORBITAL
    Keyword: BASIS
    atoms 1    entry O          line   198 file /shared/joao/test_parameterize/miniconda3/share/psi4/basis/cc-pvdz.gbs 
    atoms 2-3  entry C          line   138 file /shared/joao/test_parameterize/miniconda3/share/psi4/basis/cc-pvdz.gbs 
    atoms 4    entry N          line   168 file /shared/joao/test_parameterize/miniconda3/share/psi4/basis/cc-pvdz.gbs 
    atoms 5-11 entry H          line    22 file /shared/joao/test_parameterize/miniconda3/share/psi4/basis/cc-pvdz.gbs 


         ---------------------------------------------------------
                                   SCF
            by Justin Turney, Rob Parrish, Andy Simmonett
                             and Daniel Smith
                              RKS Reference
                        1 Threads,   5100 MiB Core
         ---------------------------------------------------------

  ==> Geometry <==

    Molecular point group: c1
    Full point group: C1

    Geometry (in Angstrom), charge = 0, multiplicity = 1:

       Center              X                  Y                   Z               Mass       
    ------------   -----------------  -----------------  -----------------  -----------------
         O            1.050400000000     0.042900000000    -0.048100000000    15.994914619560
         C            2.474100000000     0.047400000000    -0.029000000000    12.000000000000
         C            3.002600000000    -1.068900000000    -0.932000000000    12.000000000000
         N            4.462700000000    -1.072400000000    -1.006800000000    14.003074004780
         H            0.783746000000    -0.289631000000    -0.922360000000     1.007825032070
         H            2.809900000000    -0.097900000000     1.003200000000     1.007825032070
         H            2.817400000000     1.026800000000    -0.378600000000     1.007825032070
         H            2.581000000000    -0.963300000000    -1.938400000000     1.007825032070
         H            2.653800000000    -2.036400000000    -0.553400000000     1.007825032070
         H            4.779000000000    -0.221000000000    -1.470000000000     1.007825032070
         H            4.758600000000    -1.842500000000    -1.606500000000     1.007825032070

  Running in c1 symmetry.

  Rotational constants: A =      0.74380  B =      0.02759  C =      0.02696 [cm^-1]
  Rotational constants: A =  22298.60637  B =    826.98730  C =    808.14441 [MHz]
  Nuclear repulsion =  131.050812869724354

  Charge       = 0
  Multiplicity = 1
  Electrons    = 34
  Nalpha       = 17
  Nbeta        = 17

  ==> Algorithm <==

  SCF Algorithm Type is DF.
  DIIS enabled.
  MOM disabled.
  Fractional occupation disabled.
  Guess Type is SAD.
  Energy threshold   = 1.00e-06
  Density threshold  = 1.00e-06
  Integral threshold = 0.00e+00

  ==> Primary Basis <==

  Basis Set: CC-PVDZ
    Blend: CC-PVDZ
    Number of shells: 45
    Number of basis function: 91
    Number of Cartesian functions: 95
    Spherical Harmonics?: true
    Max angular momentum: 2

  ==> DFT Potential <==

   => Composite Functional: B3LYP-D3ZERO <= 

    B3LYP-d3zero Hyb-GGA Exchange-Correlation Functional

    P. J. Stephens, F. J. Devlin, C. F. Chabalowski, and M. J. Frisch, J. Phys. Chem. 98, 11623 (1994)

    Deriv               =              1
    GGA                 =           TRUE
    Meta                =          FALSE

    Exchange Hybrid     =           TRUE
    MP2 Hybrid          =          FALSE

   => Exchange Functionals <=

    0.0800   Slater exchange
    0.7200         Becke 88

   => Exact (HF) Exchange <=

    0.2000               HF 

   => Correlation Functionals <=

    0.1900   Vosko, Wilk & Nusair (VWN5_RPA)
    0.8100   Lee, Yang & Parr

   => Molecular Quadrature <=

    Radial Scheme       =       TREUTLER
    Pruning Scheme      =           FLAT
    Nuclear Scheme      =       TREUTLER

    BS radius alpha     =              1
    Pruning alpha       =              1
    Radial Points       =             75
    Spherical Points    =            302
    Total Points        =         245051
    Total Blocks        =           1897
    Max Points          =            256
    Max Functions       =             91

   => -D3ZERO: Empirical Dispersion <=

    Grimme's -D3 (zero-damping) Dispersion Correction
    Grimme S.; Antony J.; Ehrlich S.; Krieg H. (2010), J. Chem. Phys., 132: 154104

        S6 =   1.000000E+00
        S8 =   1.703000E+00
       SR6 =   1.261000E+00
       SR8 =   1.000000E+00
    ALPHA6 =   1.400000E+01

   => Loading Basis Set <=

    Name: (CC-PVDZ AUX)
    Role: JKFIT
    Keyword: DF_BASIS_SCF
    atoms 1    entry O          line   221 file /shared/joao/test_parameterize/miniconda3/share/psi4/basis/cc-pvdz-jkfit.gbs 
    atoms 2-3  entry C          line   121 file /shared/joao/test_parameterize/miniconda3/share/psi4/basis/cc-pvdz-jkfit.gbs 
    atoms 4    entry N          line   171 file /shared/joao/test_parameterize/miniconda3/share/psi4/basis/cc-pvdz-jkfit.gbs 
    atoms 5-11 entry H          line    51 file /shared/joao/test_parameterize/miniconda3/share/psi4/basis/cc-pvdz-jkfit.gbs 

  ==> Pre-Iterations <==

   -------------------------------------------------------
    Irrep   Nso     Nmo     Nalpha   Nbeta   Ndocc  Nsocc
   -------------------------------------------------------
     A         91      91       0       0       0       0
   -------------------------------------------------------
    Total      91      91      17      17      17       0
   -------------------------------------------------------

  ==> Integral Setup <==

  DFHelper Memory: AOs need 0.036 [GiB]; user supplied 3.486 [GiB]. Using in-core AOs.

  ==> MemDFJK: Density-Fitted J/K Matrices <==

    J tasked:                   Yes
    K tasked:                   Yes
    wK tasked:                   No
    OpenMP threads:               1
    Memory (MB):               3570
    Algorithm:                 Core
    Schwarz Cutoff:           1E-12
    Mask sparsity (%):       0.2415
    Fitting Condition:        1E-12

   => Auxiliary Basis Set <=

  Basis Set: (CC-PVDZ AUX)
    Blend: CC-PVDZ-JKFIT
    Number of shells: 159
    Number of basis function: 441
    Number of Cartesian functions: 499
    Spherical Harmonics?: true
    Max angular momentum: 3

  Minimum eigenvalue in the overlap matrix is 4.3937821187E-03.
  Using Symmetric Orthogonalization.

  SCF Guess: Superposition of Atomic Densities via on-the-fly atomic UHF.

  ==> Iterations <==

                           Total Energy        Delta E     RMS |[F,P]|

   @DF-RKS iter   0:  -210.88791316078147   -2.10888e+02   3.66800e-02 
   @DF-RKS iter   1:  -210.21552610590157    6.72387e-01   7.05078e-03 
   @DF-RKS iter   2:  -210.07258463801679    1.42941e-01   9.63083e-03 DIIS
   @DF-RKS iter   3:  -210.39024326580213   -3.17659e-01   5.90020e-04 DIIS
   @DF-RKS iter   4:  -210.39100183930927   -7.58574e-04   3.70579e-04 DIIS
   @DF-RKS iter   5:  -210.39150644939346   -5.04610e-04   5.37745e-05 DIIS
   @DF-RKS iter   6:  -210.39151433125150   -7.88186e-06   2.60091e-05 DIIS
   @DF-RKS iter   7:  -210.39151671451657   -2.38327e-06   1.81937e-06 DIIS
   @DF-RKS iter   8:  -210.39151672728576   -1.27692e-08   4.97978e-07 DIIS

  ==> Post-Iterations <==

    Orbital Energies [Eh]
    ---------------------

    Doubly Occupied:                                                      

       1A    -19.127189     2A    -14.311441     3A    -10.224374  
       4A    -10.211171     5A     -1.010753     6A     -0.883416  
       7A     -0.712227     8A     -0.617096     9A     -0.507792  
      10A     -0.469273    11A     -0.452712    12A     -0.442918  
      13A     -0.396316    14A     -0.368557    15A     -0.321796  
      16A     -0.262770    17A     -0.238952  

    Virtual:                                                              

      18A      0.049275    19A      0.058232    20A      0.093364  
      21A      0.102594    22A      0.135166    23A      0.150560  
      24A      0.164178    25A      0.209504    26A      0.241989  
      27A      0.252153    28A      0.431159    29A      0.446373  
      30A      0.484736    31A      0.499062    32A      0.550732  
      33A      0.581197    34A      0.589008    35A      0.607095  
      36A      0.640342    37A      0.651611    38A      0.659794  
      39A      0.667104    40A      0.697943    41A      0.809736  
      42A      0.830873    43A      0.842028    44A      0.904736  
      45A      0.954027    46A      1.006688    47A      1.028665  
      48A      1.061499    49A      1.157774    50A      1.202310  
      51A      1.214325    52A      1.235587    53A      1.281245  
      54A      1.410368    55A      1.441312    56A      1.483006  
      57A      1.514413    58A      1.604425    59A      1.622374  
      60A      1.635349    61A      1.650419    62A      1.662093  
      63A      1.704019    64A      1.729443    65A      1.738612  
      66A      1.781549    67A      1.807068    68A      1.855295  
      69A      1.875326    70A      1.952126    71A      1.984211  
      72A      2.031956    73A      2.033119    74A      2.122404  
      75A      2.153250    76A      2.240131    77A      2.268281  
      78A      2.363693    79A      2.396039    80A      2.444733  
      81A      2.471601    82A      2.547331    83A      2.598423  
      84A      2.676869    85A      2.819518    86A      2.946319  
      87A      3.015102    88A      3.049803    89A      3.080114  
      90A      3.247644    91A      3.684161  

    Final Occupation by Irrep:
              A 
    DOCC [    17 ]

  Energy converged.

  @DF-RKS Final Energy:  -210.39151672728576

   => Energetics <=

    Nuclear Repulsion Energy =            131.0508128697243535
    One-Electron Energy =                -544.8849244117922126
    Two-Electron Energy =                 226.9341513765347145
    DFT Exchange-Correlation Energy =     -23.4864120117526198
    Empirical Dispersion Energy =          -0.0051445500000000
    VV10 Nonlocal Energy =                  0.0000000000000000
    Total Energy =                       -210.3915167272857616



Properties will be evaluated at   0.000000,   0.000000,   0.000000 [a0]

Properties computed using the SCF density matrix

  Nuclear Dipole Moment: [e a0]
     X:   177.0404      Y:   -33.4794      Z:   -36.0266

  Electronic Dipole Moment: [e a0]
     X:  -176.7624      Y:    33.2680      Z:    35.0642

  Dipole Moment: [e a0]
     X:     0.2780      Y:    -0.2114      Z:    -0.9624     Total:     1.0238

  Dipole Moment: [D]
     X:     0.7065      Y:    -0.5372      Z:    -2.4463     Total:     2.6023


*** tstop() called on loro.prib.upf.edu at Sat Sep 29 17:10:59 2018
Module time:
	user time   =      15.11 seconds =       0.25 minutes
	system time =       0.23 seconds =       0.00 minutes
	total time  =         16 seconds =       0.27 minutes
Total time:
	user time   =      15.11 seconds =       0.25 minutes
	system time =       0.23 seconds =       0.00 minutes
	total time  =         16 seconds =       0.27 minutes


Properties will be evaluated at   0.000000,   0.000000,   0.000000 [a0]
OEProp: No title given, name of density matrix used for the following properties is 'SCF density'
  Nuclear Dipole Moment: [e a0]
     X:   177.0404      Y:   -33.4794      Z:   -36.0266

  Electronic Dipole Moment: [e a0]
     X:  -176.7624      Y:    33.2680      Z:    35.0642

  Dipole Moment: [e a0]
     X:     0.2780      Y:    -0.2114      Z:    -0.9624     Total:     1.0238

  Dipole Moment: [D]
     X:     0.7065      Y:    -0.5372      Z:    -2.4463     Total:     2.6023

  Quadrupole Moment: [D A]
    XX:   -24.0602     YY:   -24.3623     ZZ:   -21.6938
    XY:     0.1157     XZ:    -6.9170     YZ:     1.8474

  Traceless Quadrupole Moment: [D A]
    XX:    -0.6881     YY:    -0.9902     ZZ:     1.6783
    XY:     0.1157     XZ:    -6.9170     YZ:     1.8474

  Mulliken Charges: (a.u.)
   Center  Symbol    Alpha    Beta     Spin     Total
       1     O     4.13892  4.13892  0.00000 -0.27783
       2     C     2.91433  2.91433  0.00000  0.17133
       3     C     3.00735  3.00735  0.00000 -0.01470
       4     N     3.58975  3.58975  0.00000 -0.17949
       5     H     0.43324  0.43324  0.00000  0.13352
       6     H     0.48776  0.48776  0.00000  0.02449
       7     H     0.50299  0.50299  0.00000 -0.00598
       8     H     0.50821  0.50821  0.00000 -0.01641
       9     H     0.48926  0.48926  0.00000  0.02147
      10     H     0.46448  0.46448  0.00000  0.07103
      11     H     0.46371  0.46371  0.00000  0.07258

   Total alpha = 17.00000, Total beta = 17.00000, Total charge =  0.00000


    Psi4 stopped on: Saturday, 29 September 2018 05:11PM
    Psi4 wall time for execution: 0:00:16.78

*** Psi4 exiting successfully. Buy a developer a beer!
