
    -----------------------------------------------------------------------
          Psi4: An Open-Source Ab Initio Electronic Structure Package
                               Psi4 1.2.1 release

                         Git: Rev {HEAD} 406f4de 


    R. M. Parrish, L. A. Burns, D. G. A. Smith, A. C. Simmonett,
    A. E. DePrince III, E. G. Hohenstein, U. Bozkaya, A. Yu. Sokolov,
    R. Di Remigio, R. M. Richard, J. F. Gonthier, A. M. James,
    H. R. McAlexander, A. Kumar, M. Saitow, X. Wang, B. P. Pritchard,
    P. Verma, H. F. Schaefer III, K. Patkowski, R. A. King, E. F. Valeev,
    F. A. Evangelista, J. M. Turney, T. D. Crawford, and C. D. Sherrill,
    J. Chem. Theory Comput. 13(7) pp 3185--3197 (2017).
    (doi: 10.1021/acs.jctc.7b00174)


                         Additional Contributions by
    P. Kraus, H. Kruse, M. H. Lechner, M. C. Schieber, and R. A. Shaw

    -----------------------------------------------------------------------


    Psi4 started on: Saturday, 29 September 2018 08:31PM

    Process ID: 30162
    Host:       arancio.prib.upf.edu
    PSIDATADIR: /shared/joao/test_parameterize/miniconda3/share/psi4
    Memory:     500.0 MiB
    Threads:    1
    
  ==> Input File <==

--------------------------------------------------------------------------
set_num_threads(4)
set_memory('3000 MB')

set { scf_mem_safety_factor 0.7 }

set { reference rks }
set { basis 6-31G* }

molecule MOL {
    1 1
    noreorient
    nocom
    symmetry c1
    C   -0.000000  -0.000000  -0.177864
    C    0.036678   1.219374   0.524165
    C    0.031765   1.213120   1.915444
    C    0.000000   0.000000   2.610107
    C   -0.031765  -1.213120   1.915444
    C   -0.036678  -1.219375   0.524165
    C   -0.000000   0.000000  -1.644734
    H    0.018170   2.164705  -0.010854
    H    0.042402   2.152895   2.457886
    H    0.000000   0.000000   3.695756
    H   -0.042402  -2.152895   2.457886
    H   -0.018170  -2.164705  -0.010853
    N   -0.712590  -0.905950  -2.308461
    N    0.712590   0.905950  -2.308460
    H    0.673432   1.006470  -3.315997
    H    1.377190   1.485970  -1.813316
    H   -1.714928  -0.951696  -2.179969
    H   -0.307544  -1.525319  -3.000622
}

set optking { frozen_dihedral = (" 1 7 13 17 ") }

set optking { dynamic_level = 1 
 geom_maxiter = 250
 print_trajectory_xyz_file = True }

energy, wfn = optimize('B3LYP-D3', return_wfn=True)

import os
os.chdir(os.environ['HTMD_PSI4_WORKDIR'])

oeprop(wfn, 'DIPOLE', 'QUADRUPOLE', 'MULLIKEN_CHARGES')

with open('psi4out.xyz', 'w') as f:
    f.write('18 ' )
    f.write('%.12f\n' % energy)
    f.write(MOL.save_string_xyz())
--------------------------------------------------------------------------
  Threads set to 4 by Python driver.

  Memory set to   2.794 GiB by Python driver.
gradient() will perform analytic gradient computation.

*** tstart() called on arancio.prib.upf.edu
*** at Sat Sep 29 20:31:37 2018

   => Loading Basis Set <=

    Name: 6-31G*
    Role: ORBITAL
    Keyword: BASIS
    atoms 1-7         entry C          line   111 file /shared/joao/test_parameterize/miniconda3/share/psi4/basis/6-31gs.gbs 
    atoms 8-12, 15-18 entry H          line    44 file /shared/joao/test_parameterize/miniconda3/share/psi4/basis/6-31gs.gbs 
    atoms 13-14       entry N          line   128 file /shared/joao/test_parameterize/miniconda3/share/psi4/basis/6-31gs.gbs 


         ---------------------------------------------------------
                                   SCF
            by Justin Turney, Rob Parrish, Andy Simmonett
                             and Daniel Smith
                              RKS Reference
                        4 Threads,   2861 MiB Core
         ---------------------------------------------------------

  ==> Geometry <==

    Molecular point group: c1
    Full point group: C1

    Geometry (in Angstrom), charge = 1, multiplicity = 1:

       Center              X                  Y                   Z               Mass       
    ------------   -----------------  -----------------  -----------------  -----------------
         C            0.000000000000     0.000000000000    -0.177864000000    12.000000000000
         C            0.036678000000     1.219374000000     0.524165000000    12.000000000000
         C            0.031765000000     1.213120000000     1.915444000000    12.000000000000
         C            0.000000000000     0.000000000000     2.610107000000    12.000000000000
         C           -0.031765000000    -1.213120000000     1.915444000000    12.000000000000
         C           -0.036678000000    -1.219375000000     0.524165000000    12.000000000000
         C            0.000000000000     0.000000000000    -1.644734000000    12.000000000000
         H            0.018170000000     2.164705000000    -0.010854000000     1.007825032070
         H            0.042402000000     2.152895000000     2.457886000000     1.007825032070
         H            0.000000000000     0.000000000000     3.695756000000     1.007825032070
         H           -0.042402000000    -2.152895000000     2.457886000000     1.007825032070
         H           -0.018170000000    -2.164705000000    -0.010853000000     1.007825032070
         N           -0.712590000000    -0.905950000000    -2.308461000000    14.003074004780
         N            0.712590000000     0.905950000000    -2.308460000000    14.003074004780
         H            0.673432000000     1.006470000000    -3.315997000000     1.007825032070
         H            1.377190000000     1.485970000000    -1.813316000000     1.007825032070
         H           -1.714928000000    -0.951696000000    -2.179969000000     1.007825032070
         H           -0.307544000000    -1.525319000000    -3.000622000000     1.007825032070

  Running in c1 symmetry.

  Rotational constants: A =      0.12129  B =      0.03954  C =      0.03133 [cm^-1]
  Rotational constants: A =   3636.06211  B =   1185.27138  C =    939.38893 [MHz]
  Nuclear repulsion =  416.627719386456761

  Charge       = 1
  Multiplicity = 1
  Electrons    = 64
  Nalpha       = 32
  Nbeta        = 32

  ==> Algorithm <==

  SCF Algorithm Type is DF.
  DIIS enabled.
  MOM disabled.
  Fractional occupation disabled.
  Guess Type is SAD.
  Energy threshold   = 1.00e-08
  Density threshold  = 1.00e-08
  Integral threshold = 0.00e+00

  ==> Primary Basis <==

  Basis Set: 6-31G*
    Blend: 6-31G*
    Number of shells: 72
    Number of basis function: 153
    Number of Cartesian functions: 153
    Spherical Harmonics?: false
    Max angular momentum: 2

  ==> DFT Potential <==

   => Composite Functional: B3LYP-D3ZERO <= 

    B3LYP-d3zero Hyb-GGA Exchange-Correlation Functional

    P. J. Stephens, F. J. Devlin, C. F. Chabalowski, and M. J. Frisch, J. Phys. Chem. 98, 11623 (1994)

    Deriv               =              1
    GGA                 =           TRUE
    Meta                =          FALSE

    Exchange Hybrid     =           TRUE
    MP2 Hybrid          =          FALSE

   => Exchange Functionals <=

    0.0800   Slater exchange
    0.7200         Becke 88

   => Exact (HF) Exchange <=

    0.2000               HF 

   => Correlation Functionals <=

    0.1900   Vosko, Wilk & Nusair (VWN5_RPA)
    0.8100   Lee, Yang & Parr

   => Molecular Quadrature <=

    Radial Scheme       =       TREUTLER
    Pruning Scheme      =           FLAT
    Nuclear Scheme      =       TREUTLER

    BS radius alpha     =              1
    Pruning alpha       =              1
    Radial Points       =             75
    Spherical Points    =            302
    Total Points        =         397096
    Total Blocks        =           3007
    Max Points          =            256
    Max Functions       =            149

   => -D3ZERO: Empirical Dispersion <=

    Grimme's -D3 (zero-damping) Dispersion Correction
    Grimme S.; Antony J.; Ehrlich S.; Krieg H. (2010), J. Chem. Phys., 132: 154104

        S6 =   1.000000E+00
        S8 =   1.703000E+00
       SR6 =   1.261000E+00
       SR8 =   1.000000E+00
    ALPHA6 =   1.400000E+01

   => Loading Basis Set <=

    Name: (6-31G* AUX)
    Role: JKFIT
    Keyword: DF_BASIS_SCF
    atoms 1-7         entry C          line   121 file /shared/joao/test_parameterize/miniconda3/share/psi4/basis/cc-pvdz-jkfit.gbs 
    atoms 8-12, 15-18 entry H          line    51 file /shared/joao/test_parameterize/miniconda3/share/psi4/basis/cc-pvdz-jkfit.gbs 
    atoms 13-14       entry N          line   171 file /shared/joao/test_parameterize/miniconda3/share/psi4/basis/cc-pvdz-jkfit.gbs 

  ==> Pre-Iterations <==

   -------------------------------------------------------
    Irrep   Nso     Nmo     Nalpha   Nbeta   Ndocc  Nsocc
   -------------------------------------------------------
     A        153     153       0       0       0       0
   -------------------------------------------------------
    Total     153     153      32      32      32       0
   -------------------------------------------------------

  ==> Integral Setup <==

  ==> DiskDFJK: Density-Fitted J/K Matrices <==

    J tasked:                  Yes
    K tasked:                  Yes
    wK tasked:                  No
    OpenMP threads:              4
    Integrals threads:           4
    Memory (MB):              2002
    Algorithm:                Core
    Integral Cache:           NONE
    Schwarz Cutoff:          1E-12
    Fitting Condition:       1E-12

   => Auxiliary Basis Set <=

  Basis Set: (6-31G* AUX)
    Blend: CC-PVDZ-JKFIT
    Number of shells: 297
    Number of basis function: 954
    Number of Cartesian functions: 954
    Spherical Harmonics?: false
    Max angular momentum: 3

  Minimum eigenvalue in the overlap matrix is 4.8728664252E-04.
  Using Symmetric Orthogonalization.

  SCF Guess: Superposition of Atomic Densities via on-the-fly atomic UHF.

  ==> Iterations <==

                           Total Energy        Delta E     RMS |[F,P]|

   @DF-RKS iter   0:  -379.61311421190328   -3.79613e+02   6.81888e-02 
   @DF-RKS iter   1:  -381.00392023329096   -1.39081e+00   1.19919e-02 
   @DF-RKS iter   2:  -380.84171498836037    1.62205e-01   1.41329e-02 DIIS
   @DF-RKS iter   3:  -381.42798606796481   -5.86271e-01   2.57119e-03 DIIS
   @DF-RKS iter   4:  -381.44504145700182   -1.70554e-02   9.07526e-04 DIIS
   @DF-RKS iter   5:  -381.44698991971558   -1.94846e-03   3.44733e-04 DIIS
   @DF-RKS iter   6:  -381.44729829087112   -3.08371e-04   1.01977e-04 DIIS
   @DF-RKS iter   7:  -381.44732699629407   -2.87054e-05   2.96773e-05 DIIS
   @DF-RKS iter   8:  -381.44732958976329   -2.59347e-06   7.09363e-06 DIIS
   @DF-RKS iter   9:  -381.44732973476101   -1.44998e-07   3.41629e-06 DIIS
   @DF-RKS iter  10:  -381.44732976978287   -3.50219e-08   6.64034e-07 DIIS
   @DF-RKS iter  11:  -381.44732977087216   -1.08929e-09   3.01112e-07 DIIS
   @DF-RKS iter  12:  -381.44732977115558   -2.83421e-10   9.09475e-08 DIIS
   @DF-RKS iter  13:  -381.44732977118559   -3.00133e-11   1.94717e-08 DIIS
   @DF-RKS iter  14:  -381.44732977118611   -5.11591e-13   7.08579e-09 DIIS

  ==> Post-Iterations <==

    Orbital Energies [Eh]
    ---------------------

    Doubly Occupied:                                                      

       1A    -14.576727     2A    -14.539497     3A    -10.494550  
       4A    -10.370157     5A    -10.356997     6A    -10.355681  
       7A    -10.346456     8A    -10.341300     9A    -10.340353  
      10A     -1.177894    11A     -1.083996    12A     -1.013961  
      13A     -0.924682    14A     -0.902144    15A     -0.841373  
      16A     -0.777727    17A     -0.767335    18A     -0.740711  
      19A     -0.725989    20A     -0.704329    21A     -0.670257  
      22A     -0.626813    23A     -0.606544    24A     -0.582609  
      25A     -0.577006    26A     -0.554706    27A     -0.518271  
      28A     -0.506287    29A     -0.497768    30A     -0.457778  
      31A     -0.414628    32A     -0.405717  

    Virtual:                                                              

      33A     -0.240553    34A     -0.155392    35A     -0.137120  
      36A     -0.097884    37A     -0.071500    38A     -0.048405  
      39A     -0.036901    40A     -0.011715    41A      0.007148  
      42A      0.009611    43A      0.022452    44A      0.054671  
      45A      0.061273    46A      0.092869    47A      0.134905  
      48A      0.139952    49A      0.156783    50A      0.158702  
      51A      0.208335    52A      0.242316    53A      0.299614  
      54A      0.356399    55A      0.357618    56A      0.382647  
      57A      0.396327    58A      0.397922    59A      0.416232  
      60A      0.423640    61A      0.442250    62A      0.449293  
      63A      0.453745    64A      0.470599    65A      0.473164  
      66A      0.483778    67A      0.489429    68A      0.509792  
      69A      0.527137    70A      0.542556    71A      0.552082  
      72A      0.586061    73A      0.616644    74A      0.638246  
      75A      0.669620    76A      0.686132    77A      0.697993  
      78A      0.701598    79A      0.707550    80A      0.725507  
      81A      0.730230    82A      0.738310    83A      0.772089  
      84A      0.779552    85A      0.808391    86A      0.822403  
      87A      0.854335    88A      0.910210    89A      0.951159  
      90A      0.970328    91A      0.999158    92A      1.018870  
      93A      1.052368    94A      1.074889    95A      1.125122  
      96A      1.142975    97A      1.246106    98A      1.276278  
      99A      1.279360   100A      1.311116   101A      1.321064  
     102A      1.341862   103A      1.360656   104A      1.390762  
     105A      1.431806   106A      1.479580   107A      1.537130  
     108A      1.581416   109A      1.627597   110A      1.664232  
     111A      1.709772   112A      1.731480   113A      1.748410  
     114A      1.780787   115A      1.810042   116A      1.828500  
     117A      1.892870   118A      1.932427   119A      1.971458  
     120A      1.975820   121A      1.985321   122A      1.999049  
     123A      2.023620   124A      2.033211   125A      2.121162  
     126A      2.131401   127A      2.154508   128A      2.192458  
     129A      2.238034   130A      2.353829   131A      2.367778  
     132A      2.389978   133A      2.448486   134A      2.451049  
     135A      2.487253   136A      2.512201   137A      2.556222  
     138A      2.585161   139A      2.599674   140A      2.629518  
     141A      2.734948   142A      2.845301   143A      2.979860  
     144A      3.257591   145A      3.625745   146A      3.685449  
     147A      3.912896   148A      3.945737   149A      3.963652  
     150A      4.043756   151A      4.173596   152A      4.252532  
     153A      4.545917  

    Final Occupation by Irrep:
              A 
    DOCC [    32 ]

  Energy converged.

  @DF-RKS Final Energy:  -381.44732977118611

   => Energetics <=

    Nuclear Repulsion Energy =            416.6277193864567607
    One-Electron Energy =               -1328.6000126431922581
    Two-Electron Energy =                 574.9453426621452081
    DFT Exchange-Correlation Energy =     -44.4084974065958846
    Empirical Dispersion Energy =          -0.0118817700000000
    VV10 Nonlocal Energy =                  0.0000000000000000
    Total Energy =                       -381.4473297711861619



Properties will be evaluated at   0.000000,   0.000000,   0.000000 [a0]

Properties computed using the SCF density matrix

  Nuclear Dipole Moment: [e a0]
     X:     0.0532      Y:     0.0291      Z:    -0.0721

  Electronic Dipole Moment: [e a0]
     X:     0.0823      Y:     0.0806      Z:    -2.0496

  Dipole Moment: [e a0]
     X:     0.1355      Y:     0.1097      Z:    -2.1217     Total:     2.1289

  Dipole Moment: [D]
     X:     0.3443      Y:     0.2789      Z:    -5.3929     Total:     5.4111


*** tstop() called on arancio.prib.upf.edu at Sat Sep 29 20:32:03 2018
Module time:
	user time   =      92.49 seconds =       1.54 minutes
	system time =       0.45 seconds =       0.01 minutes
	total time  =         26 seconds =       0.43 minutes
Total time:
	user time   =      92.49 seconds =       1.54 minutes
	system time =       0.45 seconds =       0.01 minutes
	total time  =         26 seconds =       0.43 minutes

*** tstart() called on arancio.prib.upf.edu
*** at Sat Sep 29 20:32:03 2018


         ------------------------------------------------------------
                                   SCF GRAD                          
                          Rob Parrish, Justin Turney,                
                       Andy Simmonett, and Alex Sokolov              
         ------------------------------------------------------------

  ==> Geometry <==

    Molecular point group: c1
    Full point group: C1

    Geometry (in Angstrom), charge = 1, multiplicity = 1:

       Center              X                  Y                   Z               Mass       
    ------------   -----------------  -----------------  -----------------  -----------------
         C            0.000000000000     0.000000000000    -0.177864000000    12.000000000000
         C            0.036678000000     1.219374000000     0.524165000000    12.000000000000
         C            0.031765000000     1.213120000000     1.915444000000    12.000000000000
         C            0.000000000000     0.000000000000     2.610107000000    12.000000000000
         C           -0.031765000000    -1.213120000000     1.915444000000    12.000000000000
         C           -0.036678000000    -1.219375000000     0.524165000000    12.000000000000
         C            0.000000000000     0.000000000000    -1.644734000000    12.000000000000
         H            0.018170000000     2.164705000000    -0.010854000000     1.007825032070
         H            0.042402000000     2.152895000000     2.457886000000     1.007825032070
         H            0.000000000000     0.000000000000     3.695756000000     1.007825032070
         H           -0.042402000000    -2.152895000000     2.457886000000     1.007825032070
         H           -0.018170000000    -2.164705000000    -0.010853000000     1.007825032070
         N           -0.712590000000    -0.905950000000    -2.308461000000    14.003074004780
         N            0.712590000000     0.905950000000    -2.308460000000    14.003074004780
         H            0.673432000000     1.006470000000    -3.315997000000     1.007825032070
         H            1.377190000000     1.485970000000    -1.813316000000     1.007825032070
         H           -1.714928000000    -0.951696000000    -2.179969000000     1.007825032070
         H           -0.307544000000    -1.525319000000    -3.000622000000     1.007825032070

  Nuclear repulsion =  416.627719386456761

  ==> Basis Set <==

  Basis Set: 6-31G*
    Blend: 6-31G*
    Number of shells: 72
    Number of basis function: 153
    Number of Cartesian functions: 153
    Spherical Harmonics?: false
    Max angular momentum: 2

  ==> DFJKGrad: Density-Fitted SCF Gradients <==

    Gradient:                    1
    J tasked:                  Yes
    K tasked:                  Yes
    wK tasked:                  No
    OpenMP threads:              4
    Integrals threads:           4
    Memory (MB):              2002
    Schwarz Cutoff:          0E+00
    Fitting Condition:       1E-12

   => Auxiliary Basis Set <=

  Basis Set: (6-31G* AUX)
    Blend: CC-PVDZ-JKFIT
    Number of shells: 297
    Number of basis function: 954
    Number of Cartesian functions: 954
    Spherical Harmonics?: false
    Max angular momentum: 3

  ==> DFT Potential <==

   => Composite Functional: B3LYP-D3ZERO <= 

    B3LYP-d3zero Hyb-GGA Exchange-Correlation Functional

    P. J. Stephens, F. J. Devlin, C. F. Chabalowski, and M. J. Frisch, J. Phys. Chem. 98, 11623 (1994)

    Deriv               =              1
    GGA                 =           TRUE
    Meta                =          FALSE

    Exchange Hybrid     =           TRUE
    MP2 Hybrid          =          FALSE

   => Exchange Functionals <=

    0.0800   Slater exchange
    0.7200         Becke 88

   => Exact (HF) Exchange <=

    0.2000               HF 

   => Correlation Functionals <=

    0.1900   Vosko, Wilk & Nusair (VWN5_RPA)
    0.8100   Lee, Yang & Parr

   => Molecular Quadrature <=

    Radial Scheme       =       TREUTLER
    Pruning Scheme      =           FLAT
    Nuclear Scheme      =       TREUTLER

    BS radius alpha     =              1
    Pruning alpha       =              1
    Radial Points       =             75
    Spherical Points    =            302
    Total Points        =         397096
    Total Blocks        =           3007
    Max Points          =            256
    Max Functions       =            149


  -Total Gradient:
     Atom            X                  Y                   Z
    ------   -----------------  -----------------  -----------------
       1        0.005490560405    -0.009663590467     0.008427016309
       2       -0.000905055897    -0.001657876782    -0.005779786730
       3       -0.000624505798    -0.002818934105     0.001831213156
       4        0.000100298770     0.000657474896    -0.000172587653
       5       -0.001016125611     0.000306402454     0.001155059353
       6        0.001197352893     0.003941289741    -0.000674251241
       7       -0.013318582339    -0.020340820867    -0.020270957133
       8        0.000452557380    -0.000152120831     0.000087155433
       9        0.000131967299     0.000040201516    -0.000251041179
      10        0.000219038982    -0.000084136869    -0.000103100600
      11       -0.000093412966    -0.000001834790     0.000028832956
      12        0.001914498347    -0.001543279974     0.001016291124
      13        0.011285820534     0.021122396697     0.019060402201
      14       -0.004626205558     0.008197707207    -0.004509148172
      15        0.002605348087     0.001943763343     0.001361782602
      16       -0.003463896804    -0.000449637920    -0.000391252433
      17       -0.001423616743     0.010343793215    -0.010360488233
      18        0.002067985353    -0.009838687924     0.009539773948


*** tstop() called on arancio.prib.upf.edu at Sat Sep 29 20:32:10 2018
Module time:
	user time   =      28.40 seconds =       0.47 minutes
	system time =       0.18 seconds =       0.00 minutes
	total time  =          7 seconds =       0.12 minutes
Total time:
	user time   =     120.94 seconds =       2.02 minutes
	system time =       0.64 seconds =       0.01 minutes
	total time  =         33 seconds =       0.55 minutes

			-----------------------------------------
			 OPTKING 2.0: for geometry optimizations 
			  - R.A. King,  Bethel University        
			-----------------------------------------
	At level 1: Red. Int., RFO, no backsteps, dynamic trust

	Internal coordinates to be generated automatically.
	Detected frag 1 with atoms:  1 2 3 4 5 6 7 8 9 10 11 12 13 14 15 16 17 18
	---Fragment 1 Bond Connectivity---
	 1 : 2 6 7
	 2 : 1 3 8
	 3 : 2 4 9
	 4 : 3 5 10
	 5 : 4 6 11
	 6 : 1 5 12
	 7 : 1 13 14
	 8 : 2
	 9 : 3
	 10 : 4
	 11 : 5
	 12 : 6
	 13 : 7 17 18
	 14 : 7 15 16
	 15 : 14
	 16 : 14
	 17 : 13
	 18 : 13

	Assuming in current code that numbering for constraints corresponds to unified fragment.
	Frozen dihedral atom list: 
	     1     7    13    17
	---Fragment 1 Geometry and Gradient---
	 C           0.0000000000        0.0000000000       -0.3361142489
	 C           0.0693113751        2.3042829136        0.9905282984
	 C           0.0600271506        2.2924645663        3.6196645829
	 C           0.0000000000        0.0000000000        4.9323874075
	 C          -0.0600271506       -2.2924645663        3.6196645829
	 C          -0.0693113751       -2.3042848033        0.9905282984
	 C           0.0000000000        0.0000000000       -3.1080968214
	 H           0.0343363238        4.0906996085       -0.0205110874
	 H           0.0801281675        4.0683819429        4.6447314059
	 H           0.0000000000        0.0000000000        6.9839666940
	 H          -0.0801281675       -4.0683819429        4.6447314059
	 H          -0.0343363238       -4.0906996085       -0.0205091977
	 N          -1.3465999450       -1.7119973901       -4.3623590784
	 N           1.3465999450        1.7119973901       -4.3623571887
	 H           1.2726020491        1.9019526610       -6.2663261875
	 H           2.6025119329        2.8080763417       -3.4266706324
	 H          -3.2407442576       -1.7984448018       -4.1195443882
	 H          -0.5811739338       -2.8824351753       -5.6703538083
	             0.0054905604       -0.0096635905        0.0084270163
	            -0.0009050559       -0.0016578768       -0.0057797867
	            -0.0006245058       -0.0028189341        0.0018312132
	             0.0001002988        0.0006574749       -0.0001725877
	            -0.0010161256        0.0003064025        0.0011550594
	             0.0011973529        0.0039412897       -0.0006742512
	            -0.0133185823       -0.0203408209       -0.0202709571
	             0.0004525574       -0.0001521208        0.0000871554
	             0.0001319673        0.0000402015       -0.0002510412
	             0.0002190390       -0.0000841369       -0.0001031006
	            -0.0000934130       -0.0000018348        0.0000288330
	             0.0019144983       -0.0015432800        0.0010162911
	             0.0112858205        0.0211223967        0.0190604022
	            -0.0046262056        0.0081977072       -0.0045091482
	             0.0026053481        0.0019437633        0.0013617826
	            -0.0034638968       -0.0004496379       -0.0003912524
	            -0.0014236167        0.0103437932       -0.0103604882
	             0.0020679854       -0.0098386879        0.0095397739

	Previous optimization step data not found.  Starting new optimization.

	---Fragment 1 Intrafragment Coordinates---
	 - Coordinate -           - BOHR/RAD -       - ANG/DEG -
	 R(1,2)           =         2.659794	       1.407502
	 R(1,6)           =         2.659796	       1.407503
	 R(1,7)           =         2.771983	       1.466870
	 R(2,3)           =         2.629179	       1.391302
	 R(2,8)           =         2.052976	       1.086388
	 R(3,4)           =         2.642393	       1.398294
	 R(3,9)           =         2.050622	       1.085142
	 R(4,5)           =         2.642393	       1.398294
	 R(4,10)          =         2.051579	       1.085649
	 R(5,6)           =         2.629179	       1.391302
	 R(5,11)          =         2.050622	       1.085142
	 R(6,12)          =         2.052973	       1.086386
	 R(7,13)          =         2.513452	       1.330061
	 R(7,14)          =         2.513451	       1.330061
	 R(13,17)         =         1.911600	       1.011575
	 R(13,18)         =         1.914850	       1.013295
	 R(14,15)         =         1.914852	       1.013296
	 R(14,16)         =         1.911600	       1.011575
	 B(1,2,3)         =         2.088380	     119.655376
	 B(1,2,8)         =         2.103396	     120.515689
	 B(1,6,5)         =         2.088379	     119.655315
	 B(1,6,12)        =         2.103396	     120.515729
	 B(1,7,13)        =         2.093264	     119.935172
	 B(1,7,14)        =         2.093263	     119.935135
	 B(2,1,6)         =         2.097220	     120.161857
	 B(2,1,7)         =         2.092983	     119.919082
	 B(2,3,4)         =         2.095279	     120.050636
	 B(2,3,9)         =         2.089719	     119.732108
	 B(3,2,8)         =         2.090149	     119.756722
	 B(3,4,5)         =         2.101793	     120.423859
	 B(3,4,10)        =         2.090696	     119.788070
	 B(4,3,9)         =         2.098135	     120.214297
	 B(4,5,6)         =         2.095280	     120.050677
	 B(4,5,11)        =         2.098135	     120.214297
	 B(5,4,10)        =         2.090696	     119.788070
	 B(5,6,12)        =         2.090149	     119.756743
	 B(6,1,7)         =         2.092982	     119.919061
	 B(6,5,11)        =         2.089719	     119.732067
	 B(7,13,17)       =         2.092412	     119.886351
	 B(7,13,18)       =         2.144860	     122.891444
	 B(7,14,15)       =         2.144860	     122.891405
	 B(7,14,16)       =         2.092412	     119.886393
	 B(13,7,14)       =         2.096659	     120.129694
	 B(15,14,16)      =         2.043399	     117.078146
	 B(17,13,18)      =         2.043399	     117.078146
	 D(1,2,3,4)       =         0.007799	       0.446825
	 D(1,2,3,9)       =        -3.122896	    -178.928735
	 D(1,6,5,4)       =         0.007799	       0.446822
	 D(1,6,5,11)      =        -3.122896	    -178.928737
	*D(1,7,13,17)     =         1.047197	      59.999985
	 D(1,7,13,18)     =        -2.172812	    -124.492964
	 D(1,7,14,15)     =        -3.032165	    -173.730230
	 D(1,7,14,16)     =         0.187844	      10.762681
	 D(2,1,6,5)       =        -0.003906	      -0.223802
	 D(2,1,6,12)      =        -3.091437	    -177.126283
	 D(2,1,7,13)      =        -2.505167	    -143.535494
	 D(2,1,7,14)      =         0.636426	      36.464506
	 D(2,3,4,5)       =        -0.003942	      -0.225875
	 D(2,3,4,10)      =         3.137650	     179.774125
	 D(3,2,1,6)       =        -0.003906	      -0.223806
	 D(3,2,1,7)       =         3.137687	     179.776196
	 D(3,4,5,6)       =        -0.003942	      -0.225874
	 D(3,4,5,11)      =         3.126699	     179.146646
	 D(4,3,2,8)       =         3.095744	     177.373058
	 D(4,5,6,12)      =         3.095744	     177.373055
	 D(5,4,3,9)       =         3.126699	     179.146646
	 D(5,6,1,7)       =         3.137687	     179.776197
	 D(6,1,2,8)       =        -3.091437	    -177.126287
	 D(6,1,7,13)      =         0.636426	      36.464508
	 D(6,1,7,14)      =        -2.505167	    -143.535492
	 D(6,5,4,10)      =         3.137650	     179.774126
	 D(7,1,2,8)       =         0.050156	       2.873714
	 D(7,1,6,12)      =         0.050156	       2.873716
	 D(8,2,3,9)       =        -0.034950	      -2.002503
	 D(9,3,4,10)      =        -0.014894	      -0.853354
	 D(10,4,5,11)     =        -0.014894	      -0.853354
	 D(11,5,6,12)     =        -0.034950	      -2.002504
	 D(13,7,14,15)    =         0.109428	       6.269770
	 D(13,7,14,16)    =        -2.953748	    -169.237319
	 D(14,7,13,17)    =        -2.094395	    -120.000015
	 D(14,7,13,18)    =         0.968781	      55.507036

	Current energy   :      -381.4473297712

	Generating empirical Hessian (Schlegel '84) for each fragment.
	Taking RFO optimization step.
	Going to follow RFO solution 1.
	Using RFO vector 1.

	Determining step-restricting scale parameter for RS-RFO.
	Maximum step size allowed    0.50000

	 Iter      |step|        alpha        rfo_root  
	------------------------------------------------
	    0     0.58537       1.00000           1
	    1     0.51594       1.47524           1
	    2     0.50074       1.60843           1
	    3     0.50000       1.61524           1
	------------------------------------------------
	Norm of target step-size    0.50000
	Projected energy change by RFO approximation:        -0.0059771473

	Back-transformation to cartesian coordinates...
	Could not converge backtransformation.
	Using first guess instead.

	Back-transformation to cartesian coordinates to adjust frozen coordinates...
	Successfully converged to displaced geometry.

	--- Internal Coordinate Step in ANG or DEG, aJ/ANG or AJ/DEG ---
	 ---------------------------------------------------------------------------
	   Coordinate                Previous        Force       Change         New 
	   ----------                --------       ------       ------       ------
	    1 R(1,2)          =      1.407502     0.035544     0.005592     1.413094
	    2 R(1,6)          =      1.407503     0.005267     0.001112     1.408615
	    3 R(1,7)          =      1.466870    -0.045872    -0.007645     1.459225
	    4 R(2,3)          =      1.391302    -0.013923    -0.001448     1.389854
	    5 R(2,8)          =      1.086388     0.001510     0.000370     1.086758
	    6 R(3,4)          =      1.398294     0.013483     0.001971     1.400265
	    7 R(3,9)          =      1.085142     0.000737     0.000631     1.085774
	    8 R(4,5)          =      1.398294     0.011302     0.002283     1.400577
	    9 R(4,10)         =      1.085649     0.000847     0.000371     1.086020
	   10 R(5,6)          =      1.391302    -0.006578    -0.000445     1.390856
	   11 R(5,11)         =      1.085142    -0.000142     0.000191     1.085333
	   12 R(6,12)         =      1.086386    -0.007209     0.000438     1.086825
	   13 R(7,13)         =      1.330061     0.249028     0.032129     1.362190
	   14 R(7,14)         =      1.330061    -0.044733    -0.004492     1.325569
	   15 R(13,17)        =      1.011575     0.003083     0.007215     1.018790
	   16 R(13,18)        =      1.013295    -0.002673     0.025275     1.038570
	   17 R(14,15)        =      1.013296     0.010401     0.003143     1.016439
	   18 R(14,16)        =      1.011575     0.022444     0.003364     1.014939
	   19 B(1,2,3)        =    119.655376     0.000023     0.111147   119.766523
	   20 B(1,2,8)        =    120.515689    -0.000013    -0.045900   120.469789
	   21 B(1,6,5)        =    119.655315    -0.000041    -0.174622   119.480692
	   22 B(1,6,12)       =    120.515729    -0.000104    -0.435126   120.080604
	   23 B(1,7,13)       =    119.935172     0.000410     0.982463   120.917635
	   24 B(1,7,14)       =    119.935135     0.000001     0.006302   119.941437
	   25 B(2,1,6)        =    120.161857     0.000004     0.046131   120.207988
	   26 B(2,1,7)        =    119.919082     0.000403     1.123119   121.042201
	   27 B(2,3,4)        =    120.050636    -0.000078    -0.265398   119.785238
	   28 B(2,3,9)        =    119.732108     0.000058     0.217518   119.949625
	   29 B(3,2,8)        =    119.756722    -0.000010    -0.057188   119.699534
	   30 B(3,4,5)        =    120.423859     0.000072     0.204556   120.628415
	   31 B(3,4,10)       =    119.788070    -0.000042    -0.144425   119.643646
	   32 B(4,3,9)        =    120.214297     0.000020     0.046285   120.260582
	   33 B(4,5,6)        =    120.050677     0.000022     0.067999   120.118676
	   34 B(4,5,11)       =    120.214297    -0.000009     0.004370   120.218667
	   35 B(5,4,10)       =    119.788070    -0.000030    -0.061401   119.726669
	   36 B(5,6,12)       =    119.756743     0.000147     0.634858   120.391601
	   37 B(6,1,7)        =    119.919061    -0.000407    -1.169251   118.749811
	   38 B(6,5,11)       =    119.732067    -0.000013    -0.069462   119.662604
	   39 B(7,13,17)      =    119.886351     0.000127     0.508002   120.394352
	   40 B(7,13,18)      =    122.891444    -0.000142    -2.258312   120.633132
	   41 B(7,14,15)      =    122.891405    -0.000352    -1.509918   121.381487
	   42 B(7,14,16)      =    119.886393     0.000223     0.895542   120.781935
	   43 B(13,7,14)      =    120.129694    -0.000411    -1.360091   118.769603
	   44 B(15,14,16)     =    117.078146     0.000121     0.455524   117.533670
	   45 B(17,13,18)     =    117.078146    -0.000028    -0.008752   117.069394
	   46 D(1,2,3,4)      =      0.446825    -0.000002    -0.211303     0.235522
	   47 D(1,2,3,9)      =   -178.928735    -0.000000    -0.061525  -178.990261
	   48 D(1,6,5,4)      =      0.446822     0.000008     0.671563     1.118385
	   49 D(1,6,5,11)     =   -178.928737     0.000002     0.130871  -178.797866
	   50 *D(1,7,13,17)   =     59.999985    -0.000000     0.000000    59.999985
	   51 D(1,7,13,18)    =   -124.492964    -0.000154   -11.665783  -136.158747
	   52 D(1,7,14,15)    =   -173.730230    -0.000033    -2.989542  -176.719772
	   53 D(1,7,14,16)    =     10.762681    -0.000008    -1.005425     9.757255
	   54 D(2,1,6,5)      =     -0.223802    -0.000012    -1.087409    -1.311210
	   55 D(2,1,6,12)     =   -177.126283    -0.000020    -1.698912  -178.825195
	   56 D(2,1,7,13)     =   -143.535494    -0.000076    -7.821762  -151.357256
	   57 D(2,1,7,14)     =     36.464506     0.000003    -0.740345    35.724161
	   58 D(2,3,4,5)      =     -0.225875    -0.000002    -0.204675    -0.430550
	   59 D(2,3,4,10)     =    179.774125     0.000002     0.206398   179.980523
	   60 D(3,2,1,6)      =     -0.223806     0.000009     0.857902     0.634096
	   61 D(3,2,1,7)      =    179.776196     0.000009     0.847943   180.624138
	   62 D(3,4,5,6)      =     -0.225874    -0.000001    -0.029038    -0.254913
	   63 D(3,4,5,11)     =    179.146646     0.000005     0.514223   179.660869
	   64 D(4,3,2,8)      =    177.373058    -0.000001    -0.036193   177.336865
	   65 D(4,5,6,12)     =    177.373055     0.000013     1.251432   178.624487
	   66 D(5,4,3,9)      =    179.146646    -0.000004    -0.353854   178.792792
	   67 D(5,6,1,7)      =    179.776197    -0.000011    -1.077676   178.698521
	   68 D(6,1,2,8)      =   -177.126287     0.000007     0.681724  -176.444563
	   69 D(6,1,7,13)     =     36.464508    -0.000077    -7.831579    28.632928
	   70 D(6,1,7,14)     =   -143.535492     0.000002    -0.750162  -144.285654
	   71 D(6,5,4,10)     =    179.774126    -0.000005    -0.440451   179.333674
	   72 D(7,1,2,8)      =      2.873714     0.000007     0.671765     3.545479
	   73 D(7,1,6,12)     =      2.873716    -0.000019    -1.689180     1.184536
	   74 D(8,2,3,9)      =     -2.002503     0.000001     0.113585    -1.888918
	   75 D(9,3,4,10)     =     -0.853354     0.000000     0.057219    -0.796135
	   76 D(10,4,5,11)    =     -0.853354     0.000001     0.102810    -0.750544
	   77 D(11,5,6,12)    =     -2.002504     0.000007     0.710740    -1.291764
	   78 D(13,7,14,15)   =      6.269770     0.000046     3.940418    10.210188
	   79 D(13,7,14,16)   =   -169.237319     0.000071     5.924535  -163.312784
	   80 D(14,7,13,17)   =   -120.000015    -0.000080    -7.000012  -127.000027
	   81 D(14,7,13,18)   =     55.507036    -0.000234   -18.665795    36.841241
	 ---------------------------------------------------------------------------
	Successfully symmetrized geometry.

  ==> Convergence Check <==

  Measures of convergence in internal coordinates in au.
  Criteria marked as inactive (o), active & met (*), and active & unmet ( ).
  --------------------------------------------------------------------------------------------- ~
   Step     Total Energy     Delta E     MAX Force     RMS Force      MAX Disp      RMS Disp    ~
  --------------------------------------------------------------------------------------------- ~
    Convergence Criteria    1.00e-06 *    3.00e-04 *             o    1.20e-03 *             o  ~
  --------------------------------------------------------------------------------------------- ~
      1    -381.44732977   -3.81e+02      3.02e-02      4.34e-03 o    3.26e-01      5.38e-02 o  ~
  ---------------------------------------------------------------------------------------------

	Writing optimization data to binary file.
	Structure for next step:
	Cartesian Geometry (in Angstrom)
	    C    -0.0285204300   0.0315097797  -0.1656307516
	    C     0.0460643533   1.2468077789   0.5515327126
	    C     0.0688918736   1.2277437105   1.9410680810
	    C     0.0228272390   0.0043836947   2.6207823151
	    C    -0.0551899325  -1.2021820495   1.9138680969
	    C    -0.0930943523  -1.1953002497   0.5235454261
	    C    -0.0405532245   0.0183446751  -1.6247464157
	    H     0.0380220269   2.1981005759   0.0261572103
	    H     0.1095987005   2.1604737045   2.4953801391
	    H     0.0411118384  -0.0078472902   3.7065796969
	    H    -0.0849995995  -2.1468907974   2.4473331703
	    H    -0.1311471808  -2.1297691983  -0.0300862486
	    N    -0.6636781638  -0.9801286036  -2.3105517997
	    N     0.6763898597   0.9053190593  -2.3003218438
	    H     0.6459307685   0.9478014714  -3.3154155160
	    H     1.3480912590   1.5000768673  -1.8257886277
	    H    -1.6617720940  -1.1441402383  -2.1887244433
	    H    -0.2098229416  -1.4188788903  -3.1352582018
			--------------------------
			 OPTKING Finished Execution 
			--------------------------

    Structure for next step:
    Molecular point group: c1
    Full point group: C1

    Geometry (in Angstrom), charge = 1, multiplicity = 1:

    C           -0.028520430015     0.031509779736    -0.165630751612
    C            0.046064353266     1.246807778938     0.551532712559
    C            0.068891873607     1.227743710484     1.941068080967
    C            0.022827239037     0.004383694706     2.620782315133
    C           -0.055189932470    -1.202182049496     1.913868096859
    C           -0.093094352278    -1.195300249694     0.523545426123
    C           -0.040553224471     0.018344675104    -1.624746415663
    H            0.038022026873     2.198100575911     0.026157210263
    H            0.109598700457     2.160473704530     2.495380139087
    H            0.041111838394    -0.007847290224     3.706579696879
    H           -0.084999599465    -2.146890797405     2.447333170332
    H           -0.131147180802    -2.129769198251    -0.030086248595
    N           -0.663678163812    -0.980128603635    -2.310551799722
    N            0.676389859694     0.905319059271    -2.300321843757
    H            0.645930768518     0.947801471427    -3.315415516036
    H            1.348091259004     1.500076867257    -1.825788627708
    H           -1.661772093974    -1.144140238317    -2.188724443331
    H           -0.209822941561    -1.418878890342    -3.135258201780

gradient() will perform analytic gradient computation.

*** tstart() called on arancio.prib.upf.edu
*** at Sat Sep 29 20:32:11 2018

   => Loading Basis Set <=

    Name: 6-31G*
    Role: ORBITAL
    Keyword: BASIS
    atoms 1-7         entry C          line   111 file /shared/joao/test_parameterize/miniconda3/share/psi4/basis/6-31gs.gbs 
    atoms 8-12, 15-18 entry H          line    44 file /shared/joao/test_parameterize/miniconda3/share/psi4/basis/6-31gs.gbs 
    atoms 13-14       entry N          line   128 file /shared/joao/test_parameterize/miniconda3/share/psi4/basis/6-31gs.gbs 


         ---------------------------------------------------------
                                   SCF
            by Justin Turney, Rob Parrish, Andy Simmonett
                             and Daniel Smith
                              RKS Reference
                        4 Threads,   2861 MiB Core
         ---------------------------------------------------------

  ==> Geometry <==

    Molecular point group: c1
    Full point group: C1

    Geometry (in Angstrom), charge = 1, multiplicity = 1:

       Center              X                  Y                   Z               Mass       
    ------------   -----------------  -----------------  -----------------  -----------------
         C           -0.028520430015     0.031509779736    -0.165630751612    12.000000000000
         C            0.046064353266     1.246807778938     0.551532712559    12.000000000000
         C            0.068891873607     1.227743710484     1.941068080967    12.000000000000
         C            0.022827239037     0.004383694706     2.620782315133    12.000000000000
         C           -0.055189932470    -1.202182049496     1.913868096859    12.000000000000
         C           -0.093094352278    -1.195300249694     0.523545426123    12.000000000000
         C           -0.040553224471     0.018344675104    -1.624746415663    12.000000000000
         H            0.038022026873     2.198100575911     0.026157210263     1.007825032070
         H            0.109598700457     2.160473704530     2.495380139087     1.007825032070
         H            0.041111838394    -0.007847290224     3.706579696879     1.007825032070
         H           -0.084999599465    -2.146890797405     2.447333170332     1.007825032070
         H           -0.131147180802    -2.129769198251    -0.030086248595     1.007825032070
         N           -0.663678163812    -0.980128603635    -2.310551799722    14.003074004780
         N            0.676389859694     0.905319059271    -2.300321843757    14.003074004780
         H            0.645930768518     0.947801471427    -3.315415516036     1.007825032070
         H            1.348091259004     1.500076867257    -1.825788627708     1.007825032070
         H           -1.661772093974    -1.144140238317    -2.188724443331     1.007825032070
         H           -0.209822941561    -1.418878890342    -3.135258201780     1.007825032070

  Running in c1 symmetry.

  Rotational constants: A =      0.12099  B =      0.03956  C =      0.03105 [cm^-1]
  Rotational constants: A =   3627.04301  B =   1186.09536  C =    930.88402 [MHz]
  Nuclear repulsion =  415.733327295585752

  Charge       = 1
  Multiplicity = 1
  Electrons    = 64
  Nalpha       = 32
  Nbeta        = 32

  ==> Algorithm <==

  SCF Algorithm Type is DF.
  DIIS enabled.
  MOM disabled.
  Fractional occupation disabled.
  Guess Type is READ.
  Energy threshold   = 1.00e-08
  Density threshold  = 1.00e-08
  Integral threshold = 0.00e+00

  ==> Primary Basis <==

  Basis Set: 6-31G*
    Blend: 6-31G*
    Number of shells: 72
    Number of basis function: 153
    Number of Cartesian functions: 153
    Spherical Harmonics?: false
    Max angular momentum: 2

  ==> DFT Potential <==

   => Composite Functional: B3LYP-D3ZERO <= 

    B3LYP-d3zero Hyb-GGA Exchange-Correlation Functional

    P. J. Stephens, F. J. Devlin, C. F. Chabalowski, and M. J. Frisch, J. Phys. Chem. 98, 11623 (1994)

    Deriv               =              1
    GGA                 =           TRUE
    Meta                =          FALSE

    Exchange Hybrid     =           TRUE
    MP2 Hybrid          =          FALSE

   => Exchange Functionals <=

    0.0800   Slater exchange
    0.7200         Becke 88

   => Exact (HF) Exchange <=

    0.2000               HF 

   => Correlation Functionals <=

    0.1900   Vosko, Wilk & Nusair (VWN5_RPA)
    0.8100   Lee, Yang & Parr

   => Molecular Quadrature <=

    Radial Scheme       =       TREUTLER
    Pruning Scheme      =           FLAT
    Nuclear Scheme      =       TREUTLER

    BS radius alpha     =              1
    Pruning alpha       =              1
    Radial Points       =             75
    Spherical Points    =            302
    Total Points        =         397067
    Total Blocks        =           3028
    Max Points          =            256
    Max Functions       =            149

   => -D3ZERO: Empirical Dispersion <=

    Grimme's -D3 (zero-damping) Dispersion Correction
    Grimme S.; Antony J.; Ehrlich S.; Krieg H. (2010), J. Chem. Phys., 132: 154104

        S6 =   1.000000E+00
        S8 =   1.703000E+00
       SR6 =   1.261000E+00
       SR8 =   1.000000E+00
    ALPHA6 =   1.400000E+01

   => Loading Basis Set <=

    Name: (6-31G* AUX)
    Role: JKFIT
    Keyword: DF_BASIS_SCF
    atoms 1-7         entry C          line   121 file /shared/joao/test_parameterize/miniconda3/share/psi4/basis/cc-pvdz-jkfit.gbs 
    atoms 8-12, 15-18 entry H          line    51 file /shared/joao/test_parameterize/miniconda3/share/psi4/basis/cc-pvdz-jkfit.gbs 
    atoms 13-14       entry N          line   171 file /shared/joao/test_parameterize/miniconda3/share/psi4/basis/cc-pvdz-jkfit.gbs 

  Reading orbitals from file 180, no projection.

  ==> Pre-Iterations <==

   -------------------------------------------------------
    Irrep   Nso     Nmo     Nalpha   Nbeta   Ndocc  Nsocc
   -------------------------------------------------------
     A        153     153       0       0       0       0
   -------------------------------------------------------
    Total     153     153      32      32      32       0
   -------------------------------------------------------

  ==> Integral Setup <==

  ==> DiskDFJK: Density-Fitted J/K Matrices <==

    J tasked:                  Yes
    K tasked:                  Yes
    wK tasked:                  No
    OpenMP threads:              4
    Integrals threads:           4
    Memory (MB):              2002
    Algorithm:                Core
    Integral Cache:           NONE
    Schwarz Cutoff:          1E-12
    Fitting Condition:       1E-12

   => Auxiliary Basis Set <=

  Basis Set: (6-31G* AUX)
    Blend: CC-PVDZ-JKFIT
    Number of shells: 297
    Number of basis function: 954
    Number of Cartesian functions: 954
    Spherical Harmonics?: false
    Max angular momentum: 3

  Minimum eigenvalue in the overlap matrix is 4.9139681021E-04.
  Using Symmetric Orthogonalization.

  SCF Guess: Orbitals guess was supplied from a previous computation.

  ==> Iterations <==

                           Total Energy        Delta E     RMS |[F,P]|

   @DF-RKS iter   0:  -381.40768741174435   -3.81408e+02   2.47199e-03 
   @DF-RKS iter   1:  -381.45462993112392   -4.69425e-02   2.38451e-04 
   @DF-RKS iter   2:  -381.45462689186536    3.03926e-06   3.84568e-04 DIIS
   @DF-RKS iter   3:  -381.45504815974238   -4.21268e-04   7.88097e-05 DIIS
   @DF-RKS iter   4:  -381.45506110720930   -1.29475e-05   4.49022e-05 DIIS
   @DF-RKS iter   5:  -381.45506689189347   -5.78468e-06   1.40192e-05 DIIS
   @DF-RKS iter   6:  -381.45506746824509   -5.76352e-07   3.83260e-06 DIIS
   @DF-RKS iter   7:  -381.45506751384147   -4.55964e-08   9.29638e-07 DIIS
   @DF-RKS iter   8:  -381.45506751573532   -1.89385e-09   4.38095e-07 DIIS
   @DF-RKS iter   9:  -381.45506751633127   -5.95946e-10   1.47085e-07 DIIS
   @DF-RKS iter  10:  -381.45506751639141   -6.01403e-11   4.69348e-08 DIIS
   @DF-RKS iter  11:  -381.45506751639789   -6.48015e-12   1.05580e-08 DIIS
   @DF-RKS iter  12:  -381.45506751639783    5.68434e-14   5.10516e-09 DIIS

  ==> Post-Iterations <==

    Orbital Energies [Eh]
    ---------------------

    Doubly Occupied:                                                      

       1A    -14.575313     2A    -14.549127     3A    -10.495031  
       4A    -10.371485     5A    -10.358046     6A    -10.355265  
       7A    -10.346979     8A    -10.341925     9A    -10.340274  
      10A     -1.175102    11A     -1.077505    12A     -1.013639  
      13A     -0.925354    14A     -0.902279    15A     -0.839561  
      16A     -0.777171    17A     -0.767677    18A     -0.735634  
      19A     -0.723226    20A     -0.697814    21A     -0.668502  
      22A     -0.625887    23A     -0.606068    24A     -0.581259  
      25A     -0.577861    26A     -0.559712    27A     -0.516697  
      28A     -0.506109    29A     -0.497786    30A     -0.463333  
      31A     -0.413907    32A     -0.406048  

    Virtual:                                                              

      33A     -0.236775    34A     -0.155361    35A     -0.133489  
      36A     -0.103704    37A     -0.074352    38A     -0.055114  
      39A     -0.035989    40A     -0.019719    41A      0.007816  
      42A      0.011326    43A      0.022984    44A      0.053231  
      45A      0.061079    46A      0.088420    47A      0.128858  
      48A      0.136409    49A      0.157418    50A      0.159492  
      51A      0.206245    52A      0.239415    53A      0.300456  
      54A      0.352916    55A      0.360670    56A      0.381632  
      57A      0.393977    58A      0.397527    59A      0.415835  
      60A      0.423228    61A      0.441146    62A      0.448056  
      63A      0.454996    64A      0.470743    65A      0.473653  
      66A      0.481346    67A      0.488177    68A      0.511766  
      69A      0.524799    70A      0.542035    71A      0.547344  
      72A      0.593902    73A      0.610941    74A      0.653826  
      75A      0.674032    76A      0.685034    77A      0.695180  
      78A      0.701535    79A      0.710563    80A      0.721061  
      81A      0.725254    82A      0.746692    83A      0.773176  
      84A      0.780224    85A      0.805196    86A      0.823506  
      87A      0.855841    88A      0.898709    89A      0.945051  
      90A      0.974001    91A      0.996055    92A      1.021523  
      93A      1.067778    94A      1.084490    95A      1.115838  
      96A      1.143945    97A      1.229365    98A      1.275271  
      99A      1.280608   100A      1.306329   101A      1.326235  
     102A      1.340970   103A      1.358413   104A      1.393431  
     105A      1.405364   106A      1.455325   107A      1.539281  
     108A      1.616263   109A      1.622607   110A      1.655167  
     111A      1.711934   112A      1.733420   113A      1.751199  
     114A      1.784849   115A      1.802476   116A      1.818349  
     117A      1.877647   118A      1.902346   119A      1.967092  
     120A      1.971219   121A      1.979064   122A      1.998491  
     123A      2.024946   124A      2.033945   125A      2.116901  
     126A      2.133383   127A      2.155050   128A      2.176319  
     129A      2.240478   130A      2.325390   131A      2.347629  
     132A      2.376584   133A      2.445740   134A      2.449623  
     135A      2.482656   136A      2.505569   137A      2.543685  
     138A      2.585347   139A      2.597811   140A      2.628105  
     141A      2.734204   142A      2.824249   143A      2.985042  
     144A      3.254000   145A      3.621627   146A      3.668166  
     147A      3.910233   148A      3.944339   149A      3.963557  
     150A      4.042502   151A      4.171808   152A      4.252890  
     153A      4.545468  

    Final Occupation by Irrep:
              A 
    DOCC [    32 ]

  Energy converged.

  @DF-RKS Final Energy:  -381.45506751639783

   => Energetics <=

    Nuclear Repulsion Energy =            415.7333272955857524
    One-Electron Energy =               -1326.8628962818013406
    Two-Electron Energy =                 574.0674331771278958
    DFT Exchange-Correlation Energy =     -44.3810738373101614
    Empirical Dispersion Energy =          -0.0118578700000000
    VV10 Nonlocal Energy =                  0.0000000000000000
    Total Energy =                       -381.4550675163978894



Properties will be evaluated at   0.000000,   0.000000,   0.000000 [a0]

Properties computed using the SCF density matrix

  Nuclear Dipole Moment: [e a0]
     X:    -0.5545      Y:     0.4216      Z:     0.8817

  Electronic Dipole Moment: [e a0]
     X:     0.6688      Y:    -0.3049      Z:    -3.0518

  Dipole Moment: [e a0]
     X:     0.1143      Y:     0.1167      Z:    -2.1700     Total:     2.1762

  Dipole Moment: [D]
     X:     0.2904      Y:     0.2965      Z:    -5.5157     Total:     5.5313


*** tstop() called on arancio.prib.upf.edu at Sat Sep 29 20:32:32 2018
Module time:
	user time   =      77.86 seconds =       1.30 minutes
	system time =       0.36 seconds =       0.01 minutes
	total time  =         21 seconds =       0.35 minutes
Total time:
	user time   =     199.82 seconds =       3.33 minutes
	system time =       1.09 seconds =       0.02 minutes
	total time  =         55 seconds =       0.92 minutes

*** tstart() called on arancio.prib.upf.edu
*** at Sat Sep 29 20:32:32 2018


         ------------------------------------------------------------
                                   SCF GRAD                          
                          Rob Parrish, Justin Turney,                
                       Andy Simmonett, and Alex Sokolov              
         ------------------------------------------------------------

  ==> Geometry <==

    Molecular point group: c1
    Full point group: C1

    Geometry (in Angstrom), charge = 1, multiplicity = 1:

       Center              X                  Y                   Z               Mass       
    ------------   -----------------  -----------------  -----------------  -----------------
         C           -0.028520430015     0.031509779736    -0.165630751612    12.000000000000
         C            0.046064353266     1.246807778938     0.551532712559    12.000000000000
         C            0.068891873607     1.227743710484     1.941068080967    12.000000000000
         C            0.022827239037     0.004383694706     2.620782315133    12.000000000000
         C           -0.055189932470    -1.202182049496     1.913868096859    12.000000000000
         C           -0.093094352278    -1.195300249694     0.523545426123    12.000000000000
         C           -0.040553224471     0.018344675104    -1.624746415663    12.000000000000
         H            0.038022026873     2.198100575911     0.026157210263     1.007825032070
         H            0.109598700457     2.160473704530     2.495380139087     1.007825032070
         H            0.041111838394    -0.007847290224     3.706579696879     1.007825032070
         H           -0.084999599465    -2.146890797405     2.447333170332     1.007825032070
         H           -0.131147180802    -2.129769198251    -0.030086248595     1.007825032070
         N           -0.663678163812    -0.980128603635    -2.310551799722    14.003074004780
         N            0.676389859694     0.905319059271    -2.300321843757    14.003074004780
         H            0.645930768518     0.947801471427    -3.315415516036     1.007825032070
         H            1.348091259004     1.500076867257    -1.825788627708     1.007825032070
         H           -1.661772093974    -1.144140238317    -2.188724443331     1.007825032070
         H           -0.209822941561    -1.418878890342    -3.135258201780     1.007825032070

  Nuclear repulsion =  415.733327295585752

  ==> Basis Set <==

  Basis Set: 6-31G*
    Blend: 6-31G*
    Number of shells: 72
    Number of basis function: 153
    Number of Cartesian functions: 153
    Spherical Harmonics?: false
    Max angular momentum: 2

  ==> DFJKGrad: Density-Fitted SCF Gradients <==

    Gradient:                    1
    J tasked:                  Yes
    K tasked:                  Yes
    wK tasked:                  No
    OpenMP threads:              4
    Integrals threads:           4
    Memory (MB):              2002
    Schwarz Cutoff:          0E+00
    Fitting Condition:       1E-12

   => Auxiliary Basis Set <=

  Basis Set: (6-31G* AUX)
    Blend: CC-PVDZ-JKFIT
    Number of shells: 297
    Number of basis function: 954
    Number of Cartesian functions: 954
    Spherical Harmonics?: false
    Max angular momentum: 3

  ==> DFT Potential <==

   => Composite Functional: B3LYP-D3ZERO <= 

    B3LYP-d3zero Hyb-GGA Exchange-Correlation Functional

    P. J. Stephens, F. J. Devlin, C. F. Chabalowski, and M. J. Frisch, J. Phys. Chem. 98, 11623 (1994)

    Deriv               =              1
    GGA                 =           TRUE
    Meta                =          FALSE

    Exchange Hybrid     =           TRUE
    MP2 Hybrid          =          FALSE

   => Exchange Functionals <=

    0.0800   Slater exchange
    0.7200         Becke 88

   => Exact (HF) Exchange <=

    0.2000               HF 

   => Correlation Functionals <=

    0.1900   Vosko, Wilk & Nusair (VWN5_RPA)
    0.8100   Lee, Yang & Parr

   => Molecular Quadrature <=

    Radial Scheme       =       TREUTLER
    Pruning Scheme      =           FLAT
    Nuclear Scheme      =       TREUTLER

    BS radius alpha     =              1
    Pruning alpha       =              1
    Radial Points       =             75
    Spherical Points    =            302
    Total Points        =         397067
    Total Blocks        =           3028
    Max Points          =            256
    Max Functions       =            149


  -Total Gradient:
     Atom            X                  Y                   Z
    ------   -----------------  -----------------  -----------------
       1        0.010981160411    -0.005778814295     0.003199164111
       2       -0.000495299520     0.000426308015    -0.000444571522
       3       -0.000582082832    -0.000170430674     0.001391133847
       4        0.000277577884     0.001499534668     0.000372946378
       5       -0.000074131020    -0.000802096656    -0.000485964885
       6        0.000661101934     0.001773836695    -0.001360149072
       7       -0.005045491815     0.009112942044    -0.000591964314
       8        0.000285055059     0.000105358445     0.000274644681
       9        0.000002676704     0.000445208275     0.000224595961
      10       -0.000067636631     0.000102610381     0.000132710848
      11       -0.000111629643    -0.000256162389    -0.000184899910
      12        0.000382343153    -0.001605641349    -0.000382212023
      13       -0.007482086532     0.002696483708     0.013440463229
      14       -0.004670471370     0.001875169082     0.002808018950
      15        0.000698419129    -0.000921538535    -0.001923568465
      16       -0.000003516578     0.000911714187     0.000775610668
      17       -0.008061466154     0.006679872708    -0.007136754241
      18        0.013306739147    -0.016094726207    -0.010113880081


*** tstop() called on arancio.prib.upf.edu at Sat Sep 29 20:32:39 2018
Module time:
	user time   =      28.25 seconds =       0.47 minutes
	system time =       0.19 seconds =       0.00 minutes
	total time  =          7 seconds =       0.12 minutes
Total time:
	user time   =     228.15 seconds =       3.80 minutes
	system time =       1.29 seconds =       0.02 minutes
	total time  =         62 seconds =       1.03 minutes

			-----------------------------------------
			 OPTKING 2.0: for geometry optimizations 
			  - R.A. King,  Bethel University        
			-----------------------------------------
	At level 1: Red. Int., RFO, no backsteps, dynamic trust

	Previous internal coordinate definitions found.
	---Fragment 1 Geometry and Gradient---
	 C          -0.0538958019        0.0595448542       -0.3129967597
	 C           0.0870490122        2.3561252425        1.0422457801
	 C           0.1301867739        2.3200993742        3.6680870783
	 C           0.0431372301        0.0082839824        4.9525608295
	 C          -0.1042938577       -2.2717948354        3.6166865575
	 C          -0.1759228303       -2.2587901185        0.9893574735
	 C          -0.0766344881        0.0346664119       -3.0703257610
	 H           0.0718512178        4.1538081010        0.0494299638
	 H           0.2071115284        4.0827036189        4.7155850603
	 H           0.0776901154       -0.0148292294        7.0044205168
	 H          -0.1606259644       -4.0570356443        4.6247894479
	 H          -0.2478322548       -4.0246805110       -0.0568547702
	 N          -1.2541699700       -1.8521746359       -4.3663101173
	 N           1.2781915939        1.7108050849       -4.3469783022
	 H           1.2206322533        1.7910852093       -6.2652273420
	 H           2.5475232817        2.8347344574       -3.4502404829
	 H          -3.1402941529       -2.1621117080       -4.1360897782
	 H          -0.3965078959       -2.6812925185       -5.9247793572
	             0.0109811604       -0.0057788143        0.0031991641
	            -0.0004952995        0.0004263080       -0.0004445715
	            -0.0005820828       -0.0001704307        0.0013911338
	             0.0002775779        0.0014995347        0.0003729464
	            -0.0000741310       -0.0008020967       -0.0004859649
	             0.0006611019        0.0017738367       -0.0013601491
	            -0.0050454918        0.0091129420       -0.0005919643
	             0.0002850551        0.0001053584        0.0002746447
	             0.0000026767        0.0004452083        0.0002245960
	            -0.0000676366        0.0001026104        0.0001327108
	            -0.0001116296       -0.0002561624       -0.0001848999
	             0.0003823432       -0.0016056413       -0.0003822120
	            -0.0074820865        0.0026964837        0.0134404632
	            -0.0046704714        0.0018751691        0.0028080190
	             0.0006984191       -0.0009215385       -0.0019235685
	            -0.0000035166        0.0009117142        0.0007756107
	            -0.0080614662        0.0066798727       -0.0071367542
	             0.0133067391       -0.0160947262       -0.0101138801

	---Fragment 1 Intrafragment Coordinates---
	 - Coordinate -           - BOHR/RAD -       - ANG/DEG -
	 R(1,2)           =         2.670361	       1.413094
	 R(1,6)           =         2.661897	       1.408615
	 R(1,7)           =         2.757535	       1.459225
	 R(2,3)           =         2.626443	       1.389854
	 R(2,8)           =         2.053674	       1.086758
	 R(3,4)           =         2.646118	       1.400265
	 R(3,9)           =         2.051815	       1.085774
	 R(4,5)           =         2.646707	       1.400577
	 R(4,10)          =         2.052281	       1.086020
	 R(5,6)           =         2.628337	       1.390856
	 R(5,11)          =         2.050983	       1.085333
	 R(6,12)          =         2.053801	       1.086825
	 R(7,13)          =         2.574167	       1.362190
	 R(7,14)          =         2.504962	       1.325569
	 R(13,17)         =         1.925234	       1.018790
	 R(13,18)         =         1.962612	       1.038570
	 R(14,15)         =         1.920791	       1.016439
	 R(14,16)         =         1.917957	       1.014939
	 B(1,2,3)         =         2.090320	     119.766523
	 B(1,2,8)         =         2.102594	     120.469789
	 B(1,6,5)         =         2.085331	     119.480692
	 B(1,6,12)        =         2.095802	     120.080604
	 B(1,7,13)        =         2.110411	     120.917635
	 B(1,7,14)        =         2.093373	     119.941437
	 B(2,1,6)         =         2.098025	     120.207988
	 B(2,1,7)         =         2.112585	     121.042201
	 B(2,3,4)         =         2.090647	     119.785238
	 B(2,3,9)         =         2.093516	     119.949625
	 B(3,2,8)         =         2.089151	     119.699534
	 B(3,4,5)         =         2.105363	     120.628415
	 B(3,4,10)        =         2.088176	     119.643646
	 B(4,3,9)         =         2.098943	     120.260582
	 B(4,5,6)         =         2.096466	     120.118676
	 B(4,5,11)        =         2.098212	     120.218667
	 B(5,4,10)        =         2.089625	     119.726669
	 B(5,6,12)        =         2.101230	     120.391601
	 B(6,1,7)         =         2.072575	     118.749811
	 B(6,5,11)        =         2.088506	     119.662604
	 B(7,13,17)       =         2.101278	     120.394352
	 B(7,13,18)       =         2.105445	     120.633132
	 B(7,14,15)       =         2.118507	     121.381487
	 B(7,14,16)       =         2.108042	     120.781935
	 B(13,7,14)       =         2.072921	     118.769603
	 B(15,14,16)      =         2.051350	     117.533670
	 B(17,13,18)      =         2.043246	     117.069394
	 D(1,2,3,4)       =         0.004111	       0.235522
	 D(1,2,3,9)       =        -3.123969	    -178.990261
	 D(1,6,5,4)       =         0.019519	       1.118385
	 D(1,6,5,11)      =        -3.120611	    -178.797866
	*D(1,7,13,17)     =         1.047197	      59.999985
	 D(1,7,13,18)     =        -2.376418	    -136.158747
	 D(1,7,14,15)     =        -3.084342	    -176.719772
	 D(1,7,14,16)     =         0.170296	       9.757255
	 D(2,1,6,5)       =        -0.022885	      -1.311210
	 D(2,1,6,12)      =        -3.121088	    -178.825195
	 D(2,1,7,13)      =        -2.641682	    -151.357256
	 D(2,1,7,14)      =         0.623504	      35.724161
	 D(2,3,4,5)       =        -0.007515	      -0.430550
	 D(2,3,4,10)      =         3.141253	     179.980523
	 D(3,2,1,6)       =         0.011067	       0.634096
	 D(3,2,1,7)       =        -3.130699	    -179.375862
	 D(3,4,5,6)       =        -0.004449	      -0.254913
	 D(3,4,5,11)      =         3.135674	     179.660869
	 D(4,3,2,8)       =         3.095112	     177.336865
	 D(4,5,6,12)      =         3.117585	     178.624487
	 D(5,4,3,9)       =         3.120523	     178.792792
	 D(5,6,1,7)       =         3.118878	     178.698521
	 D(6,1,2,8)       =        -3.079539	    -176.444563
	 D(6,1,7,13)      =         0.499739	      28.632928
	 D(6,1,7,14)      =        -2.518260	    -144.285654
	 D(6,5,4,10)      =         3.129963	     179.333674
	 D(7,1,2,8)       =         0.061880	       3.545479
	 D(7,1,6,12)      =         0.020674	       1.184536
	 D(8,2,3,9)       =        -0.032968	      -1.888918
	 D(9,3,4,10)      =        -0.013895	      -0.796135
	 D(10,4,5,11)     =        -0.013099	      -0.750544
	 D(11,5,6,12)     =        -0.022546	      -1.291764
	 D(13,7,14,15)    =         0.178201	      10.210188
	 D(13,7,14,16)    =        -2.850346	    -163.312784
	 D(14,7,13,17)    =        -2.216569	    -127.000027
	 D(14,7,13,18)    =         0.643001	      36.841241

	Current energy   :      -381.4550675164

	Energy change for the previous step:
		Projected    :        -0.0059771473
		Actual       :        -0.0077377452
	Energy ratio indicates good step: Trust radius increased to 1.000e+00.


	Performing BFGS update.
	Previous computed or guess Hessian on step 1.
	Steps to be used in Hessian update: 1
	Taking RFO optimization step.
	Going to follow RFO solution 1.
	Using RFO vector 1.
	Norm of target step-size    0.57101
	Projected energy change by RFO approximation:        -0.0025320216

	Back-transformation to cartesian coordinates...
	Could not converge backtransformation.
	Using first guess instead.

	Back-transformation to cartesian coordinates to adjust frozen coordinates...
	Successfully converged to displaced geometry.

	--- Internal Coordinate Step in ANG or DEG, aJ/ANG or AJ/DEG ---
	 ---------------------------------------------------------------------------
	   Coordinate                Previous        Force       Change         New 
	   ----------                --------       ------       ------       ------
	    1 R(1,2)          =      1.413094    -0.011109    -0.000198     1.412896
	    2 R(1,6)          =      1.408615     0.009469     0.002339     1.410955
	    3 R(1,7)          =      1.459225    -0.023023    -0.006720     1.452504
	    4 R(2,3)          =      1.389854    -0.009159    -0.001746     1.388107
	    5 R(2,8)          =      1.086758     0.000353     0.000319     1.087077
	    6 R(3,4)          =      1.400265     0.003701     0.001306     1.401572
	    7 R(3,9)          =      1.085774    -0.004097    -0.000357     1.085417
	    8 R(4,5)          =      1.400577    -0.013866    -0.001179     1.399397
	    9 R(4,10)         =      1.086020    -0.001076    -0.000004     1.086016
	   10 R(5,6)          =      1.390856    -0.002645    -0.000329     1.390528
	   11 R(5,11)         =      1.085333    -0.001115     0.000012     1.085345
	   12 R(6,12)         =      1.086825    -0.012867    -0.002004     1.084820
	   13 R(7,13)         =      1.362190    -0.064803     0.003617     1.365807
	   14 R(7,14)         =      1.325569     0.014407     0.001176     1.326745
	   15 R(13,17)        =      1.018790    -0.049180    -0.003639     1.015151
	   16 R(13,18)        =      1.038570    -0.170089     0.037462     1.076032
	   17 R(14,15)        =      1.016439    -0.015335    -0.001226     1.015213
	   18 R(14,16)        =      1.014939    -0.007370     0.000140     1.015079
	   19 B(1,2,3)        =    119.766523    -0.000014    -0.030145   119.736378
	   20 B(1,2,8)        =    120.469789    -0.000017    -0.096393   120.373396
	   21 B(1,6,5)        =    119.480692     0.000021     0.039084   119.519776
	   22 B(1,6,12)       =    120.080604    -0.000048    -0.342182   119.738422
	   23 B(1,7,13)       =    120.917635    -0.000071    -0.065851   120.851783
	   24 B(1,7,14)       =    119.941437     0.000177     0.628695   120.570132
	   25 B(2,1,6)        =    120.207988    -0.000021    -0.040705   120.167283
	   26 B(2,1,7)        =    121.042201    -0.000086    -0.061330   120.980871
	   27 B(2,3,4)        =    119.785238     0.000038     0.049938   119.835176
	   28 B(2,3,9)        =    119.949625    -0.000017     0.008367   119.957993
	   29 B(3,2,8)        =    119.699534     0.000031     0.145153   119.844687
	   30 B(3,4,5)        =    120.628415     0.000004     0.060857   120.689272
	   31 B(3,4,10)       =    119.643646     0.000006    -0.008763   119.634882
	   32 B(4,3,9)        =    120.260582    -0.000022    -0.060934   120.199648
	   33 B(4,5,6)        =    120.118676    -0.000029    -0.087777   120.030899
	   34 B(4,5,11)       =    120.218667    -0.000008    -0.058085   120.160582
	   35 B(5,4,10)       =    119.726669    -0.000010    -0.051868   119.674802
	   36 B(5,6,12)       =    120.391601     0.000027     0.307085   120.698686
	   37 B(6,1,7)        =    118.749811     0.000107     0.098486   118.848297
	   38 B(6,5,11)       =    119.662604     0.000037     0.145355   119.807959
	   39 B(7,13,17)      =    120.394352     0.000038    -0.752461   119.641891
	   40 B(7,13,18)      =    120.633132    -0.000119    -5.081345   115.551787
	   41 B(7,14,15)      =    121.381487     0.000013    -0.222998   121.158489
	   42 B(7,14,16)      =    120.781935     0.000016     0.342524   121.124459
	   43 B(13,7,14)      =    118.769603    -0.000111    -0.753364   118.016239
	   44 B(15,14,16)     =    117.533670    -0.000026    -0.033936   117.499734
	   45 B(17,13,18)     =    117.069394    -0.000073    -2.058829   115.010566
	   46 D(1,2,3,4)      =      0.235522    -0.000004    -0.577054    -0.341532
	   47 D(1,2,3,9)      =   -178.990261    -0.000002    -0.378352  -179.368613
	   48 D(1,6,5,4)      =      1.118385     0.000000     0.001876     1.120261
	   49 D(1,6,5,11)     =   -178.797866     0.000001     0.190065  -178.607801
	   50 *D(1,7,13,17)   =     59.999985    -0.000000     0.000000    59.999985
	   51 D(1,7,13,18)    =   -136.158747    -0.000150   -19.624841  -155.783588
	   52 D(1,7,14,15)    =   -176.719772     0.000012     1.708782  -175.010990
	   53 D(1,7,14,16)    =      9.757255     0.000004     0.722370    10.479625
	   54 D(2,1,6,5)      =     -1.311210    -0.000003    -0.481664    -1.792874
	   55 D(2,1,6,12)     =   -178.825195    -0.000004    -0.596565  -179.421759
	   56 D(2,1,7,13)     =   -151.357256    -0.000027    -4.949249  -156.306505
	   57 D(2,1,7,14)     =     35.724161    -0.000014    -3.264703    32.459458
	   58 D(2,3,4,5)      =     -0.430550     0.000001     0.099024    -0.331526
	   59 D(2,3,4,10)     =    179.980523     0.000000     0.060946   180.041469
	   60 D(3,2,1,6)      =      0.634096     0.000005     0.770463     1.404559
	   61 D(3,2,1,7)      =   -179.375862     0.000009     1.473722  -177.902140
	   62 D(3,4,5,6)      =     -0.254913     0.000001     0.191577    -0.063336
	   63 D(3,4,5,11)     =    179.660869    -0.000000     0.002890   179.663759
	   64 D(4,3,2,8)      =    177.336865    -0.000001    -0.123239   177.213626
	   65 D(4,5,6,12)     =    178.624487     0.000000     0.101386   178.725873
	   66 D(5,4,3,9)      =    178.792792    -0.000001    -0.099617   178.693176
	   67 D(5,6,1,7)      =    178.698521    -0.000007    -1.170003   177.528517
	   68 D(6,1,2,8)      =   -176.444563     0.000002     0.307091  -176.137472
	   69 D(6,1,7,13)     =     28.632928    -0.000023    -4.255108    24.377820
	   70 D(6,1,7,14)     =   -144.285654    -0.000010    -2.570562  -146.856216
	   71 D(6,5,4,10)     =    179.333674     0.000002     0.229847   179.563522
	   72 D(7,1,2,8)      =      3.545479     0.000006     1.010350     4.555829
	   73 D(7,1,6,12)     =      1.184536    -0.000008    -1.284904    -0.100368
	   74 D(8,2,3,9)      =     -1.888918     0.000000     0.075462    -1.813456
	   75 D(9,3,4,10)     =     -0.796135    -0.000001    -0.137695    -0.933830
	   76 D(10,4,5,11)    =     -0.750544     0.000000     0.041160    -0.709384
	   77 D(11,5,6,12)    =     -1.291764     0.000002     0.289575    -1.002189
	   78 D(13,7,14,15)   =     10.210188     0.000024     3.301498    13.511686
	   79 D(13,7,14,16)   =   -163.312784     0.000016     2.315086  -160.997699
	   80 D(14,7,13,17)   =   -127.000027    -0.000008    -1.547773  -128.547800
	   81 D(14,7,13,18)   =     36.841241    -0.000158   -21.172614    15.668627
	 ---------------------------------------------------------------------------
	Successfully symmetrized geometry.

  ==> Convergence Check <==

  Measures of convergence in internal coordinates in au.
  Criteria marked as inactive (o), active & met (*), and active & unmet ( ).
  ---------------------------------------------------------------------------------------------
   Step     Total Energy     Delta E     MAX Force     RMS Force      MAX Disp      RMS Disp   
  ---------------------------------------------------------------------------------------------
    Convergence Criteria    1.00e-06 *    3.00e-04 *             o    1.20e-03 *             o
  ---------------------------------------------------------------------------------------------
      2    -381.45506752   -7.74e-03      2.06e-02      3.01e-03 o    3.70e-01      6.05e-02 o  ~
  ---------------------------------------------------------------------------------------------

	Writing optimization data to binary file.
	Structure for next step:
	Cartesian Geometry (in Angstrom)
	    C    -0.0413932510   0.0201603610  -0.1561903577
	    C     0.0546297077   1.2396555149   0.5508365420
	    C     0.0921808713   1.2299374353   1.9384016966
	    C     0.0274436829   0.0121418567   2.6291881242
	    C    -0.0818961840  -1.1979178651   1.9348442750
	    C    -0.1287620404  -1.2010428322   0.5451100156
	    C    -0.0371864513  -0.0044310679  -1.6084803168
	    H     0.0590421653   2.1861367451   0.0161503349
	    H     0.1555729246   2.1652608546   2.4854676730
	    H     0.0564021878   0.0083729378   3.7148118900
	    H    -0.1258994814  -2.1363905258   2.4782655618
	    H    -0.1927441885  -2.1339770595  -0.0047767564
	    N    -0.5917661247  -1.0481753116  -2.2929284838
	    N     0.6539281955   0.8950844104  -2.2965818820
	    H     0.6039058530   0.9331633427  -3.3098463511
	    H     1.3133367135   1.5144876808  -1.8362491910
	    H    -1.5766309490  -1.2619015832  -2.1708890813
	    H    -0.2120136313  -1.2051408939  -3.2874106933
			--------------------------
			 OPTKING Finished Execution 
			--------------------------

    Structure for next step:
    Molecular point group: c1
    Full point group: C1

    Geometry (in Angstrom), charge = 1, multiplicity = 1:

    C           -0.041393251013     0.020160360964    -0.156190357688
    C            0.054629707731     1.239655514852     0.550836541979
    C            0.092180871299     1.229937435334     1.938401696627
    C            0.027443682939     0.012141856705     2.629188124247
    C           -0.081896183983    -1.197917865097     1.934844275037
    C           -0.128762040428    -1.201042832210     0.545110015640
    C           -0.037186451319    -0.004431067921    -1.608480316812
    H            0.059042165275     2.186136745114     0.016150334947
    H            0.155572924628     2.165260854582     2.485467672961
    H            0.056402187775     0.008372937768     3.714811890016
    H           -0.125899481406    -2.136390525838     2.478265561831
    H           -0.192744188514    -2.133977059454    -0.004776756379
    N           -0.591766124736    -1.048175311644    -2.292928483763
    N            0.653928195534     0.895084410368    -2.296581881961
    H            0.603905853014     0.933163342727    -3.309846351057
    H            1.313336713463     1.514487680801    -1.836249191033
    H           -1.576630948974    -1.261901583165    -2.170889081257
    H           -0.212013631284    -1.205140893886    -3.287410693335

gradient() will perform analytic gradient computation.

*** tstart() called on arancio.prib.upf.edu
*** at Sat Sep 29 20:32:39 2018

   => Loading Basis Set <=

    Name: 6-31G*
    Role: ORBITAL
    Keyword: BASIS
    atoms 1-7         entry C          line   111 file /shared/joao/test_parameterize/miniconda3/share/psi4/basis/6-31gs.gbs 
    atoms 8-12, 15-18 entry H          line    44 file /shared/joao/test_parameterize/miniconda3/share/psi4/basis/6-31gs.gbs 
    atoms 13-14       entry N          line   128 file /shared/joao/test_parameterize/miniconda3/share/psi4/basis/6-31gs.gbs 


[...]
	             0.0077400229       -0.0040683789       -0.0000051504
	             0.0000090145        0.0000078665        0.0000132386
	            -0.0000106197        0.0000035665       -0.0000124309
	             0.0000007177        0.0000018774        0.0000092175
	             0.0000093833       -0.0000061109       -0.0000187475
	             0.0000054205        0.0000036619        0.0000239491
	            -0.0126852904        0.0086189383       -0.0031992091
	             0.0000064664       -0.0000012284       -0.0000154059
	             0.0000019725       -0.0000002665       -0.0000000325
	            -0.0000001820        0.0000020824       -0.0000002219
	            -0.0000061767       -0.0000005775       -0.0000019150
	            -0.0000009129       -0.0000073587       -0.0000044011
	             0.0080923487       -0.0121765201        0.0126774211
	            -0.0000982734        0.0001181427       -0.0000270889
	            -0.0000070464        0.0000058981        0.0000013245
	            -0.0000086506        0.0000124538        0.0000031976
	            -0.0030268143        0.0074870164       -0.0094791654
	            -0.0000140174       -0.0000088765        0.0000209320

	---Fragment 1 Intrafragment Coordinates---
	 - Coordinate -           - BOHR/RAD -       - ANG/DEG -
	 R(1,2)           =         2.667157	       1.411399
	 R(1,6)           =         2.664640	       1.410067
	 R(1,7)           =         2.751994	       1.456292
	 R(2,3)           =         2.624541	       1.388847
	 R(2,8)           =         2.053725	       1.086785
	 R(3,4)           =         2.645890	       1.400144
	 R(3,9)           =         2.050512	       1.085084
	 R(4,5)           =         2.643171	       1.398706
	 R(4,10)          =         2.051856	       1.085796
	 R(5,6)           =         2.627337	       1.390327
	 R(5,11)          =         2.050598	       1.085130
	 R(6,12)          =         2.049978	       1.084802
	 R(7,13)          =         2.563152	       1.356362
	 R(7,14)          =         2.509496	       1.327968
	 R(13,17)         =         1.920932	       1.016514
	 R(13,18)         =         1.922548	       1.017368
	 R(14,15)         =         1.915869	       1.013834
	 R(14,16)         =         1.914566	       1.013145
	 B(1,2,3)         =         2.090594	     119.782191
	 B(1,2,8)         =         2.103550	     120.524521
	 B(1,6,5)         =         2.087231	     119.589523
	 B(1,6,12)        =         2.093168	     119.929674
	 B(1,7,13)        =         2.087684	     119.615466
	 B(1,7,14)        =         2.097885	     120.199956
	 B(2,1,6)         =         2.095499	     120.063228
	 B(2,1,7)         =         2.103621	     120.528578
	 B(2,3,4)         =         2.092687	     119.902120
	 B(2,3,9)         =         2.092689	     119.902268
	 B(3,2,8)         =         2.087880	     119.626686
	 B(3,4,5)         =         2.104240	     120.564060
	 B(3,4,10)        =         2.088834	     119.681380
	 B(4,3,9)         =         2.097705	     120.189619
	 B(4,5,6)         =         2.095966	     120.090021
	 B(4,5,11)        =         2.097217	     120.161669
	 B(5,4,10)        =         2.090107	     119.754289
	 B(5,6,12)        =         2.101775	     120.422846
	 B(6,1,7)         =         2.084064	     119.408047
	 B(6,5,11)        =         2.089955	     119.745624
	 B(7,13,17)       =         2.042378	     117.019665
	 B(7,13,18)       =         2.033600	     116.516699
	 B(7,14,15)       =         2.137690	     122.480636
	 B(7,14,16)       =         2.103523	     120.523010
	 B(13,7,14)       =         2.085064	     119.465396
	 B(15,14,16)      =         2.040257	     116.898110
	 B(17,13,18)      =         1.931592	     110.672084
	 D(1,2,3,4)       =        -0.004173	      -0.239091
	 D(1,2,3,9)       =        -3.130254	    -179.350318
	 D(1,6,5,4)       =         0.010203	       0.584590
	 D(1,6,5,11)      =        -3.121003	    -178.820272
	*D(1,7,13,17)     =         1.047197	      59.999985
	 D(1,7,13,18)     =        -2.893568	    -165.789243
	 D(1,7,14,15)     =        -3.051103	    -174.815353
	 D(1,7,14,16)     =         0.155361	       8.901510
	 D(2,1,6,5)       =        -0.019620	      -1.124169
	 D(2,1,6,12)      =        -3.113103	    -178.367638
	 D(2,1,7,13)      =        -2.726352	    -156.208464
	 D(2,1,7,14)      =         0.585699	      33.558087
	 D(2,3,4,5)       =        -0.005286	      -0.302854
	 D(2,3,4,10)      =         3.139618	     179.886882
	 D(3,2,1,6)       =         0.016622	       0.952391
	 D(3,2,1,7)       =        -3.122523	    -178.907396
	 D(3,4,5,6)       =         0.002233	       0.127969
	 D(3,4,5,11)      =         3.133395	     179.530335
	 D(4,3,2,8)       =         3.085902	     176.809154
	 D(4,5,6,12)      =         3.103444	     177.814217
	 D(5,4,3,9)       =         3.120750	     178.805791
	 D(5,6,1,7)       =         3.119552	     178.737190
	 D(6,1,2,8)       =        -3.072982	    -176.068920
	 D(6,1,7,13)      =         0.417672	      23.930836
	 D(6,1,7,14)      =        -2.553462	    -146.302614
	 D(6,5,4,10)      =         3.140512	     179.938094
	 D(7,1,2,8)       =         0.071057	       4.071293
	 D(7,1,6,12)      =         0.026070	       1.493722
	 D(8,2,3,9)       =        -0.040179	      -2.302074
	 D(9,3,4,10)      =        -0.017531	      -1.004473
	 D(10,4,5,11)     =        -0.011511	      -0.659539
	 D(11,5,6,12)     =        -0.027762	      -1.590645
	 D(13,7,14,15)    =         0.260692	      14.936570
	 D(13,7,14,16)    =        -2.816029	    -161.346567
	 D(14,7,13,17)    =        -2.263593	    -129.694330
	 D(14,7,13,18)    =         0.078827	       4.516442

	Current energy   :      -381.4616148873

	Energy change for the previous step:
		Projected    :         0.0000000126
		Actual       :        -0.0000010260

	Performing BFGS update.
	Previous computed or guess Hessian on step 1.
	Steps to be used in Hessian update: 2 1
	Taking RFO optimization step.
	Going to follow RFO solution 1.
	Rejecting RFO root 1 because normalization gives large value.
	Rejecting RFO root 2 because normalization gives large value.
	Using RFO vector 3.
	Norm of target step-size    0.00129
	Projected energy change by RFO approximation:        -0.0000000305

	Back-transformation to cartesian coordinates...
	Successfully converged to displaced geometry.

	Back-transformation to cartesian coordinates to adjust frozen coordinates...
	Successfully converged to displaced geometry.

	--- Internal Coordinate Step in ANG or DEG, aJ/ANG or AJ/DEG ---
	 ---------------------------------------------------------------------------
	   Coordinate                Previous        Force       Change         New 
	   ----------                --------       ------       ------       ------
	    1 R(1,2)          =      1.411399    -0.000008    -0.000010     1.411389
	    2 R(1,6)          =      1.410067    -0.000032    -0.000012     1.410055
	    3 R(1,7)          =      1.456292     0.000549     0.000072     1.456364
	    4 R(2,3)          =      1.388847     0.000057     0.000009     1.388856
	    5 R(2,8)          =      1.086785    -0.000052    -0.000007     1.086777
	    6 R(3,4)          =      1.400144    -0.000057    -0.000006     1.400139
	    7 R(3,9)          =      1.085084    -0.000003    -0.000001     1.085083
	    8 R(4,5)          =      1.398706    -0.000097    -0.000012     1.398694
	    9 R(4,10)         =      1.085796    -0.000005    -0.000001     1.085795
	   10 R(5,6)          =      1.390327     0.000103     0.000014     1.390340
	   11 R(5,11)         =      1.085130    -0.000001    -0.000000     1.085129
	   12 R(6,12)         =      1.084802    -0.000066    -0.000009     1.084793
	   13 R(7,13)         =      1.356362    -0.000333    -0.000041     1.356321
	   14 R(7,14)         =      1.327968    -0.000357    -0.000041     1.327927
	   15 R(13,17)        =      1.016514    -0.000108    -0.000014     1.016499
	   16 R(13,18)        =      1.017368     0.000195     0.000028     1.017397
	   17 R(14,15)        =      1.013834     0.000012     0.000002     1.013836
	   18 R(14,16)        =      1.013145    -0.000034    -0.000001     1.013144
	   19 B(1,2,3)        =    119.782191     0.000000    -0.001241   119.780950
	   20 B(1,2,8)        =    120.524521     0.000001     0.003989   120.528511
	   21 B(1,6,5)        =    119.589523     0.000000    -0.000462   119.589061
	   22 B(1,6,12)       =    119.929674    -0.000000    -0.000369   119.929305
	   23 B(1,7,13)       =    119.615466    -0.000002    -0.008086   119.607380
	   24 B(1,7,14)       =    120.199956     0.000002     0.011335   120.211290
	   25 B(2,1,6)        =    120.063228    -0.000000     0.001329   120.064557
	   26 B(2,1,7)        =    120.528578     0.000002     0.005818   120.534396
	   27 B(2,3,4)        =    119.902120     0.000000     0.000314   119.902434
	   28 B(2,3,9)        =    119.902268    -0.000000    -0.000996   119.901272
	   29 B(3,2,8)        =    119.626686    -0.000001    -0.002929   119.623757
	   30 B(3,4,5)        =    120.564060     0.000000     0.000460   120.564519
	   31 B(3,4,10)       =    119.681380     0.000000     0.000517   119.681898
	   32 B(4,3,9)        =    120.189619     0.000000     0.000597   120.190216
	   33 B(4,5,6)        =    120.090021    -0.000000    -0.000526   120.089495
	   34 B(4,5,11)       =    120.161669    -0.000000    -0.000236   120.161433
	   35 B(5,4,10)       =    119.754289    -0.000000    -0.000985   119.753305
	   36 B(5,6,12)       =    120.422846    -0.000000     0.000731   120.423577
	   37 B(6,1,7)        =    119.408047    -0.000002    -0.007133   119.400913
	   38 B(6,5,11)       =    119.745624     0.000000     0.000701   119.746325
	   39 B(7,13,17)      =    117.019665     0.000001    -0.000019   117.019646
	   40 B(7,13,18)      =    116.516699    -0.000000    -0.006453   116.510246
	   41 B(7,14,15)      =    122.480636    -0.000000    -0.000629   122.480007
	   42 B(7,14,16)      =    120.523010    -0.000000    -0.001518   120.521492
	   43 B(13,7,14)      =    119.465396    -0.000002    -0.002568   119.462827
	   44 B(15,14,16)     =    116.898110    -0.000000    -0.000725   116.897385
	   45 B(17,13,18)     =    110.672084     0.000002     0.001806   110.673890
	   46 D(1,2,3,4)      =     -0.239091    -0.000000    -0.003117    -0.242208
	   47 D(1,2,3,9)      =   -179.350318     0.000000     0.003159  -179.347159
	   48 D(1,6,5,4)      =      0.584590     0.000000     0.002395     0.586985
	   49 D(1,6,5,11)     =   -178.820272     0.000000     0.009087  -178.811185
	   50 *D(1,7,13,17)   =     59.999985     0.000000     0.000000    59.999985
	   51 D(1,7,13,18)    =   -165.789243     0.000001    -0.004787  -165.794030
	   52 D(1,7,14,15)    =   -174.815353    -0.000001    -0.021115  -174.836468
	   53 D(1,7,14,16)    =      8.901510    -0.000001     0.032793     8.934303
	   54 D(2,1,6,5)      =     -1.124169    -0.000000    -0.007506    -1.131675
	   55 D(2,1,6,12)     =   -178.367638    -0.000000    -0.005145  -178.372783
	   56 D(2,1,7,13)     =   -156.208464    -0.000001     0.022311  -156.186153
	   57 D(2,1,7,14)     =     33.558087     0.000001     0.017990    33.576077
	   58 D(2,3,4,5)      =     -0.302854     0.000000    -0.001987    -0.304841
	   59 D(2,3,4,10)     =    179.886882     0.000000     0.000650   179.887532
	   60 D(3,2,1,6)      =      0.952391     0.000000     0.007875     0.960266
	   61 D(3,2,1,7)      =   -178.907396     0.000000     0.001295  -178.906101
	   62 D(3,4,5,6)      =      0.127969     0.000000     0.002353     0.130321
	   63 D(3,4,5,11)     =    179.530335    -0.000000    -0.004362   179.525973
	   64 D(4,3,2,8)      =    176.809154    -0.000000    -0.007004   176.802150
	   65 D(4,5,6,12)     =    177.814217    -0.000000    -0.000009   177.814208
	   66 D(5,4,3,9)      =    178.805791    -0.000000    -0.008295   178.797496
	   67 D(5,6,1,7)      =    178.737190    -0.000000    -0.000983   178.736207
	   68 D(6,1,2,8)      =   -176.068920     0.000000     0.012007  -176.056913
	   69 D(6,1,7,13)     =     23.930836    -0.000001     0.015763    23.946599
	   70 D(6,1,7,14)     =   -146.302614     0.000001     0.011442  -146.291171
	   71 D(6,5,4,10)     =    179.938094     0.000000    -0.000283   179.937812
	   72 D(7,1,2,8)      =      4.071293     0.000000     0.005427     4.076720
	   73 D(7,1,6,12)     =      1.493722     0.000000     0.001378     1.495100
	   74 D(8,2,3,9)      =     -2.302074    -0.000000    -0.000728    -2.302802
	   75 D(9,3,4,10)     =     -1.004473    -0.000000    -0.005659    -1.010132
	   76 D(10,4,5,11)    =     -0.659539    -0.000000    -0.006997    -0.666537
	   77 D(11,5,6,12)    =     -1.590645     0.000000     0.006683    -1.583962
	   78 D(13,7,14,15)   =     14.936570     0.000001    -0.024889    14.911681
	   79 D(13,7,14,16)   =   -161.346567     0.000001     0.029019  -161.317548
	   80 D(14,7,13,17)   =   -129.694330    -0.000002     0.005663  -129.688667
	   81 D(14,7,13,18)   =      4.516442    -0.000001     0.000876     4.517318
	 ---------------------------------------------------------------------------
	Successfully symmetrized geometry.

  ==> Convergence Check <==

  Measures of convergence in internal coordinates in au.
  Criteria marked as inactive (o), active & met (*), and active & unmet ( ).
  ---------------------------------------------------------------------------------------------
   Step     Total Energy     Delta E     MAX Force     RMS Force      MAX Disp      RMS Disp   
  ---------------------------------------------------------------------------------------------
    Convergence Criteria    1.00e-06 *    3.00e-04 *             o    1.20e-03 *             o
  ---------------------------------------------------------------------------------------------
      3    -381.46161489   -1.03e-06      1.06e-04 *    2.67e-05 o    5.72e-04 *    1.43e-04 o  ~
  ---------------------------------------------------------------------------------------------


  **** Optimization is complete! (in 3 steps) ****

  ==> Optimization Summary <==

  Measures of convergence in internal coordinates in au.
  --------------------------------------------------------------------------------------------------------------- ~
   Step         Total Energy             Delta E       MAX Force       RMS Force        MAX Disp        RMS Disp  ~
  --------------------------------------------------------------------------------------------------------------- ~
      1    -381.461612495773   -381.461612495773      0.00071828      0.00013286      0.01184909      0.00237841  ~
      2    -381.461613861311     -0.000001365538      0.00039039      0.00007739      0.00334394      0.00080759  ~
      3    -381.461614887326     -0.000001026015      0.00010627      0.00002668      0.00057235      0.00014291  ~
  --------------------------------------------------------------------------------------------------------------- ~

	Writing optimization data to binary file.
	Final energy is   -381.4616148873261
	Final (previous) structure:
	Cartesian Geometry (in Angstrom)
	    C    -0.0238924202   0.0059612375  -0.1655624329
	    C     0.0588037433   1.2278620443   0.5359833938
	    C     0.0783828323   1.2260507850   1.9246914038
	    C     0.0110220418   0.0138433998   2.6221297784
	    C    -0.0824544175  -1.1993447083   1.9323367110
	    C    -0.1066230733  -1.2107643330   0.5422670448
	    C    -0.0216771261  -0.0126114456  -1.6217346621
	    H     0.0587521961   2.1732356751  -0.0000851922
	    H     0.1312708527   2.1648901170   2.4661628960
	    H     0.0284532169   0.0164827189   3.7077822407
	    H    -0.1266106913  -2.1355110946   2.4792820218
	    H    -0.1433652837  -2.1502827965   0.0012032059
	    N    -0.5695745031  -1.0646987373  -2.2794868355
	    N     0.6781896769   0.8892428595  -2.3002211416
	    H     0.6440582538   0.9568132555  -3.3112250873
	    H     1.3194573429   1.5100022375  -1.8207467538
	    H    -1.5549585913  -1.2508684168  -2.1131772022
	    H    -0.3510840503  -1.1448787978  -3.2698763888
	Saving final (previous) structure.
	Removing binary optimization data file.
			--------------------------
			 OPTKING Finished Execution 
			--------------------------

    Final optimized geometry and variables:
    Molecular point group: c1
    Full point group: C1

    Geometry (in Angstrom), charge = 1, multiplicity = 1:

    C           -0.023892420240     0.005961237541    -0.165562432922
    C            0.058803743287     1.227862044258     0.535983393778
    C            0.078382832314     1.226050784956     1.924691403842
    C            0.011022041786     0.013843399756     2.622129778398
    C           -0.082454417469    -1.199344708333     1.932336711025
    C           -0.106623073292    -1.210764333032     0.542267044786
    C           -0.021677126090    -0.012611445621    -1.621734662136
    H            0.058752196131     2.173235675067    -0.000085192168
    H            0.131270852652     2.164890116997     2.466162895979
    H            0.028453216928     0.016482718942     3.707782240737
    H           -0.126610691259    -2.135511094581     2.479282021830
    H           -0.143365283729    -2.150282796509     0.001203205919
    N           -0.569574503099    -1.064698737285    -2.279486835492
    N            0.678189676911     0.889242859500    -2.300221141569
    H            0.644058253816     0.956813255470    -3.311225087263
    H            1.319457342889     1.510002237455    -1.820746753827
    H           -1.554958591273    -1.250868416778    -2.113177202162
    H           -0.351084050261    -1.144878797804    -3.269876388755

	Removing binary optimization data file.
	Cleaning optimization helper files.


Properties will be evaluated at   0.000000,   0.000000,   0.000000 [a0]
OEProp: No title given, name of density matrix used for the following properties is 'SCF density'
  Nuclear Dipole Moment: [e a0]
     X:     0.4680      Y:    -1.4784      Z:     1.3266

  Electronic Dipole Moment: [e a0]
     X:    -0.5089      Y:     1.7504      Z:    -3.5544

  Dipole Moment: [e a0]
     X:    -0.0409      Y:     0.2720      Z:    -2.2278     Total:     2.2447

  Dipole Moment: [D]
     X:    -0.1040      Y:     0.6914      Z:    -5.6624     Total:     5.7054

  Quadrupole Moment: [D A]
    XX:   -48.4651     YY:   -39.6190     ZZ:   -12.5184
    XY:     6.0825     XZ:     0.2551     YZ:    -0.8026

  Traceless Quadrupole Moment: [D A]
    XX:   -14.9310     YY:    -6.0848     ZZ:    21.0158
    XY:     6.0825     XZ:     0.2551     YZ:    -0.8026

  Mulliken Charges: (a.u.)
   Center  Symbol    Alpha    Beta     Spin     Total
       1     C     2.95319  2.95319  0.00000  0.09362
       2     C     3.08449  3.08449  0.00000 -0.16899
       3     C     3.06273  3.06273  0.00000 -0.12545
       4     C     3.05015  3.05015  0.00000 -0.10030
       5     C     3.06264  3.06264  0.00000 -0.12528
       6     C     3.07348  3.07348  0.00000 -0.14697
       7     C     2.74927  2.74927  0.00000  0.50147
       8     H     0.41527  0.41527  0.00000  0.16947
       9     H     0.40514  0.40514  0.00000  0.18972
      10     H     0.40294  0.40294  0.00000  0.19412
      11     H     0.40471  0.40471  0.00000  0.19058
      12     H     0.40613  0.40613  0.00000  0.18775
      13     N     3.85785  3.85785  0.00000 -0.71571
      14     N     3.85181  3.85181  0.00000 -0.70361
      15     H     0.30496  0.30496  0.00000  0.39009
      16     H     0.29929  0.29929  0.00000  0.40142
      17     H     0.30202  0.30202  0.00000  0.39597
      18     H     0.31395  0.31395  0.00000  0.37210

   Total alpha = 32.00000, Total beta = 32.00000, Total charge =  1.00000


    Psi4 stopped on: Saturday, 29 September 2018 08:36PM
    Psi4 wall time for execution: 0:04:27.08

*** Psi4 exiting successfully. Buy a developer a beer!
