
    -----------------------------------------------------------------------
          Psi4: An Open-Source Ab Initio Electronic Structure Package
                               Psi4 1.2.1 release

                         Git: Rev {HEAD} 406f4de 


    R. M. Parrish, L. A. Burns, D. G. A. Smith, A. C. Simmonett,
    A. E. DePrince III, E. G. Hohenstein, U. Bozkaya, A. Yu. Sokolov,
    R. Di Remigio, R. M. Richard, J. F. Gonthier, A. M. James,
    H. R. McAlexander, A. Kumar, M. Saitow, X. Wang, B. P. Pritchard,
    P. Verma, H. F. Schaefer III, K. Patkowski, R. A. King, E. F. Valeev,
    F. A. Evangelista, J. M. Turney, T. D. Crawford, and C. D. Sherrill,
    J. Chem. Theory Comput. 13(7) pp 3185--3197 (2017).
    (doi: 10.1021/acs.jctc.7b00174)


                         Additional Contributions by
    P. Kraus, H. Kruse, M. H. Lechner, M. C. Schieber, and R. A. Shaw

    -----------------------------------------------------------------------


    Psi4 started on: Saturday, 29 September 2018 04:49PM

    Process ID: 4195
    Host:       loro.prib.upf.edu
    PSIDATADIR: /shared/joao/test_parameterize/miniconda3/share/psi4
    Memory:     500.0 MiB
    Threads:    1
    
  ==> Input File <==

--------------------------------------------------------------------------
set_num_threads(1)
set_memory('5348 MB')

set { scf_mem_safety_factor 0.7 }

set { reference rks }
set { basis cc-pVDZ }

molecule MOL {
    0 1
    noreorient
    nocom
    symmetry c1
    O    1.141000   0.017000   0.083000
    C    2.558000   0.086000  -0.005000
    C    3.192000  -0.789000   1.067000
    O    4.004448   0.002120   1.925735
    H    0.789000   0.590000  -0.620000
    H    2.874000   1.128000   0.115000
    H    2.871000  -0.243000  -1.001000
    H    3.807832  -1.569201   0.608770
    H    2.417441  -1.283922   1.663647
    H    4.382324  -0.603561   2.586981
}

set optking { frozen_dihedral = (" 1 2 3 4 ") }

energy, wfn = energy('B3LYP-D3', return_wfn=True)

import os
os.chdir(os.environ['HTMD_PSI4_WORKDIR'])

oeprop(wfn, 'DIPOLE', 'QUADRUPOLE', 'MULLIKEN_CHARGES')

with open('psi4out.xyz', 'w') as f:
    f.write('10 ' )
    f.write('%.12f\n' % energy)
    f.write(MOL.save_string_xyz())
--------------------------------------------------------------------------
  Threads set to 1 by Python driver.

  Memory set to   4.981 GiB by Python driver.

*** tstart() called on loro.prib.upf.edu
*** at Sat Sep 29 16:49:17 2018

   => Loading Basis Set <=

    Name: CC-PVDZ
    Role: ORBITAL
    Keyword: BASIS
    atoms 1, 4 entry O          line   198 file /shared/joao/test_parameterize/miniconda3/share/psi4/basis/cc-pvdz.gbs 
    atoms 2-3  entry C          line   138 file /shared/joao/test_parameterize/miniconda3/share/psi4/basis/cc-pvdz.gbs 
    atoms 5-10 entry H          line    22 file /shared/joao/test_parameterize/miniconda3/share/psi4/basis/cc-pvdz.gbs 


         ---------------------------------------------------------
                                   SCF
            by Justin Turney, Rob Parrish, Andy Simmonett
                             and Daniel Smith
                              RKS Reference
                        1 Threads,   5100 MiB Core
         ---------------------------------------------------------

  ==> Geometry <==

    Molecular point group: c1
    Full point group: C1

    Geometry (in Angstrom), charge = 0, multiplicity = 1:

       Center              X                  Y                   Z               Mass       
    ------------   -----------------  -----------------  -----------------  -----------------
         O            1.141000000000     0.017000000000     0.083000000000    15.994914619560
         C            2.558000000000     0.086000000000    -0.005000000000    12.000000000000
         C            3.192000000000    -0.789000000000     1.067000000000    12.000000000000
         O            4.004448000000     0.002120000000     1.925735000000    15.994914619560
         H            0.789000000000     0.590000000000    -0.620000000000     1.007825032070
         H            2.874000000000     1.128000000000     0.115000000000     1.007825032070
         H            2.871000000000    -0.243000000000    -1.001000000000     1.007825032070
         H            3.807832000000    -1.569201000000     0.608770000000     1.007825032070
         H            2.417441000000    -1.283922000000     1.663647000000     1.007825032070
         H            4.382324000000    -0.603561000000     2.586981000000     1.007825032070

  Running in c1 symmetry.

  Rotational constants: A =      0.52104  B =      0.02755  C =      0.02708 [cm^-1]
  Rotational constants: A =  15620.38972  B =    825.96638  C =    811.77568 [MHz]
  Nuclear repulsion =  130.103913745922597

  Charge       = 0
  Multiplicity = 1
  Electrons    = 34
  Nalpha       = 17
  Nbeta        = 17

  ==> Algorithm <==

  SCF Algorithm Type is DF.
  DIIS enabled.
  MOM disabled.
  Fractional occupation disabled.
  Guess Type is SAD.
  Energy threshold   = 1.00e-06
  Density threshold  = 1.00e-06
  Integral threshold = 0.00e+00

  ==> Primary Basis <==

  Basis Set: CC-PVDZ
    Blend: CC-PVDZ
    Number of shells: 42
    Number of basis function: 86
    Number of Cartesian functions: 90
    Spherical Harmonics?: true
    Max angular momentum: 2

  ==> DFT Potential <==

   => Composite Functional: B3LYP-D3ZERO <= 

    B3LYP-d3zero Hyb-GGA Exchange-Correlation Functional

    P. J. Stephens, F. J. Devlin, C. F. Chabalowski, and M. J. Frisch, J. Phys. Chem. 98, 11623 (1994)

    Deriv               =              1
    GGA                 =           TRUE
    Meta                =          FALSE

    Exchange Hybrid     =           TRUE
    MP2 Hybrid          =          FALSE

   => Exchange Functionals <=

    0.0800   Slater exchange
    0.7200         Becke 88

   => Exact (HF) Exchange <=

    0.2000               HF 

   => Correlation Functionals <=

    0.1900   Vosko, Wilk & Nusair (VWN5_RPA)
    0.8100   Lee, Yang & Parr

   => Molecular Quadrature <=

    Radial Scheme       =       TREUTLER
    Pruning Scheme      =           FLAT
    Nuclear Scheme      =       TREUTLER

    BS radius alpha     =              1
    Pruning alpha       =              1
    Radial Points       =             75
    Spherical Points    =            302
    Total Points        =         222552
    Total Blocks        =           1726
    Max Points          =            256
    Max Functions       =             86

   => -D3ZERO: Empirical Dispersion <=

    Grimme's -D3 (zero-damping) Dispersion Correction
    Grimme S.; Antony J.; Ehrlich S.; Krieg H. (2010), J. Chem. Phys., 132: 154104

        S6 =   1.000000E+00
        S8 =   1.703000E+00
       SR6 =   1.261000E+00
       SR8 =   1.000000E+00
    ALPHA6 =   1.400000E+01

   => Loading Basis Set <=

    Name: (CC-PVDZ AUX)
    Role: JKFIT
    Keyword: DF_BASIS_SCF
    atoms 1, 4 entry O          line   221 file /shared/joao/test_parameterize/miniconda3/share/psi4/basis/cc-pvdz-jkfit.gbs 
    atoms 2-3  entry C          line   121 file /shared/joao/test_parameterize/miniconda3/share/psi4/basis/cc-pvdz-jkfit.gbs 
    atoms 5-10 entry H          line    51 file /shared/joao/test_parameterize/miniconda3/share/psi4/basis/cc-pvdz-jkfit.gbs 

  ==> Pre-Iterations <==

   -------------------------------------------------------
    Irrep   Nso     Nmo     Nalpha   Nbeta   Ndocc  Nsocc
   -------------------------------------------------------
     A         86      86       0       0       0       0
   -------------------------------------------------------
    Total      86      86      17      17      17       0
   -------------------------------------------------------

  ==> Integral Setup <==

  DFHelper Memory: AOs need 0.030 [GiB]; user supplied 3.486 [GiB]. Using in-core AOs.

  ==> MemDFJK: Density-Fitted J/K Matrices <==

    J tasked:                   Yes
    K tasked:                   Yes
    wK tasked:                   No
    OpenMP threads:               1
    Memory (MB):               3570
    Algorithm:                 Core
    Schwarz Cutoff:           1E-12
    Mask sparsity (%):       0.3786
    Fitting Condition:        1E-12

   => Auxiliary Basis Set <=

  Basis Set: (CC-PVDZ AUX)
    Blend: CC-PVDZ-JKFIT
    Number of shells: 150
    Number of basis function: 418
    Number of Cartesian functions: 474
    Spherical Harmonics?: true
    Max angular momentum: 3

  Minimum eigenvalue in the overlap matrix is 4.9162486348E-03.
  Using Symmetric Orthogonalization.

  SCF Guess: Superposition of Atomic Densities via on-the-fly atomic UHF.

  ==> Iterations <==

                           Total Energy        Delta E     RMS |[F,P]|

   @DF-RKS iter   0:  -230.91835337533831   -2.30918e+02   4.04347e-02 
   @DF-RKS iter   1:  -230.17086999191054    7.47483e-01   5.19470e-03 
   @DF-RKS iter   2:  -230.12721358175835    4.36564e-02   6.74495e-03 DIIS
   @DF-RKS iter   3:  -230.25167684315099   -1.24463e-01   7.08306e-04 DIIS
   @DF-RKS iter   4:  -230.25295862181181   -1.28178e-03   2.67772e-04 DIIS
   @DF-RKS iter   5:  -230.25320483269559   -2.46211e-04   4.68492e-05 DIIS
   @DF-RKS iter   6:  -230.25321236470995   -7.53201e-06   5.81596e-06 DIIS
   @DF-RKS iter   7:  -230.25321246594640   -1.01236e-07   2.74699e-06 DIIS
   @DF-RKS iter   8:  -230.25321248485244   -1.89060e-08   9.28179e-07 DIIS

  ==> Post-Iterations <==

    Orbital Energies [Eh]
    ---------------------

    Doubly Occupied:                                                      

       1A    -19.128440     2A    -19.128406     3A    -10.225307  
       4A    -10.225120     5A     -1.017292     6A     -1.005061  
       7A     -0.732724     8A     -0.603190     9A     -0.520717  
      10A     -0.504843    11A     -0.438261    12A     -0.410753  
      13A     -0.407573    14A     -0.346516    15A     -0.320077  
      16A     -0.266186    17A     -0.255953  

    Virtual:                                                              

      18A      0.052214    19A      0.053330    20A      0.104443  
      21A      0.124348    22A      0.128958    23A      0.148104  
      24A      0.198245    25A      0.235040    26A      0.242930  
      27A      0.464592    28A      0.484159    29A      0.492897  
      30A      0.512918    31A      0.534682    32A      0.599678  
      33A      0.603584    34A      0.621743    35A      0.645642  
      36A      0.652801    37A      0.684972    38A      0.692916  
      39A      0.828832    40A      0.830921    41A      0.924156  
      42A      0.978872    43A      1.000994    44A      1.040011  
      45A      1.060819    46A      1.199549    47A      1.214573  
      48A      1.239326    49A      1.300186    50A      1.328588  
      51A      1.337216    52A      1.365564    53A      1.506887  
      54A      1.513208    55A      1.551398    56A      1.576513  
      57A      1.608681    58A      1.635135    59A      1.643987  
      60A      1.743719    61A      1.754255    62A      1.790789  
      63A      1.847977    64A      1.915537    65A      1.965756  
      66A      1.984705    67A      2.035740    68A      2.048313  
      69A      2.110822    70A      2.160897    71A      2.191088  
      72A      2.255761    73A      2.405219    74A      2.427125  
      75A      2.477084    76A      2.518022    77A      2.915850  
      78A      2.955050    79A      2.986058    80A      3.037694  
      81A      3.083589    82A      3.123457    83A      3.189623  
      84A      3.190954    85A      3.684435    86A      3.687330  

    Final Occupation by Irrep:
              A 
    DOCC [    17 ]

  Energy converged.

  @DF-RKS Final Energy:  -230.25321248485244

   => Energetics <=

    Nuclear Repulsion Energy =            130.1039137459225969
    One-Electron Energy =                -572.0070321818743651
    Two-Electron Energy =                 236.1959311840964233
    DFT Exchange-Correlation Energy =     -24.5417833229970732
    Empirical Dispersion Energy =          -0.0042419100000000
    VV10 Nonlocal Energy =                  0.0000000000000000
    Total Energy =                       -230.2532124848524404



Properties will be evaluated at   0.000000,   0.000000,   0.000000 [a0]

Properties computed using the SCF density matrix

  Nuclear Dipole Moment: [e a0]
     X:   175.3764      Y:   -11.4267      Z:    48.7460

  Electronic Dipole Moment: [e a0]
     X:  -175.1722      Y:    11.1811      Z:   -49.0680

  Dipole Moment: [e a0]
     X:     0.2042      Y:    -0.2455      Z:    -0.3220     Total:     0.4535

  Dipole Moment: [D]
     X:     0.5189      Y:    -0.6241      Z:    -0.8184     Total:     1.1526


*** tstop() called on loro.prib.upf.edu at Sat Sep 29 16:49:33 2018
Module time:
	user time   =      12.78 seconds =       0.21 minutes
	system time =       0.20 seconds =       0.00 minutes
	total time  =         16 seconds =       0.27 minutes
Total time:
	user time   =      12.78 seconds =       0.21 minutes
	system time =       0.20 seconds =       0.00 minutes
	total time  =         16 seconds =       0.27 minutes


Properties will be evaluated at   0.000000,   0.000000,   0.000000 [a0]
OEProp: No title given, name of density matrix used for the following properties is 'SCF density'
  Nuclear Dipole Moment: [e a0]
     X:   175.3764      Y:   -11.4267      Z:    48.7460

  Electronic Dipole Moment: [e a0]
     X:  -175.1722      Y:    11.1811      Z:   -49.0680

  Dipole Moment: [e a0]
     X:     0.2042      Y:    -0.2455      Z:    -0.3220     Total:     0.4535

  Dipole Moment: [D]
     X:     0.5189      Y:    -0.6241      Z:    -0.8184     Total:     1.1526

  Quadrupole Moment: [D A]
    XX:   -22.4255     YY:   -23.3130     ZZ:   -21.6160
    XY:    -5.7900     XZ:     1.3283     YZ:    -4.3457

  Traceless Quadrupole Moment: [D A]
    XX:     0.0260     YY:    -0.8615     ZZ:     0.8355
    XY:    -5.7900     XZ:     1.3283     YZ:    -4.3457

  Mulliken Charges: (a.u.)
   Center  Symbol    Alpha    Beta     Spin     Total
       1     O     4.14012  4.14012  0.00000 -0.28024
       2     C     2.93295  2.93295  0.00000  0.13409
       3     C     2.93314  2.93314  0.00000  0.13372
       4     O     4.14036  4.14036  0.00000 -0.28072
       5     H     0.43043  0.43043  0.00000  0.13914
       6     H     0.49400  0.49400  0.00000  0.01201
       7     H     0.50243  0.50243  0.00000 -0.00487
       8     H     0.50229  0.50229  0.00000 -0.00458
       9     H     0.49390  0.49390  0.00000  0.01221
      10     H     0.43038  0.43038  0.00000  0.13924

   Total alpha = 17.00000, Total beta = 17.00000, Total charge =  0.00000


    Psi4 stopped on: Saturday, 29 September 2018 04:49PM
    Psi4 wall time for execution: 0:00:15.61

*** Psi4 exiting successfully. Buy a developer a beer!
