
    -----------------------------------------------------------------------
          Psi4: An Open-Source Ab Initio Electronic Structure Package
                               Psi4 1.2.1 release

                         Git: Rev {HEAD} 406f4de 


    R. M. Parrish, L. A. Burns, D. G. A. Smith, A. C. Simmonett,
    A. E. DePrince III, E. G. Hohenstein, U. Bozkaya, A. Yu. Sokolov,
    R. Di Remigio, R. M. Richard, J. F. Gonthier, A. M. James,
    H. R. McAlexander, A. Kumar, M. Saitow, X. Wang, B. P. Pritchard,
    P. Verma, H. F. Schaefer III, K. Patkowski, R. A. King, E. F. Valeev,
    F. A. Evangelista, J. M. Turney, T. D. Crawford, and C. D. Sherrill,
    J. Chem. Theory Comput. 13(7) pp 3185--3197 (2017).
    (doi: 10.1021/acs.jctc.7b00174)


                         Additional Contributions by
    P. Kraus, H. Kruse, M. H. Lechner, M. C. Schieber, and R. A. Shaw

    -----------------------------------------------------------------------


    Psi4 started on: Saturday, 29 September 2018 08:50PM

    Process ID: 19435
    Host:       green.prib.upf.edu
    PSIDATADIR: /shared/joao/test_parameterize/miniconda3/share/psi4
    Memory:     500.0 MiB
    Threads:    1
    
  ==> Input File <==

--------------------------------------------------------------------------
set_num_threads(4)
set_memory('3000 MB')

set { scf_mem_safety_factor 0.7 }

set { reference rks }
set { basis 6-31G* }

molecule MOL {
    1 1
    noreorient
    nocom
    symmetry c1
    C   -0.000000  -0.000000  -0.177864
    C    0.036678   1.219374   0.524165
    C    0.031765   1.213120   1.915444
    C    0.000000   0.000000   2.610107
    C   -0.031765  -1.213120   1.915444
    C   -0.036678  -1.219375   0.524165
    C   -0.000000   0.000000  -1.644734
    H    0.018170   2.164705  -0.010854
    H    0.042402   2.152895   2.457886
    H    0.000000   0.000000   3.695756
    H   -0.042402  -2.152895   2.457886
    H   -0.018170  -2.164705  -0.010853
    N    1.128577  -0.234187  -2.308461
    N   -1.128577   0.234187  -2.308461
    H   -1.201113   0.154337  -3.315997
    H   -1.943991   0.570662  -1.813317
    H    1.943991  -0.570662  -1.813317
    H    1.201113  -0.154337  -3.315997
}

set optking { frozen_dihedral = (" 2 1 7 13 ") }

set optking { dynamic_level = 1 
 geom_maxiter = 250
 print_trajectory_xyz_file = True }

energy, wfn = optimize('B3LYP-D3', return_wfn=True)

import os
os.chdir(os.environ['HTMD_PSI4_WORKDIR'])

oeprop(wfn, 'DIPOLE', 'QUADRUPOLE', 'MULLIKEN_CHARGES')

with open('psi4out.xyz', 'w') as f:
    f.write('18 ' )
    f.write('%.12f\n' % energy)
    f.write(MOL.save_string_xyz())
--------------------------------------------------------------------------
  Threads set to 4 by Python driver.

  Memory set to   2.794 GiB by Python driver.
gradient() will perform analytic gradient computation.

*** tstart() called on green.prib.upf.edu
*** at Sat Sep 29 20:50:19 2018

   => Loading Basis Set <=

    Name: 6-31G*
    Role: ORBITAL
    Keyword: BASIS
    atoms 1-7         entry C          line   111 file /shared/joao/test_parameterize/miniconda3/share/psi4/basis/6-31gs.gbs 
    atoms 8-12, 15-18 entry H          line    44 file /shared/joao/test_parameterize/miniconda3/share/psi4/basis/6-31gs.gbs 
    atoms 13-14       entry N          line   128 file /shared/joao/test_parameterize/miniconda3/share/psi4/basis/6-31gs.gbs 


         ---------------------------------------------------------
                                   SCF
            by Justin Turney, Rob Parrish, Andy Simmonett
                             and Daniel Smith
                              RKS Reference
                        4 Threads,   2861 MiB Core
         ---------------------------------------------------------

  ==> Geometry <==

    Molecular point group: c1
    Full point group: C1

    Geometry (in Angstrom), charge = 1, multiplicity = 1:

       Center              X                  Y                   Z               Mass       
    ------------   -----------------  -----------------  -----------------  -----------------
         C            0.000000000000     0.000000000000    -0.177864000000    12.000000000000
         C            0.036678000000     1.219374000000     0.524165000000    12.000000000000
         C            0.031765000000     1.213120000000     1.915444000000    12.000000000000
         C            0.000000000000     0.000000000000     2.610107000000    12.000000000000
         C           -0.031765000000    -1.213120000000     1.915444000000    12.000000000000
         C           -0.036678000000    -1.219375000000     0.524165000000    12.000000000000
         C            0.000000000000     0.000000000000    -1.644734000000    12.000000000000
         H            0.018170000000     2.164705000000    -0.010854000000     1.007825032070
         H            0.042402000000     2.152895000000     2.457886000000     1.007825032070
         H            0.000000000000     0.000000000000     3.695756000000     1.007825032070
         H           -0.042402000000    -2.152895000000     2.457886000000     1.007825032070
         H           -0.018170000000    -2.164705000000    -0.010853000000     1.007825032070
         N            1.128577000000    -0.234187000000    -2.308461000000    14.003074004780
         N           -1.128577000000     0.234187000000    -2.308461000000    14.003074004780
         H           -1.201113000000     0.154337000000    -3.315997000000     1.007825032070
         H           -1.943991000000     0.570662000000    -1.813317000000     1.007825032070
         H            1.943991000000    -0.570662000000    -1.813317000000     1.007825032070
         H            1.201113000000    -0.154337000000    -3.315997000000     1.007825032070

  Running in c1 symmetry.

  Rotational constants: A =      0.12190  B =      0.03679  C =      0.03328 [cm^-1]
  Rotational constants: A =   3654.48747  B =   1102.96421  C =    997.72837 [MHz]
  Nuclear repulsion =  415.851025427253148

  Charge       = 1
  Multiplicity = 1
  Electrons    = 64
  Nalpha       = 32
  Nbeta        = 32

  ==> Algorithm <==

  SCF Algorithm Type is DF.
  DIIS enabled.
  MOM disabled.
  Fractional occupation disabled.
  Guess Type is SAD.
  Energy threshold   = 1.00e-08
  Density threshold  = 1.00e-08
  Integral threshold = 0.00e+00

  ==> Primary Basis <==

  Basis Set: 6-31G*
    Blend: 6-31G*
    Number of shells: 72
    Number of basis function: 153
    Number of Cartesian functions: 153
    Spherical Harmonics?: false
    Max angular momentum: 2

  ==> DFT Potential <==

   => Composite Functional: B3LYP-D3ZERO <= 

    B3LYP-d3zero Hyb-GGA Exchange-Correlation Functional

    P. J. Stephens, F. J. Devlin, C. F. Chabalowski, and M. J. Frisch, J. Phys. Chem. 98, 11623 (1994)

    Deriv               =              1
    GGA                 =           TRUE
    Meta                =          FALSE

    Exchange Hybrid     =           TRUE
    MP2 Hybrid          =          FALSE

   => Exchange Functionals <=

    0.0800   Slater exchange
    0.7200         Becke 88

   => Exact (HF) Exchange <=

    0.2000               HF 

   => Correlation Functionals <=

    0.1900   Vosko, Wilk & Nusair (VWN5_RPA)
    0.8100   Lee, Yang & Parr

   => Molecular Quadrature <=

    Radial Scheme       =       TREUTLER
    Pruning Scheme      =           FLAT
    Nuclear Scheme      =       TREUTLER

    BS radius alpha     =              1
    Pruning alpha       =              1
    Radial Points       =             75
    Spherical Points    =            302
    Total Points        =         397344
    Total Blocks        =           2998
    Max Points          =            256
    Max Functions       =            149

   => -D3ZERO: Empirical Dispersion <=

    Grimme's -D3 (zero-damping) Dispersion Correction
    Grimme S.; Antony J.; Ehrlich S.; Krieg H. (2010), J. Chem. Phys., 132: 154104

        S6 =   1.000000E+00
        S8 =   1.703000E+00
       SR6 =   1.261000E+00
       SR8 =   1.000000E+00
    ALPHA6 =   1.400000E+01

   => Loading Basis Set <=

    Name: (6-31G* AUX)
    Role: JKFIT
    Keyword: DF_BASIS_SCF
    atoms 1-7         entry C          line   121 file /shared/joao/test_parameterize/miniconda3/share/psi4/basis/cc-pvdz-jkfit.gbs 
    atoms 8-12, 15-18 entry H          line    51 file /shared/joao/test_parameterize/miniconda3/share/psi4/basis/cc-pvdz-jkfit.gbs 
    atoms 13-14       entry N          line   171 file /shared/joao/test_parameterize/miniconda3/share/psi4/basis/cc-pvdz-jkfit.gbs 

  ==> Pre-Iterations <==

   -------------------------------------------------------
    Irrep   Nso     Nmo     Nalpha   Nbeta   Ndocc  Nsocc
   -------------------------------------------------------
     A        153     153       0       0       0       0
   -------------------------------------------------------
    Total     153     153      32      32      32       0
   -------------------------------------------------------

  ==> Integral Setup <==

  ==> DiskDFJK: Density-Fitted J/K Matrices <==

    J tasked:                  Yes
    K tasked:                  Yes
    wK tasked:                  No
    OpenMP threads:              4
    Integrals threads:           4
    Memory (MB):              2002
    Algorithm:                Core
    Integral Cache:           NONE
    Schwarz Cutoff:          1E-12
    Fitting Condition:       1E-12

   => Auxiliary Basis Set <=

  Basis Set: (6-31G* AUX)
    Blend: CC-PVDZ-JKFIT
    Number of shells: 297
    Number of basis function: 954
    Number of Cartesian functions: 954
    Spherical Harmonics?: false
    Max angular momentum: 3

  Minimum eigenvalue in the overlap matrix is 4.8861357184E-04.
  Using Symmetric Orthogonalization.

  SCF Guess: Superposition of Atomic Densities via on-the-fly atomic UHF.

  ==> Iterations <==

                           Total Energy        Delta E     RMS |[F,P]|

   @DF-RKS iter   0:  -379.63611605631706   -3.79636e+02   6.82760e-02 
   @DF-RKS iter   1:  -381.04313446524111   -1.40702e+00   1.17890e-02 
   @DF-RKS iter   2:  -380.97597725558580    6.71572e-02   1.26558e-02 DIIS
   @DF-RKS iter   3:  -381.45522013803395   -4.79243e-01   1.54716e-03 DIIS
   @DF-RKS iter   4:  -381.45972626242195   -4.50612e-03   8.74784e-04 DIIS
   @DF-RKS iter   5:  -381.46168546086017   -1.95920e-03   2.36563e-04 DIIS
   @DF-RKS iter   6:  -381.46182589581690   -1.40435e-04   7.44330e-05 DIIS
   @DF-RKS iter   7:  -381.46184063392155   -1.47381e-05   1.44598e-05 DIIS
   @DF-RKS iter   8:  -381.46184112603265   -4.92111e-07   5.62549e-06 DIIS
   @DF-RKS iter   9:  -381.46184121401882   -8.79862e-08   1.89917e-06 DIIS
   @DF-RKS iter  10:  -381.46184122497613   -1.09573e-08   6.17300e-07 DIIS
   @DF-RKS iter  11:  -381.46184122620508   -1.22895e-09   1.02008e-07 DIIS
   @DF-RKS iter  12:  -381.46184122622873   -2.36469e-11   5.87996e-08 DIIS
   @DF-RKS iter  13:  -381.46184122623856   -9.83391e-12   1.59827e-08 DIIS
   @DF-RKS iter  14:  -381.46184122623902   -4.54747e-13   9.43148e-09 DIIS

  ==> Post-Iterations <==

    Orbital Energies [Eh]
    ---------------------

    Doubly Occupied:                                                      

       1A    -14.576511     2A    -14.576503     3A    -10.505340  
       4A    -10.368166     5A    -10.349315     6A    -10.349308  
       7A    -10.333446     8A    -10.333175     9A    -10.332636  
      10A     -1.190335    11A     -1.097947    12A     -1.008707  
      13A     -0.924065    14A     -0.895096    15A     -0.846047  
      16A     -0.788748    17A     -0.764837    18A     -0.753417  
      19A     -0.729080    20A     -0.693557    21A     -0.667947  
      22A     -0.621867    23A     -0.618371    24A     -0.575726  
      25A     -0.573938    26A     -0.567258    27A     -0.514225  
      28A     -0.498589    29A     -0.490584    30A     -0.478742  
      31A     -0.403542    32A     -0.398424  

    Virtual:                                                              

      33A     -0.202734    34A     -0.163747    35A     -0.147587  
      36A     -0.114265    37A     -0.067663    38A     -0.064756  
      39A     -0.035686    40A     -0.029469    41A      0.009941  
      42A      0.014648    43A      0.025076    44A      0.055702  
      45A      0.060347    46A      0.073309    47A      0.142006  
      48A      0.146421    49A      0.165453    50A      0.188732  
      51A      0.202624    52A      0.208588    53A      0.292878  
      54A      0.344269    55A      0.356645    56A      0.376226  
      57A      0.392653    58A      0.396540    59A      0.402952  
      60A      0.425111    61A      0.443639    62A      0.453085  
      63A      0.455898    64A      0.467757    65A      0.475527  
      66A      0.481345    67A      0.482881    68A      0.498328  
      69A      0.515790    70A      0.534001    71A      0.558062  
      72A      0.569346    73A      0.594315    74A      0.639058  
      75A      0.665743    76A      0.676820    77A      0.680725  
      78A      0.685301    79A      0.700821    80A      0.711506  
      81A      0.732263    82A      0.750915    83A      0.779367  
      84A      0.786043    85A      0.813285    86A      0.831875  
      87A      0.854066    88A      0.940122    89A      0.968813  
      90A      1.013591    91A      1.016587    92A      1.024986  
      93A      1.032931    94A      1.078996    95A      1.130233  
      96A      1.184417    97A      1.208129    98A      1.289296  
      99A      1.290942   100A      1.331323   101A      1.331508  
     102A      1.362420   103A      1.365023   104A      1.391034  
     105A      1.439542   106A      1.454180   107A      1.502312  
     108A      1.593008   109A      1.604828   110A      1.659552  
     111A      1.677661   112A      1.740782   113A      1.763647  
     114A      1.800822   115A      1.821713   116A      1.844067  
     117A      1.892200   118A      1.909803   119A      1.966092  
     120A      1.993069   121A      1.999415   122A      2.001306  
     123A      2.038469   124A      2.073646   125A      2.118171  
     126A      2.140130   127A      2.161125   128A      2.193716  
     129A      2.212502   130A      2.278396   131A      2.384214  
     132A      2.392323   133A      2.401295   134A      2.435562  
     135A      2.507636   136A      2.573444   137A      2.581502  
     138A      2.591053   139A      2.630162   140A      2.631952  
     141A      2.708237   142A      2.885883   143A      2.913048  
     144A      3.258073   145A      3.627782   146A      3.633181  
     147A      3.944771   148A      3.968960   149A      3.985970  
     150A      4.126896   151A      4.179483   152A      4.262623  
     153A      4.554294  

    Final Occupation by Irrep:
              A 
    DOCC [    32 ]

  Energy converged.

  @DF-RKS Final Energy:  -381.46184122623902

   => Energetics <=

    Nuclear Repulsion Energy =            415.8510254272531483
    One-Electron Energy =               -1327.0301956467028504
    Two-Electron Energy =                 574.1308843284316481
    DFT Exchange-Correlation Energy =     -44.4019348252209767
    Empirical Dispersion Energy =          -0.0116205100000000
    VV10 Nonlocal Energy =                  0.0000000000000000
    Total Energy =                       -381.4618412262390166



Properties will be evaluated at   0.000000,   0.000000,   0.000000 [a0]

Properties computed using the SCF density matrix

  Nuclear Dipole Moment: [e a0]
     X:    -0.0000      Y:    -0.0000      Z:     0.0248

  Electronic Dipole Moment: [e a0]
     X:    -0.0000      Y:     0.0000      Z:    -2.5970

  Dipole Moment: [e a0]
     X:    -0.0000      Y:    -0.0000      Z:    -2.5723     Total:     2.5723

  Dipole Moment: [D]
     X:    -0.0000      Y:    -0.0000      Z:    -6.5380     Total:     6.5380


*** tstop() called on green.prib.upf.edu at Sat Sep 29 20:50:46 2018
Module time:
	user time   =     100.40 seconds =       1.67 minutes
	system time =       0.45 seconds =       0.01 minutes
	total time  =         27 seconds =       0.45 minutes
Total time:
	user time   =     100.40 seconds =       1.67 minutes
	system time =       0.45 seconds =       0.01 minutes
	total time  =         27 seconds =       0.45 minutes

*** tstart() called on green.prib.upf.edu
*** at Sat Sep 29 20:50:46 2018


         ------------------------------------------------------------
                                   SCF GRAD                          
                          Rob Parrish, Justin Turney,                
                       Andy Simmonett, and Alex Sokolov              
         ------------------------------------------------------------

  ==> Geometry <==

    Molecular point group: c1
    Full point group: C1

    Geometry (in Angstrom), charge = 1, multiplicity = 1:

       Center              X                  Y                   Z               Mass       
    ------------   -----------------  -----------------  -----------------  -----------------
         C            0.000000000000     0.000000000000    -0.177864000000    12.000000000000
         C            0.036678000000     1.219374000000     0.524165000000    12.000000000000
         C            0.031765000000     1.213120000000     1.915444000000    12.000000000000
         C            0.000000000000     0.000000000000     2.610107000000    12.000000000000
         C           -0.031765000000    -1.213120000000     1.915444000000    12.000000000000
         C           -0.036678000000    -1.219375000000     0.524165000000    12.000000000000
         C            0.000000000000     0.000000000000    -1.644734000000    12.000000000000
         H            0.018170000000     2.164705000000    -0.010854000000     1.007825032070
         H            0.042402000000     2.152895000000     2.457886000000     1.007825032070
         H            0.000000000000     0.000000000000     3.695756000000     1.007825032070
         H           -0.042402000000    -2.152895000000     2.457886000000     1.007825032070
         H           -0.018170000000    -2.164705000000    -0.010853000000     1.007825032070
         N            1.128577000000    -0.234187000000    -2.308461000000    14.003074004780
         N           -1.128577000000     0.234187000000    -2.308461000000    14.003074004780
         H           -1.201113000000     0.154337000000    -3.315997000000     1.007825032070
         H           -1.943991000000     0.570662000000    -1.813317000000     1.007825032070
         H            1.943991000000    -0.570662000000    -1.813317000000     1.007825032070
         H            1.201113000000    -0.154337000000    -3.315997000000     1.007825032070

  Nuclear repulsion =  415.851025427253148

  ==> Basis Set <==

  Basis Set: 6-31G*
    Blend: 6-31G*
    Number of shells: 72
    Number of basis function: 153
    Number of Cartesian functions: 153
    Spherical Harmonics?: false
    Max angular momentum: 2

  ==> DFJKGrad: Density-Fitted SCF Gradients <==

    Gradient:                    1
    J tasked:                  Yes
    K tasked:                  Yes
    wK tasked:                  No
    OpenMP threads:              4
    Integrals threads:           4
    Memory (MB):              2002
    Schwarz Cutoff:          0E+00
    Fitting Condition:       1E-12

   => Auxiliary Basis Set <=

  Basis Set: (6-31G* AUX)
    Blend: CC-PVDZ-JKFIT
    Number of shells: 297
    Number of basis function: 954
    Number of Cartesian functions: 954
    Spherical Harmonics?: false
    Max angular momentum: 3

  ==> DFT Potential <==

   => Composite Functional: B3LYP-D3ZERO <= 

    B3LYP-d3zero Hyb-GGA Exchange-Correlation Functional

    P. J. Stephens, F. J. Devlin, C. F. Chabalowski, and M. J. Frisch, J. Phys. Chem. 98, 11623 (1994)

    Deriv               =              1
    GGA                 =           TRUE
    Meta                =          FALSE

    Exchange Hybrid     =           TRUE
    MP2 Hybrid          =          FALSE

   => Exchange Functionals <=

    0.0800   Slater exchange
    0.7200         Becke 88

   => Exact (HF) Exchange <=

    0.2000               HF 

   => Correlation Functionals <=

    0.1900   Vosko, Wilk & Nusair (VWN5_RPA)
    0.8100   Lee, Yang & Parr

   => Molecular Quadrature <=

    Radial Scheme       =       TREUTLER
    Pruning Scheme      =           FLAT
    Nuclear Scheme      =       TREUTLER

    BS radius alpha     =              1
    Pruning alpha       =              1
    Radial Points       =             75
    Spherical Points    =            302
    Total Points        =         397344
    Total Blocks        =           2998
    Max Points          =            256
    Max Functions       =            149


  -Total Gradient:
     Atom            X                  Y                   Z
    ------   -----------------  -----------------  -----------------
       1       -0.000000010823     0.000000489153    -0.016175388737
       2        0.005387141378     0.000427198463     0.005221519819
       3        0.000626619768     0.002649847235    -0.002290721644
       4       -0.000000001071    -0.000000096249     0.000170065462
       5       -0.000626617973    -0.002649632999    -0.002290622364
       6       -0.005387136849    -0.000428599369     0.005221186014
       7        0.000000038958    -0.000000003259     0.016147870336
       8       -0.002464739221     0.000138137576     0.000866981662
       9       -0.000601815760    -0.000150391794     0.000185427898
      10        0.000000000132     0.000000008648     0.000015949524
      11        0.000601814172     0.000150412406     0.000185359505
      12        0.002464725537    -0.000137374289     0.000867453629
      13        0.005230901622     0.002470590851    -0.003638729286
      14       -0.005230916178    -0.002470585634    -0.003638737719
      15       -0.000391595052    -0.002588689236     0.001574194023
      16        0.001410716327     0.002975302222    -0.002005774404
      17       -0.001410717666    -0.002975302556    -0.002005773942
      18        0.000391592694     0.002588688824     0.001574191274


*** tstop() called on green.prib.upf.edu at Sat Sep 29 20:50:53 2018
Module time:
	user time   =      25.79 seconds =       0.43 minutes
	system time =       0.20 seconds =       0.00 minutes
	total time  =          7 seconds =       0.12 minutes
Total time:
	user time   =     126.25 seconds =       2.10 minutes
	system time =       0.66 seconds =       0.01 minutes
	total time  =         34 seconds =       0.57 minutes

			-----------------------------------------
			 OPTKING 2.0: for geometry optimizations 
			  - R.A. King,  Bethel University        
			-----------------------------------------
	At level 1: Red. Int., RFO, no backsteps, dynamic trust

	Internal coordinates to be generated automatically.
	Detected frag 1 with atoms:  1 2 3 4 5 6 7 8 9 10 11 12 13 14 15 16 17 18
	---Fragment 1 Bond Connectivity---
	 1 : 2 6 7
	 2 : 1 3 8
	 3 : 2 4 9
	 4 : 3 5 10
	 5 : 4 6 11
	 6 : 1 5 12
	 7 : 1 13 14
	 8 : 2
	 9 : 3
	 10 : 4
	 11 : 5
	 12 : 6
	 13 : 7 17 18
	 14 : 7 15 16
	 15 : 14
	 16 : 14
	 17 : 13
	 18 : 13

	Assuming in current code that numbering for constraints corresponds to unified fragment.
	Frozen dihedral atom list: 
	     2     1     7    13
	---Fragment 1 Geometry and Gradient---
	 C           0.0000000000        0.0000000000       -0.3361142489
	 C           0.0693113751        2.3042829136        0.9905282984
	 C           0.0600271506        2.2924645663        3.6196645829
	 C           0.0000000000        0.0000000000        4.9323874075
	 C          -0.0600271506       -2.2924645663        3.6196645829
	 C          -0.0693113751       -2.3042848033        0.9905282984
	 C           0.0000000000        0.0000000000       -3.1080968214
	 H           0.0343363238        4.0906996085       -0.0205110874
	 H           0.0801281675        4.0683819429        4.6447314059
	 H           0.0000000000        0.0000000000        6.9839666940
	 H          -0.0801281675       -4.0683819429        4.6447314059
	 H          -0.0343363238       -4.0906996085       -0.0205091977
	 N           2.1327014499       -0.4425492939       -4.3623590784
	 N          -2.1327014499        0.4425492939       -4.3623590784
	 H          -2.2697746246        0.2916546622       -6.2663261875
	 H          -3.6736105948        1.0783948944       -3.4266725221
	 H           3.6736105948       -1.0783948944       -3.4266725221
	 H           2.2697746246       -0.2916546622       -6.2663261875
	            -0.0000000108        0.0000004892       -0.0161753887
	             0.0053871414        0.0004271985        0.0052215198
	             0.0006266198        0.0026498472       -0.0022907216
	            -0.0000000011       -0.0000000962        0.0001700655
	            -0.0006266180       -0.0026496330       -0.0022906224
	            -0.0053871368       -0.0004285994        0.0052211860
	             0.0000000390       -0.0000000033        0.0161478703
	            -0.0024647392        0.0001381376        0.0008669817
	            -0.0006018158       -0.0001503918        0.0001854279
	             0.0000000001        0.0000000086        0.0000159495
	             0.0006018142        0.0001504124        0.0001853595
	             0.0024647255       -0.0001373743        0.0008674536
	             0.0052309016        0.0024705909       -0.0036387293
	            -0.0052309162       -0.0024705856       -0.0036387377
	            -0.0003915951       -0.0025886892        0.0015741940
	             0.0014107163        0.0029753022       -0.0020057744
	            -0.0014107177       -0.0029753026       -0.0020057739
	             0.0003915927        0.0025886888        0.0015741913

	Previous optimization step data not found.  Starting new optimization.

	---Fragment 1 Intrafragment Coordinates---
	 - Coordinate -           - BOHR/RAD -       - ANG/DEG -
	 R(1,2)           =         2.659794	       1.407502
	 R(1,6)           =         2.659796	       1.407503
	 R(1,7)           =         2.771983	       1.466870
	 R(2,3)           =         2.629179	       1.391302
	 R(2,8)           =         2.052976	       1.086388
	 R(3,4)           =         2.642393	       1.398294
	 R(3,9)           =         2.050622	       1.085142
	 R(4,5)           =         2.642393	       1.398294
	 R(4,10)          =         2.051579	       1.085649
	 R(5,6)           =         2.629179	       1.391302
	 R(5,11)          =         2.050622	       1.085142
	 R(6,12)          =         2.052973	       1.086386
	 R(7,13)          =         2.513452	       1.330061
	 R(7,14)          =         2.513452	       1.330061
	 R(13,17)         =         1.911599	       1.011575
	 R(13,18)         =         1.914850	       1.013295
	 R(14,15)         =         1.914850	       1.013295
	 R(14,16)         =         1.911599	       1.011575
	 B(1,2,3)         =         2.088380	     119.655376
	 B(1,2,8)         =         2.103396	     120.515689
	 B(1,6,5)         =         2.088379	     119.655315
	 B(1,6,12)        =         2.103396	     120.515729
	 B(1,7,13)        =         2.093264	     119.935175
	 B(1,7,14)        =         2.093264	     119.935175
	 B(2,1,6)         =         2.097220	     120.161857
	 B(2,1,7)         =         2.092983	     119.919082
	 B(2,3,4)         =         2.095279	     120.050636
	 B(2,3,9)         =         2.089719	     119.732108
	 B(3,2,8)         =         2.090149	     119.756722
	 B(3,4,5)         =         2.101793	     120.423859
	 B(3,4,10)        =         2.090696	     119.788070
	 B(4,3,9)         =         2.098135	     120.214297
	 B(4,5,6)         =         2.095280	     120.050677
	 B(4,5,11)        =         2.098135	     120.214297
	 B(5,4,10)        =         2.090696	     119.788070
	 B(5,6,12)        =         2.090149	     119.756743
	 B(6,1,7)         =         2.092982	     119.919061
	 B(6,5,11)        =         2.089719	     119.732067
	 B(7,13,17)       =         2.092411	     119.886331
	 B(7,13,18)       =         2.144861	     122.891457
	 B(7,14,15)       =         2.144861	     122.891457
	 B(7,14,16)       =         2.092411	     119.886331
	 B(13,7,14)       =         2.096658	     120.129650
	 B(15,14,16)      =         2.043399	     117.078150
	 B(17,13,18)      =         2.043399	     117.078150
	 D(1,2,3,4)       =         0.007799	       0.446825
	 D(1,2,3,9)       =        -3.122896	    -178.928735
	 D(1,6,5,4)       =         0.007799	       0.446822
	 D(1,6,5,11)      =        -3.122896	    -178.928737
	 D(1,7,13,17)     =         0.187845	      10.762719
	 D(1,7,13,18)     =        -3.032165	    -173.730270
	 D(1,7,14,15)     =        -3.032165	    -173.730270
	 D(1,7,14,16)     =         0.187845	      10.762719
	 D(2,1,6,5)       =        -0.003906	      -0.223802
	 D(2,1,6,12)      =        -3.091437	    -177.126283
	*D(2,1,7,13)      =         1.745329	      99.999974
	 D(2,1,7,14)      =        -1.396264	     -80.000026
	 D(2,3,4,5)       =        -0.003942	      -0.225875
	 D(2,3,4,10)      =         3.137650	     179.774125
	 D(3,2,1,6)       =        -0.003906	      -0.223806
	 D(3,2,1,7)       =         3.137687	     179.776196
	 D(3,4,5,6)       =        -0.003942	      -0.225874
	 D(3,4,5,11)      =         3.126699	     179.146646
	 D(4,3,2,8)       =         3.095744	     177.373058
	 D(4,5,6,12)      =         3.095744	     177.373055
	 D(5,4,3,9)       =         3.126699	     179.146646
	 D(5,6,1,7)       =         3.137687	     179.776197
	 D(6,1,2,8)       =        -3.091437	    -177.126287
	 D(6,1,7,13)      =        -1.396264	     -80.000025
	 D(6,1,7,14)      =         1.745329	      99.999975
	 D(6,5,4,10)      =         3.137650	     179.774126
	 D(7,1,2,8)       =         0.050156	       2.873714
	 D(7,1,6,12)      =         0.050156	       2.873716
	 D(8,2,3,9)       =        -0.034950	      -2.002503
	 D(9,3,4,10)      =        -0.014894	      -0.853354
	 D(10,4,5,11)     =        -0.014894	      -0.853354
	 D(11,5,6,12)     =        -0.034950	      -2.002504
	 D(13,7,14,15)    =         0.109427	       6.269730
	 D(13,7,14,16)    =        -2.953748	    -169.237281
	 D(14,7,13,17)    =        -2.953748	    -169.237281
	 D(14,7,13,18)    =         0.109427	       6.269730

	Current energy   :      -381.4618412262

	Generating empirical Hessian (Schlegel '84) for each fragment.
	Taking RFO optimization step.
	Going to follow RFO solution 1.
	Using RFO vector 1.
	Norm of target step-size    0.34940
	Projected energy change by RFO approximation:        -0.0035185644

	Back-transformation to cartesian coordinates...
	Could not converge backtransformation.
	Using first guess instead.

	Back-transformation to cartesian coordinates to adjust frozen coordinates...
	Successfully converged to displaced geometry.

	--- Internal Coordinate Step in ANG or DEG, aJ/ANG or AJ/DEG ---
	 ---------------------------------------------------------------------------
	   Coordinate                Previous        Force       Change         New 
	   ----------                --------       ------       ------       ------
	    1 R(1,2)          =      1.407502    -0.032146    -0.004692     1.402810
	    2 R(1,6)          =      1.407503    -0.032151    -0.004610     1.402893
	    3 R(1,7)          =      1.466870     0.066019     0.011637     1.478507
	    4 R(2,3)          =      1.391302     0.016592     0.002322     1.393623
	    5 R(2,8)          =      1.086388     0.002185     0.001416     1.087804
	    6 R(3,4)          =      1.398294    -0.007501    -0.000905     1.397389
	    7 R(3,9)          =      1.085142     0.000354     0.000340     1.085482
	    8 R(4,5)          =      1.398294    -0.007501    -0.000912     1.397382
	    9 R(4,10)         =      1.085649    -0.000139    -0.000018     1.085631
	   10 R(5,6)          =      1.391302     0.016590     0.002265     1.393566
	   11 R(5,11)         =      1.085142     0.000355     0.000220     1.085362
	   12 R(6,12)         =      1.086386     0.002192     0.001353     1.087740
	   13 R(7,13)         =      1.330061    -0.043144    -0.004522     1.325539
	   14 R(7,14)         =      1.330061    -0.043144    -0.004572     1.325490
	   15 R(13,17)        =      1.011575     0.009301     0.006855     1.018429
	   16 R(13,18)        =      1.013295     0.010991     0.004273     1.017568
	   17 R(14,15)        =      1.013295     0.010991     0.004992     1.018286
	   18 R(14,16)        =      1.011575     0.009301     0.006649     1.018223
	   19 B(1,2,3)        =    119.655376    -0.000124    -0.413593   119.241783
	   20 B(1,2,8)        =    120.515689     0.000004    -0.031885   120.483804
	   21 B(1,6,5)        =    119.655315    -0.000124    -0.413274   119.242041
	   22 B(1,6,12)       =    120.515729     0.000004    -0.053407   120.462322
	   23 B(1,7,13)       =    119.935175    -0.000175    -0.522947   119.412228
	   24 B(1,7,14)       =    119.935175    -0.000175    -0.519550   119.415625
	   25 B(2,1,6)        =    120.161857     0.000250     0.698429   120.860286
	   26 B(2,1,7)        =    119.919082    -0.000125    -0.349108   119.569974
	   27 B(2,3,4)        =    120.050636     0.000022     0.109421   120.160057
	   28 B(2,3,9)        =    119.732108    -0.000030    -0.134357   119.597750
	   29 B(3,2,8)        =    119.756722     0.000126     0.513618   120.270340
	   30 B(3,4,5)        =    120.423859    -0.000046    -0.091765   120.332094
	   31 B(3,4,10)       =    119.788070     0.000023     0.046207   119.834278
	   32 B(4,3,9)        =    120.214297     0.000008     0.027003   120.241300
	   33 B(4,5,6)        =    120.050677     0.000022     0.108904   120.159581
	   34 B(4,5,11)       =    120.214297     0.000008     0.033195   120.247492
	   35 B(5,4,10)       =    119.788070     0.000023     0.045488   119.833558
	   36 B(5,6,12)       =    119.756743     0.000125     0.533689   120.290432
	   37 B(6,1,7)        =    119.919061    -0.000125    -0.353706   119.565355
	   38 B(6,5,11)       =    119.732067    -0.000030    -0.139606   119.592460
	   39 B(7,13,17)      =    119.886331    -0.000109    -0.604493   119.281839
	   40 B(7,13,18)      =    122.891457     0.000072     0.242712   123.134169
	   41 B(7,14,15)      =    122.891457     0.000072     0.273268   123.164726
	   42 B(7,14,16)      =    119.886331    -0.000109    -0.679665   119.206666
	   43 B(13,7,14)      =    120.129650     0.000349     1.038295   121.167945
	   44 B(15,14,16)     =    117.078150     0.000040     0.488481   117.566631
	   45 B(17,13,18)     =    117.078150     0.000040     0.443999   117.522148
	   46 D(1,2,3,4)      =      0.446825    -0.000006    -0.828581    -0.381756
	   47 D(1,2,3,9)      =   -178.928735    -0.000012    -1.795838  -180.724574
	   48 D(1,6,5,4)      =      0.446822    -0.000007    -1.112374    -0.665552
	   49 D(1,6,5,11)     =   -178.928737    -0.000013    -1.984728  -180.913466
	   50 D(1,7,13,17)    =     10.762719    -0.000049    -6.435505     4.327214
	   51 D(1,7,13,18)    =   -173.730270    -0.000037    -4.875784  -178.606054
	   52 D(1,7,14,15)    =   -173.730270    -0.000041    -5.601558  -179.331828
	   53 D(1,7,14,16)    =     10.762719    -0.000053    -7.159273     3.603447
	   54 D(2,1,6,5)      =     -0.223802     0.000005     0.845802     0.622000
	   55 D(2,1,6,12)     =   -177.126283    -0.000021    -3.079234  -180.205517
	   56 *D(2,1,7,13)    =     99.999974    -0.000000     0.000000    99.999974
	   57 D(2,1,7,14)     =    -80.000026     0.000004     0.736837   -79.263190
	   58 D(2,3,4,5)      =     -0.225875     0.000004     0.563880     0.338005
	   59 D(2,3,4,10)     =    179.774125     0.000003     0.467549   180.241674
	   60 D(3,2,1,6)      =     -0.223806     0.000002     0.124948    -0.098858
	   61 D(3,2,1,7)      =    179.776196     0.000005     0.890010   180.666206
	   62 D(3,4,5,6)      =     -0.225874     0.000003     0.419272     0.193397
	   63 D(3,4,5,11)     =    179.146646     0.000009     1.296301   180.442947
	   64 D(4,3,2,8)      =    177.373058     0.000019     2.975697   180.348754
	   65 D(4,5,6,12)     =    177.373055     0.000018     2.787456   180.160511
	   66 D(5,4,3,9)      =    179.146646     0.000010     1.536399   180.683046
	   67 D(5,6,1,7)      =    179.776197     0.000001     0.080774   179.856971
	   68 D(6,1,2,8)      =   -177.126287    -0.000024    -3.704679  -180.830966
	   69 D(6,1,7,13)     =    -80.000025     0.000004     0.755059   -79.244966
	   70 D(6,1,7,14)     =     99.999975     0.000008     1.491895   101.491870
	   71 D(6,5,4,10)     =    179.774126     0.000003     0.515602   180.289728
	   72 D(7,1,2,8)      =      2.873714    -0.000020    -2.939616    -0.065902
	   73 D(7,1,6,12)     =      2.873716    -0.000025    -3.844262    -0.970546
	   74 D(8,2,3,9)      =     -2.002503     0.000013     2.008440     0.005937
	   75 D(9,3,4,10)     =     -0.853354     0.000009     1.440068     0.586714
	   76 D(10,4,5,11)    =     -0.853354     0.000009     1.392631     0.539278
	   77 D(11,5,6,12)    =     -2.002504     0.000012     1.915102    -0.087402
	   78 D(13,7,14,15)   =      6.269730    -0.000037    -4.851412     1.418318
	   79 D(13,7,14,16)   =   -169.237281    -0.000049    -6.409126  -175.646407
	   80 D(14,7,13,17)   =   -169.237281    -0.000053    -7.185626  -176.422907
	   81 D(14,7,13,18)   =      6.269730    -0.000041    -5.625906     0.643824
	 ---------------------------------------------------------------------------
	Successfully symmetrized geometry.

  ==> Convergence Check <==

  Measures of convergence in internal coordinates in au.
  Criteria marked as inactive (o), active & met (*), and active & unmet ( ).
  --------------------------------------------------------------------------------------------- ~
   Step     Total Energy     Delta E     MAX Force     RMS Force      MAX Disp      RMS Disp    ~
  --------------------------------------------------------------------------------------------- ~
    Convergence Criteria    1.00e-06 *    3.00e-04 *             o    1.20e-03 *             o  ~
  --------------------------------------------------------------------------------------------- ~
      1    -381.46184123   -3.81e+02      8.01e-03      1.92e-03 o    1.25e-01      3.87e-02 o  ~
  ---------------------------------------------------------------------------------------------

	Writing optimization data to binary file.
	Structure for next step:
	Cartesian Geometry (in Angstrom)
	    C    -0.0087232498  -0.0030141932  -0.1746850270
	    C     0.0211541085   1.2176096201   0.5160107910
	    C     0.0306685850   1.2112054530   1.9095869868
	    C     0.0025408851   0.0002217154   2.6063101399
	    C    -0.0281816483  -1.2124602573   1.9126715358
	    C    -0.0269089972  -1.2221883922   0.5191396474
	    C    -0.0040434166  -0.0050371891  -1.6531835363
	    H     0.0487249999   2.1590873337  -0.0282102301
	    H     0.0656906710   2.1520538868   2.4498177373
	    H     0.0061498334   0.0015073241   3.6919341723
	    H    -0.0572526243  -2.1520506617   2.4551992095
	    H    -0.0534196378  -2.1648485908  -0.0229555525
	    N     1.1294955449  -0.2362511026  -2.3002418502
	    N    -1.1303256962   0.2389095974  -2.3080889173
	    H    -1.1943139392   0.2419302063  -3.3243584483
	    H    -1.9688469329   0.4783790868  -1.7824322851
	    H     1.9658994298  -0.4745263188  -1.7702874747
	    H     1.2016920849  -0.2305285180  -3.3152288987
			--------------------------
			 OPTKING Finished Execution 
			--------------------------

    Structure for next step:
    Molecular point group: c1
    Full point group: C1

    Geometry (in Angstrom), charge = 1, multiplicity = 1:

    C           -0.008723249837    -0.003014193218    -0.174685027047
    C            0.021154108475     1.217609620104     0.516010791019
    C            0.030668584961     1.211205453025     1.909586986784
    C            0.002540885106     0.000221715442     2.606310139887
    C           -0.028181648321    -1.212460257325     1.912671535805
    C           -0.026908997246    -1.222188392222     0.519139647378
    C           -0.004043416644    -0.005037189082    -1.653183536265
    H            0.048724999876     2.159087333676    -0.028210230065
    H            0.065690670987     2.152053886828     2.449817737312
    H            0.006149833415     0.001507324078     3.691934172301
    H           -0.057252624262    -2.152050661688     2.455199209531
    H           -0.053419637789    -2.164848590750    -0.022955552486
    N            1.129495544900    -0.236251102579    -2.300241850167
    N           -1.130325696249     0.238909597404    -2.308088917272
    H           -1.194313939180     0.241930206307    -3.324358448309
    H           -1.968846932935     0.478379086766    -1.782432285090
    H            1.965899429820    -0.474526318787    -1.770287474661
    H            1.201692084922    -0.230528517977    -3.315228898656

gradient() will perform analytic gradient computation.

*** tstart() called on green.prib.upf.edu
*** at Sat Sep 29 20:50:53 2018

   => Loading Basis Set <=

    Name: 6-31G*
    Role: ORBITAL
    Keyword: BASIS
    atoms 1-7         entry C          line   111 file /shared/joao/test_parameterize/miniconda3/share/psi4/basis/6-31gs.gbs 
    atoms 8-12, 15-18 entry H          line    44 file /shared/joao/test_parameterize/miniconda3/share/psi4/basis/6-31gs.gbs 
    atoms 13-14       entry N          line   128 file /shared/joao/test_parameterize/miniconda3/share/psi4/basis/6-31gs.gbs 


         ---------------------------------------------------------
                                   SCF
            by Justin Turney, Rob Parrish, Andy Simmonett
                             and Daniel Smith
                              RKS Reference
                        4 Threads,   2861 MiB Core
         ---------------------------------------------------------

  ==> Geometry <==

    Molecular point group: c1
    Full point group: C1

    Geometry (in Angstrom), charge = 1, multiplicity = 1:

       Center              X                  Y                   Z               Mass       
    ------------   -----------------  -----------------  -----------------  -----------------
         C           -0.008723249837    -0.003014193218    -0.174685027047    12.000000000000
         C            0.021154108475     1.217609620104     0.516010791019    12.000000000000
         C            0.030668584961     1.211205453025     1.909586986784    12.000000000000
         C            0.002540885106     0.000221715442     2.606310139887    12.000000000000
         C           -0.028181648321    -1.212460257325     1.912671535805    12.000000000000
         C           -0.026908997246    -1.222188392222     0.519139647378    12.000000000000
         C           -0.004043416644    -0.005037189082    -1.653183536265    12.000000000000
         H            0.048724999876     2.159087333676    -0.028210230065     1.007825032070
         H            0.065690670987     2.152053886828     2.449817737312     1.007825032070
         H            0.006149833415     0.001507324078     3.691934172301     1.007825032070
         H           -0.057252624262    -2.152050661688     2.455199209531     1.007825032070
         H           -0.053419637789    -2.164848590750    -0.022955552486     1.007825032070
         N            1.129495544900    -0.236251102579    -2.300241850167    14.003074004780
         N           -1.130325696249     0.238909597404    -2.308088917272    14.003074004780
         H           -1.194313939180     0.241930206307    -3.324358448309     1.007825032070
         H           -1.968846932935     0.478379086766    -1.782432285090     1.007825032070
         H            1.965899429820    -0.474526318787    -1.770287474661     1.007825032070
         H            1.201692084922    -0.230528517977    -3.315228898656     1.007825032070

  Running in c1 symmetry.

  Rotational constants: A =      0.12183  B =      0.03688  C =      0.03337 [cm^-1]
  Rotational constants: A =   3652.45168  B =   1105.75415  C =   1000.54114 [MHz]
  Nuclear repulsion =  416.040351843727080

  Charge       = 1
  Multiplicity = 1
  Electrons    = 64
  Nalpha       = 32
  Nbeta        = 32

  ==> Algorithm <==

  SCF Algorithm Type is DF.
  DIIS enabled.
  MOM disabled.
  Fractional occupation disabled.
  Guess Type is READ.
  Energy threshold   = 1.00e-08
  Density threshold  = 1.00e-08
  Integral threshold = 0.00e+00

  ==> Primary Basis <==

  Basis Set: 6-31G*
    Blend: 6-31G*
    Number of shells: 72
    Number of basis function: 153
    Number of Cartesian functions: 153
    Spherical Harmonics?: false
    Max angular momentum: 2

  ==> DFT Potential <==

   => Composite Functional: B3LYP-D3ZERO <= 

    B3LYP-d3zero Hyb-GGA Exchange-Correlation Functional

    P. J. Stephens, F. J. Devlin, C. F. Chabalowski, and M. J. Frisch, J. Phys. Chem. 98, 11623 (1994)

    Deriv               =              1
    GGA                 =           TRUE
    Meta                =          FALSE

    Exchange Hybrid     =           TRUE
    MP2 Hybrid          =          FALSE

   => Exchange Functionals <=

    0.0800   Slater exchange
    0.7200         Becke 88

   => Exact (HF) Exchange <=

    0.2000               HF 

   => Correlation Functionals <=

    0.1900   Vosko, Wilk & Nusair (VWN5_RPA)
    0.8100   Lee, Yang & Parr

   => Molecular Quadrature <=

    Radial Scheme       =       TREUTLER
    Pruning Scheme      =           FLAT
    Nuclear Scheme      =       TREUTLER

    BS radius alpha     =              1
    Pruning alpha       =              1
    Radial Points       =             75
    Spherical Points    =            302
    Total Points        =         397354
    Total Blocks        =           3009
    Max Points          =            256
    Max Functions       =            151

   => -D3ZERO: Empirical Dispersion <=

    Grimme's -D3 (zero-damping) Dispersion Correction
    Grimme S.; Antony J.; Ehrlich S.; Krieg H. (2010), J. Chem. Phys., 132: 154104

        S6 =   1.000000E+00
        S8 =   1.703000E+00
       SR6 =   1.261000E+00
       SR8 =   1.000000E+00
    ALPHA6 =   1.400000E+01

   => Loading Basis Set <=

    Name: (6-31G* AUX)
    Role: JKFIT
    Keyword: DF_BASIS_SCF
    atoms 1-7         entry C          line   121 file /shared/joao/test_parameterize/miniconda3/share/psi4/basis/cc-pvdz-jkfit.gbs 
    atoms 8-12, 15-18 entry H          line    51 file /shared/joao/test_parameterize/miniconda3/share/psi4/basis/cc-pvdz-jkfit.gbs 
    atoms 13-14       entry N          line   171 file /shared/joao/test_parameterize/miniconda3/share/psi4/basis/cc-pvdz-jkfit.gbs 

  Reading orbitals from file 180, no projection.

  ==> Pre-Iterations <==

   -------------------------------------------------------
    Irrep   Nso     Nmo     Nalpha   Nbeta   Ndocc  Nsocc
   -------------------------------------------------------
     A        153     153       0       0       0       0
   -------------------------------------------------------
    Total     153     153      32      32      32       0
   -------------------------------------------------------

  ==> Integral Setup <==

  ==> DiskDFJK: Density-Fitted J/K Matrices <==

    J tasked:                  Yes
    K tasked:                  Yes
    wK tasked:                  No
    OpenMP threads:              4
    Integrals threads:           4
    Memory (MB):              2002
    Algorithm:                Core
    Integral Cache:           NONE
    Schwarz Cutoff:          1E-12
    Fitting Condition:       1E-12

   => Auxiliary Basis Set <=

  Basis Set: (6-31G* AUX)
    Blend: CC-PVDZ-JKFIT
    Number of shells: 297
    Number of basis function: 954
    Number of Cartesian functions: 954
    Spherical Harmonics?: false
    Max angular momentum: 3

  Minimum eigenvalue in the overlap matrix is 4.8492024159E-04.
  Using Symmetric Orthogonalization.

  SCF Guess: Orbitals guess was supplied from a previous computation.

  ==> Iterations <==

                           Total Energy        Delta E     RMS |[F,P]|

   @DF-RKS iter   0:  -381.45337243138465   -3.81453e+02   1.04217e-03 
   @DF-RKS iter   1:  -381.46399138439176   -1.06190e-02   1.32208e-04 
   @DF-RKS iter   2:  -381.46400940037955   -1.80160e-05   1.42523e-04 DIIS
   @DF-RKS iter   3:  -381.46406506608872   -5.56657e-05   5.65154e-05 DIIS
   @DF-RKS iter   4:  -381.46407463122722   -9.56514e-06   1.51117e-05 DIIS
   @DF-RKS iter   5:  -381.46407522002477   -5.88798e-07   6.39309e-06 DIIS
   @DF-RKS iter   6:  -381.46407534586535   -1.25841e-07   7.95096e-07 DIIS
   @DF-RKS iter   7:  -381.46407534750125   -1.63590e-09   3.20682e-07 DIIS
   @DF-RKS iter   8:  -381.46407534779303   -2.91777e-10   6.08487e-08 DIIS
   @DF-RKS iter   9:  -381.46407534780212   -9.09495e-12   2.65436e-08 DIIS
   @DF-RKS iter  10:  -381.46407534780366   -1.53477e-12   4.43482e-09 DIIS

  ==> Post-Iterations <==

    Orbital Energies [Eh]
    ---------------------

    Doubly Occupied:                                                      

       1A    -14.576940     2A    -14.576906     3A    -10.503422  
       4A    -10.367933     5A    -10.348938     6A    -10.348822  
       7A    -10.333505     8A    -10.333298     9A    -10.332565  
      10A     -1.190020    11A     -1.097822    12A     -1.008769  
      13A     -0.922337    14A     -0.894746    15A     -0.844596  
      16A     -0.787678    17A     -0.764316    18A     -0.754287  
      19A     -0.727962    20A     -0.690355    21A     -0.666901  
      22A     -0.623436    23A     -0.616236    24A     -0.577268  
      25A     -0.573237    26A     -0.566902    27A     -0.515139  
      28A     -0.497111    29A     -0.490996    30A     -0.479256  
      31A     -0.404243    32A     -0.398073  

    Virtual:                                                              

      33A     -0.198465    34A     -0.161336    35A     -0.147845  
      36A     -0.116459    37A     -0.070912    38A     -0.065542  
      39A     -0.035620    40A     -0.031334    41A      0.009279  
      42A      0.014786    43A      0.024552    44A      0.055960  
      45A      0.059692    46A      0.073804    47A      0.139285  
      48A      0.148137    49A      0.164985    50A      0.188523  
      51A      0.200280    52A      0.214519    53A      0.292119  
      54A      0.341547    55A      0.357518    56A      0.381847  
      57A      0.391218    58A      0.399337    59A      0.403322  
      60A      0.426989    61A      0.442207    62A      0.452711  
      63A      0.454288    64A      0.464576    65A      0.477615  
      66A      0.480849    67A      0.481533    68A      0.495498  
      69A      0.515609    70A      0.529419    71A      0.561409  
      72A      0.576037    73A      0.592934    74A      0.635919  
      75A      0.664034    76A      0.675962    77A      0.677524  
      78A      0.679593    79A      0.699360    80A      0.711899  
      81A      0.732203    82A      0.749876    83A      0.779995  
      84A      0.790066    85A      0.813223    86A      0.834129  
      87A      0.852887    88A      0.941615    89A      0.967871  
      90A      1.008387    91A      1.022070    92A      1.027401  
      93A      1.032348    94A      1.087711    95A      1.140668  
      96A      1.187355    97A      1.207792    98A      1.292747  
      99A      1.302207   100A      1.326186   101A      1.332498  
     102A      1.361608   103A      1.362378   104A      1.387809  
     105A      1.440224   106A      1.460380   107A      1.504931  
     108A      1.587185   109A      1.590660   110A      1.664038  
     111A      1.675560   112A      1.742107   113A      1.769254  
     114A      1.796052   115A      1.822811   116A      1.850231  
     117A      1.898602   118A      1.914169   119A      1.970723  
     120A      1.993532   121A      1.998261   122A      2.001888  
     123A      2.041421   124A      2.082599   125A      2.123778  
     126A      2.143501   127A      2.151437   128A      2.176918  
     129A      2.220992   130A      2.283178   131A      2.379857  
     132A      2.398841   133A      2.405098   134A      2.435762  
     135A      2.509004   136A      2.572109   137A      2.575970  
     138A      2.593757   139A      2.630016   140A      2.633336  
     141A      2.706772   142A      2.889060   143A      2.912408  
     144A      3.261034   145A      3.632630   146A      3.634625  
     147A      3.945608   148A      3.968243   149A      3.987553  
     150A      4.123729   151A      4.180139   152A      4.263108  
     153A      4.555026  

    Final Occupation by Irrep:
              A 
    DOCC [    32 ]

  Energy converged.

  @DF-RKS Final Energy:  -381.46407534780366

   => Energetics <=

    Nuclear Repulsion Energy =            416.0403518437270804
    One-Electron Energy =               -1327.4394153091654971
    Two-Electron Energy =                 574.3439679320289315
    DFT Exchange-Correlation Energy =     -44.3973279443942275
    Empirical Dispersion Energy =          -0.0116518700000000
    VV10 Nonlocal Energy =                  0.0000000000000000
    Total Energy =                       -381.4640753478037141



Properties will be evaluated at   0.000000,   0.000000,   0.000000 [a0]

Properties computed using the SCF density matrix

  Nuclear Dipole Moment: [e a0]
     X:    -0.1369      Y:    -0.0990      Z:    -0.1696

  Electronic Dipole Moment: [e a0]
     X:     0.1412      Y:     0.1027      Z:    -2.3965

  Dipole Moment: [e a0]
     X:     0.0043      Y:     0.0038      Z:    -2.5661     Total:     2.5661

  Dipole Moment: [D]
     X:     0.0109      Y:     0.0096      Z:    -6.5224     Total:     6.5224


*** tstop() called on green.prib.upf.edu at Sat Sep 29 20:51:14 2018
Module time:
	user time   =      74.72 seconds =       1.25 minutes
	system time =       0.38 seconds =       0.01 minutes
	total time  =         21 seconds =       0.35 minutes
Total time:
	user time   =     201.84 seconds =       3.36 minutes
	system time =       1.09 seconds =       0.02 minutes
	total time  =         55 seconds =       0.92 minutes

*** tstart() called on green.prib.upf.edu
*** at Sat Sep 29 20:51:14 2018


         ------------------------------------------------------------
                                   SCF GRAD                          
                          Rob Parrish, Justin Turney,                
                       Andy Simmonett, and Alex Sokolov              
         ------------------------------------------------------------

  ==> Geometry <==

    Molecular point group: c1
    Full point group: C1

    Geometry (in Angstrom), charge = 1, multiplicity = 1:

       Center              X                  Y                   Z               Mass       
    ------------   -----------------  -----------------  -----------------  -----------------
         C           -0.008723249837    -0.003014193218    -0.174685027047    12.000000000000
         C            0.021154108475     1.217609620104     0.516010791019    12.000000000000
         C            0.030668584961     1.211205453025     1.909586986784    12.000000000000
         C            0.002540885106     0.000221715442     2.606310139887    12.000000000000
         C           -0.028181648321    -1.212460257325     1.912671535805    12.000000000000
         C           -0.026908997246    -1.222188392222     0.519139647378    12.000000000000
         C           -0.004043416644    -0.005037189082    -1.653183536265    12.000000000000
         H            0.048724999876     2.159087333676    -0.028210230065     1.007825032070
         H            0.065690670987     2.152053886828     2.449817737312     1.007825032070
         H            0.006149833415     0.001507324078     3.691934172301     1.007825032070
         H           -0.057252624262    -2.152050661688     2.455199209531     1.007825032070
         H           -0.053419637789    -2.164848590750    -0.022955552486     1.007825032070
         N            1.129495544900    -0.236251102579    -2.300241850167    14.003074004780
         N           -1.130325696249     0.238909597404    -2.308088917272    14.003074004780
         H           -1.194313939180     0.241930206307    -3.324358448309     1.007825032070
         H           -1.968846932935     0.478379086766    -1.782432285090     1.007825032070
         H            1.965899429820    -0.474526318787    -1.770287474661     1.007825032070
         H            1.201692084922    -0.230528517977    -3.315228898656     1.007825032070

  Nuclear repulsion =  416.040351843727080

  ==> Basis Set <==

  Basis Set: 6-31G*
    Blend: 6-31G*
    Number of shells: 72
    Number of basis function: 153
    Number of Cartesian functions: 153
    Spherical Harmonics?: false
    Max angular momentum: 2

  ==> DFJKGrad: Density-Fitted SCF Gradients <==

    Gradient:                    1
    J tasked:                  Yes
    K tasked:                  Yes
    wK tasked:                  No
    OpenMP threads:              4
    Integrals threads:           4
    Memory (MB):              2002
    Schwarz Cutoff:          0E+00
    Fitting Condition:       1E-12

   => Auxiliary Basis Set <=

  Basis Set: (6-31G* AUX)
    Blend: CC-PVDZ-JKFIT
    Number of shells: 297
    Number of basis function: 954
    Number of Cartesian functions: 954
    Spherical Harmonics?: false
    Max angular momentum: 3

  ==> DFT Potential <==

   => Composite Functional: B3LYP-D3ZERO <= 

    B3LYP-d3zero Hyb-GGA Exchange-Correlation Functional

    P. J. Stephens, F. J. Devlin, C. F. Chabalowski, and M. J. Frisch, J. Phys. Chem. 98, 11623 (1994)

    Deriv               =              1
    GGA                 =           TRUE
    Meta                =          FALSE

    Exchange Hybrid     =           TRUE
    MP2 Hybrid          =          FALSE

   => Exchange Functionals <=

    0.0800   Slater exchange
    0.7200         Becke 88

   => Exact (HF) Exchange <=

    0.2000               HF 

   => Correlation Functionals <=

    0.1900   Vosko, Wilk & Nusair (VWN5_RPA)
    0.8100   Lee, Yang & Parr

   => Molecular Quadrature <=

    Radial Scheme       =       TREUTLER
    Pruning Scheme      =           FLAT
    Nuclear Scheme      =       TREUTLER

    BS radius alpha     =              1
    Pruning alpha       =              1
    Radial Points       =             75
    Spherical Points    =            302
    Total Points        =         397354
    Total Blocks        =           3009
    Max Points          =            256
    Max Functions       =            151


  -Total Gradient:
     Atom            X                  Y                   Z
    ------   -----------------  -----------------  -----------------
       1       -0.000840867622     0.000657993266    -0.004429601990
       2        0.001028860464    -0.001349208330     0.001711540520
       3       -0.000241381762     0.000120893266    -0.000618322285
       4       -0.000047794119     0.000001183341     0.000433079844
       5        0.000240629666    -0.000105268141    -0.000616281274
       6       -0.000420035137     0.001127463190     0.001663703431
       7       -0.000134919076    -0.001630812348     0.005157601084
       8        0.000109403210     0.000809231556    -0.000376437793
       9        0.000261822459     0.000065778679     0.000112305996
      10        0.000015790593    -0.000001688781     0.000051808650
      11       -0.000260176348    -0.000006625785     0.000047947646
      12       -0.000013027670    -0.000755790541    -0.000396067319
      13       -0.002004431723     0.003693086633    -0.001560611369
      14        0.002016940019    -0.002850610682    -0.000992166053
      15        0.000372091927    -0.001263027931    -0.003033286920
      16       -0.003507325015     0.002703272968     0.002623582268
      17        0.003785735575    -0.002552314818     0.002608666623
      18       -0.000360465414     0.001336609032    -0.002394998253


*** tstop() called on green.prib.upf.edu at Sat Sep 29 20:51:21 2018
Module time:
	user time   =      27.00 seconds =       0.45 minutes
	system time =       0.21 seconds =       0.00 minutes
	total time  =          7 seconds =       0.12 minutes
Total time:
	user time   =     228.90 seconds =       3.81 minutes
	system time =       1.30 seconds =       0.02 minutes
	total time  =         62 seconds =       1.03 minutes

			-----------------------------------------
			 OPTKING 2.0: for geometry optimizations 
			  - R.A. King,  Bethel University        
			-----------------------------------------
	At level 1: Red. Int., RFO, no backsteps, dynamic trust

	Previous internal coordinate definitions found.
	---Fragment 1 Geometry and Gradient---
	 C          -0.0164845532       -0.0056959997       -0.3301068606
	 C           0.0399754716        2.3009487188        0.9751190766
	 C           0.0579552265        2.2888465969        3.6085964319
	 C           0.0048015770        0.0004189815        4.9252123817
	 C          -0.0532555973       -2.2912178334        3.6144253848
	 C          -0.0508506353       -2.3096013441        0.9810317583
	 C          -0.0076409501       -0.0095189078       -3.1240641309
	 H           0.0920769056        4.0800837576       -0.0533096090
	 H           0.1241373777        4.0667924693        4.6294845990
	 H           0.0116215009        0.0028484297        6.9767444863
	 H          -0.1081917802       -4.0667863747        4.6396541077
	 H          -0.1009484855       -4.0909709557       -0.0433797074
	 N           2.1344372482       -0.4464498825       -4.3468271362
	 N          -2.1360060069        0.4514737096       -4.3616559440
	 H          -2.2569262617        0.4571818332       -6.2821270348
	 H          -3.7205815008        0.9040054617       -3.3683088692
	 H           3.7150115272       -0.8967247854       -3.3453585036
	 H           2.2708689366       -0.4356357648       -6.2648746863
	            -0.0008408676        0.0006579933       -0.0044296020
	             0.0010288605       -0.0013492083        0.0017115405
	            -0.0002413818        0.0001208933       -0.0006183223
	            -0.0000477941        0.0000011833        0.0004330798
	             0.0002406297       -0.0001052681       -0.0006162813
	            -0.0004200351        0.0011274632        0.0016637034
	            -0.0001349191       -0.0016308123        0.0051576011
	             0.0001094032        0.0008092316       -0.0003764378
	             0.0002618225        0.0000657787        0.0001123060
	             0.0000157906       -0.0000016888        0.0000518086
	            -0.0002601763       -0.0000066258        0.0000479476
	            -0.0000130277       -0.0007557905       -0.0003960673
	            -0.0020044317        0.0036930866       -0.0015606114
	             0.0020169400       -0.0028506107       -0.0009921661
	             0.0003720919       -0.0012630279       -0.0030332869
	            -0.0035073250        0.0027032730        0.0026235823
	             0.0037857356       -0.0025523148        0.0026086666
	            -0.0003604654        0.0013366090       -0.0023949983

	---Fragment 1 Intrafragment Coordinates---
	 - Coordinate -           - BOHR/RAD -       - ANG/DEG -
	 R(1,2)           =         2.650927	       1.402810
	 R(1,6)           =         2.651084	       1.402893
	 R(1,7)           =         2.793974	       1.478507
	 R(2,3)           =         2.633567	       1.393623
	 R(2,8)           =         2.055651	       1.087804
	 R(3,4)           =         2.640682	       1.397389
	 R(3,9)           =         2.051264	       1.085482
	 R(4,5)           =         2.640669	       1.397382
	 R(4,10)          =         2.051545	       1.085631
	 R(5,6)           =         2.633459	       1.393566
	 R(5,11)          =         2.051038	       1.085362
	 R(6,12)          =         2.055531	       1.087740
	 R(7,13)          =         2.504907	       1.325539
	 R(7,14)          =         2.504812	       1.325490
	 R(13,17)         =         1.924552	       1.018429
	 R(13,18)         =         1.922924	       1.017568
	 R(14,15)         =         1.924283	       1.018286
	 R(14,16)         =         1.924163	       1.018223
	 B(1,2,3)         =         2.081162	     119.241783
	 B(1,2,8)         =         2.102839	     120.483804
	 B(1,6,5)         =         2.081166	     119.242041
	 B(1,6,12)        =         2.102464	     120.462322
	 B(1,7,13)        =         2.084137	     119.412228
	 B(1,7,14)        =         2.084196	     119.415625
	 B(2,1,6)         =         2.109410	     120.860286
	 B(2,1,7)         =         2.086890	     119.569974
	 B(2,3,4)         =         2.097189	     120.160057
	 B(2,3,9)         =         2.087375	     119.597750
	 B(3,2,8)         =         2.099113	     120.270340
	 B(3,4,5)         =         2.100191	     120.332094
	 B(3,4,10)        =         2.091503	     119.834278
	 B(4,3,9)         =         2.098607	     120.241300
	 B(4,5,6)         =         2.097180	     120.159581
	 B(4,5,11)        =         2.098715	     120.247492
	 B(5,4,10)        =         2.091490	     119.833558
	 B(5,6,12)        =         2.099464	     120.290432
	 B(6,1,7)         =         2.086809	     119.565355
	 B(6,5,11)        =         2.087282	     119.592460
	 B(7,13,17)       =         2.081861	     119.281839
	 B(7,13,18)       =         2.149097	     123.134169
	 B(7,14,15)       =         2.149630	     123.164726
	 B(7,14,16)       =         2.080549	     119.206666
	 B(13,7,14)       =         2.114780	     121.167945
	 B(15,14,16)      =         2.051925	     117.566631
	 B(17,13,18)      =         2.051148	     117.522148
	 D(1,2,3,4)       =        -0.006663	      -0.381756
	 D(1,2,3,9)       =         3.128946	     179.275426
	 D(1,6,5,4)       =        -0.011616	      -0.665552
	 D(1,6,5,11)      =         3.125650	     179.086534
	 D(1,7,13,17)     =         0.075524	       4.327214
	 D(1,7,13,18)     =        -3.117264	    -178.606054
	 D(1,7,14,15)     =        -3.129931	    -179.331828
	 D(1,7,14,16)     =         0.062892	       3.603447
	 D(2,1,6,5)       =         0.010856	       0.622000
	 D(2,1,6,12)      =         3.138006	     179.794483
	*D(2,1,7,13)      =         1.745329	      99.999974
	 D(2,1,7,14)      =        -1.383404	     -79.263190
	 D(2,3,4,5)       =         0.005899	       0.338005
	 D(2,3,4,10)      =        -3.137375	    -179.758326
	 D(3,2,1,6)       =        -0.001725	      -0.098858
	 D(3,2,1,7)       =        -3.129965	    -179.333794
	 D(3,4,5,6)       =         0.003375	       0.193397
	 D(3,4,5,11)      =        -3.133862	    -179.557053
	 D(4,3,2,8)       =        -3.135506	    -179.651246
	 D(4,5,6,12)      =        -3.138791	    -179.839489
	 D(5,4,3,9)       =        -3.129671	    -179.316954
	 D(5,6,1,7)       =         3.139096	     179.856971
	 D(6,1,2,8)       =         3.127090	     179.169034
	 D(6,1,7,13)      =        -1.383086	     -79.244966
	 D(6,1,7,14)      =         1.771367	     101.491870
	 D(6,5,4,10)      =        -3.136536	    -179.710272
	 D(7,1,2,8)       =        -0.001150	      -0.065902
	 D(7,1,6,12)      =        -0.016939	      -0.970546
	 D(8,2,3,9)       =         0.000104	       0.005937
	 D(9,3,4,10)      =         0.010240	       0.586714
	 D(10,4,5,11)     =         0.009412	       0.539278
	 D(11,5,6,12)     =        -0.001525	      -0.087402
	 D(13,7,14,15)    =         0.024754	       1.418318
	 D(13,7,14,16)    =        -3.065608	    -175.646407
	 D(14,7,13,17)    =        -3.079161	    -176.422907
	 D(14,7,13,18)    =         0.011237	       0.643824

	Current energy   :      -381.4640753478

	Energy change for the previous step:
		Projected    :        -0.0035185644
		Actual       :        -0.0022341216

	Performing BFGS update.
	Previous computed or guess Hessian on step 1.
	Steps to be used in Hessian update: 1
	Taking RFO optimization step.
	Going to follow RFO solution 1.
	Using RFO vector 1.
	Norm of target step-size    0.23332
	Projected energy change by RFO approximation:        -0.0005605457

	Back-transformation to cartesian coordinates...
	Could not converge backtransformation.
	Using first guess instead.

	Back-transformation to cartesian coordinates to adjust frozen coordinates...
	Successfully converged to displaced geometry.

	--- Internal Coordinate Step in ANG or DEG, aJ/ANG or AJ/DEG ---
	 ---------------------------------------------------------------------------
	   Coordinate                Previous        Force       Change         New 
	   ----------                --------       ------       ------       ------
	    1 R(1,2)          =      1.402810    -0.003147    -0.001117     1.401693
	    2 R(1,6)          =      1.402893    -0.003229    -0.001034     1.401859
	    3 R(1,7)          =      1.478507     0.019859     0.006202     1.484709
	    4 R(2,3)          =      1.393623     0.002241     0.000743     1.394366
	    5 R(2,8)          =      1.087804    -0.007343    -0.001250     1.086553
	    6 R(3,4)          =      1.397389     0.000189    -0.000014     1.397375
	    7 R(3,9)          =      1.085482    -0.001001    -0.000097     1.085386
	    8 R(4,5)          =      1.397382     0.000135    -0.000063     1.397319
	    9 R(4,10)         =      1.085631    -0.000431    -0.000062     1.085568
	   10 R(5,6)          =      1.393566     0.002618     0.000842     1.394408
	   11 R(5,11)         =      1.085362    -0.000304     0.000172     1.085534
	   12 R(6,12)         =      1.087740    -0.007023    -0.001216     1.086524
	   13 R(7,13)         =      1.325539    -0.011860    -0.001975     1.323564
	   14 R(7,14)         =      1.325490    -0.011394    -0.001647     1.323843
	   15 R(13,17)        =      1.018429    -0.041719    -0.003528     1.014901
	   16 R(13,18)        =      1.017568    -0.019530    -0.000887     1.016680
	   17 R(14,15)        =      1.018286    -0.024714    -0.000926     1.017361
	   18 R(14,16)        =      1.018223    -0.040195    -0.002988     1.015235
	   19 B(1,2,3)        =    119.241783    -0.000047    -0.246758   118.995026
	   20 B(1,2,8)        =    120.483804     0.000017     0.055148   120.538952
	   21 B(1,6,5)        =    119.242041    -0.000044    -0.232755   119.009286
	   22 B(1,6,12)       =    120.462322     0.000019     0.063731   120.526053
	   23 B(1,7,13)       =    119.412228    -0.000085    -0.414668   118.997560
	   24 B(1,7,14)       =    119.415625    -0.000083    -0.407669   119.007956
	   25 B(2,1,6)        =    120.860286     0.000083     0.404868   121.265154
	   26 B(2,1,7)        =    119.569974    -0.000054    -0.275243   119.294731
	   27 B(2,3,4)        =    120.160057    -0.000008    -0.015222   120.144835
	   28 B(2,3,9)        =    119.597750    -0.000001    -0.030970   119.566780
	   29 B(3,2,8)        =    120.270340     0.000030     0.194410   120.464750
	   30 B(3,4,5)        =    120.332094     0.000027     0.118357   120.450452
	   31 B(3,4,10)       =    119.834278    -0.000014    -0.057705   119.776573
	   32 B(4,3,9)        =    120.241300     0.000009     0.046729   120.288029
	   33 B(4,5,6)        =    120.159581    -0.000012    -0.035377   120.124204
	   34 B(4,5,11)       =    120.247492     0.000009     0.040131   120.287622
	   35 B(5,4,10)       =    119.833558    -0.000013    -0.061024   119.772535
	   36 B(5,6,12)       =    120.290432     0.000025     0.169396   120.459828
	   37 B(6,1,7)        =    119.565355    -0.000029    -0.179456   119.385899
	   38 B(6,5,11)       =    119.592460     0.000003    -0.004359   119.588101
	   39 B(7,13,17)      =    119.281839    -0.000031    -0.381399   118.900439
	   40 B(7,13,18)      =    123.134169     0.000074     0.459330   123.593499
	   41 B(7,14,15)      =    123.164726     0.000070     0.496170   123.660895
	   42 B(7,14,16)      =    119.206666    -0.000017    -0.428599   118.778068
	   43 B(13,7,14)      =    121.167945     0.000167     0.800497   121.968442
	   44 B(15,14,16)     =    117.566631    -0.000051    -0.015451   117.551180
	   45 B(17,13,18)     =    117.522148    -0.000042    -0.043881   117.478268
	   46 D(1,2,3,4)      =     -0.381756     0.000003     0.617087     0.235331
	   47 D(1,2,3,9)      =    179.275426     0.000004     0.743625   180.019051
	   48 D(1,6,5,4)      =     -0.665552     0.000000    -0.049295    -0.714847
	   49 D(1,6,5,11)     =    179.086534     0.000002     0.296572   179.383106
	   50 D(1,7,13,17)    =      4.327214    -0.000019    -4.072006     0.255208
	   51 D(1,7,13,18)    =   -178.606054    -0.000015    -3.107148  -181.713203
	   52 D(1,7,14,15)    =   -179.331828    -0.000017    -4.018456  -183.350285
	   53 D(1,7,14,16)    =      3.603447    -0.000026    -5.782113    -2.178666
	   54 D(2,1,6,5)      =      0.622000     0.000002     0.659963     1.281963
	   55 D(2,1,6,12)     =    179.794483     0.000003     0.691405   180.485888
	   56 *D(2,1,7,13)    =     99.999974    -0.000000     0.000000    99.999974
	   57 D(2,1,7,14)     =    -79.263190     0.000003     1.082353   -78.180837
	   58 D(2,3,4,5)      =      0.338005    -0.000000    -0.025105     0.312900
	   59 D(2,3,4,10)     =   -179.758326    -0.000001    -0.170932  -179.929259
	   60 D(3,2,1,6)      =     -0.098858    -0.000003    -0.943389    -1.042248
	   61 D(3,2,1,7)      =   -179.333794     0.000003     0.986190  -178.347604
	   62 D(3,4,5,6)      =      0.193397    -0.000001    -0.262265    -0.068868
	   63 D(3,4,5,11)     =   -179.557053    -0.000003    -0.610460  -180.167513
	   64 D(4,3,2,8)      =   -179.651246     0.000000     0.294663  -179.356583
	   65 D(4,5,6,12)     =   -179.839489    -0.000001    -0.079825  -179.919314
	   66 D(5,4,3,9)      =   -179.316954    -0.000001    -0.152292  -179.469247
	   67 D(5,6,1,7)      =    179.856971    -0.000005    -1.272065   178.584906
	   68 D(6,1,2,8)      =    179.169034    -0.000001    -0.619679   178.549355
	   69 D(6,1,7,13)     =    -79.244966     0.000006     1.888335   -77.356632
	   70 D(6,1,7,14)     =    101.491870     0.000009     2.970687   104.462557
	   71 D(6,5,4,10)     =   -179.710272    -0.000001    -0.116447  -179.826719
	   72 D(7,1,2,8)      =     -0.065902     0.000005     1.309901     1.243999
	   73 D(7,1,6,12)     =     -0.970546    -0.000003    -1.240622    -2.211168
	   74 D(8,2,3,9)      =      0.005937     0.000001     0.421200     0.427137
	   75 D(9,3,4,10)     =      0.586714    -0.000002    -0.298120     0.288594
	   76 D(10,4,5,11)    =      0.539278    -0.000002    -0.464642     0.074636
	   77 D(11,5,6,12)    =     -0.087402     0.000001     0.266042     0.178640
	   78 D(13,7,14,15)   =      1.418318    -0.000014    -2.892994    -1.474676
	   79 D(13,7,14,16)   =   -175.646407    -0.000022    -4.656651  -180.303058
	   80 D(14,7,13,17)   =   -176.422907    -0.000023    -5.197304  -181.620211
	   81 D(14,7,13,18)   =      0.643824    -0.000018    -4.232447    -3.588622
	 ---------------------------------------------------------------------------
	Successfully symmetrized geometry.

  ==> Convergence Check <==

  Measures of convergence in internal coordinates in au.
  Criteria marked as inactive (o), active & met (*), and active & unmet ( ).
  ---------------------------------------------------------------------------------------------
   Step     Total Energy     Delta E     MAX Force     RMS Force      MAX Disp      RMS Disp   
  ---------------------------------------------------------------------------------------------
    Convergence Criteria    1.00e-06 *    3.00e-04 *             o    1.20e-03 *             o
  ---------------------------------------------------------------------------------------------
      2    -381.46407535   -2.23e-03      5.06e-03      1.11e-03 o    1.01e-01      2.59e-02 o  ~
  ---------------------------------------------------------------------------------------------

	Writing optimization data to binary file.
	Structure for next step:
	Cartesian Geometry (in Angstrom)
	    C    -0.0305500521  -0.0073621078  -0.1741217381
	    C     0.0095815790   1.2158311812   0.5092011278
	    C     0.0276209353   1.2108919390   1.9034416974
	    C     0.0107699659   0.0002984422   2.6011786818
	    C    -0.0176499332  -1.2144237231   1.9111476211
	    C    -0.0308825439  -1.2270967266   0.5168599385
	    C    -0.0126348093  -0.0110820129  -1.6587182320
	    H     0.0330632656   2.1538229264  -0.0387207805
	    H     0.0583694551   2.1527372866   2.4419987386
	    H     0.0238007350   0.0034533639   3.6866642873
	    H    -0.0279494770  -2.1533642598   2.4558205335
	    H    -0.0542941679  -2.1684527240  -0.0252051675
	    N     1.1262252292  -0.2586674452  -2.2860307693
	    N    -1.1277507701   0.2691051339  -2.3148982890
	    H    -1.1842057376   0.3348232711  -3.3285632127
	    H    -1.9752606290   0.4466380442  -1.7848876608
	    H     1.9588999599  -0.4438585801  -1.7361380322
	    H     1.2128469950  -0.3032950090  -3.2980307442
			--------------------------
			 OPTKING Finished Execution 
			--------------------------

    Structure for next step:
    Molecular point group: c1
    Full point group: C1

    Geometry (in Angstrom), charge = 1, multiplicity = 1:

    C           -0.030550052060    -0.007362107756    -0.174121738101
    C            0.009581579045     1.215831181239     0.509201127781
    C            0.027620935280     1.210891938959     1.903441697433
    C            0.010769965949     0.000298442180     2.601178681828
    C           -0.017649933235    -1.214423723144     1.911147621150
    C           -0.030882543886    -1.227096726608     0.516859938472
    C           -0.012634809283    -0.011082012879    -1.658718232014
    H            0.033063265556     2.153822926357    -0.038720780496
    H            0.058369455135     2.152737286576     2.441998738634
    H            0.023800735022     0.003453363941     3.686664287324
    H           -0.027949476993    -2.153364259760     2.455820533453
    H           -0.054294167902    -2.168452723982    -0.025205167472
    N            1.126225229170    -0.258667445204    -2.286030769276
    N           -1.127750770137     0.269105133938    -2.314898288968
    H           -1.184205737588     0.334823271074    -3.328563212670
    H           -1.975260628992     0.446638044191    -1.784887660761
    H            1.958899959911    -0.443858580122    -1.736138032152
    H            1.212846995009    -0.303295008998    -3.298030744164

gradient() will perform analytic gradient computation.

*** tstart() called on green.prib.upf.edu
*** at Sat Sep 29 20:51:21 2018

   => Loading Basis Set <=

    Name: 6-31G*
    Role: ORBITAL
    Keyword: BASIS
    atoms 1-7         entry C          line   111 file /shared/joao/test_parameterize/miniconda3/share/psi4/basis/6-31gs.gbs 
    atoms 8-12, 15-18 entry H          line    44 file /shared/joao/test_parameterize/miniconda3/share/psi4/basis/6-31gs.gbs 
    atoms 13-14       entry N          line   128 file /shared/joao/test_parameterize/miniconda3/share/psi4/basis/6-31gs.gbs 


         ---------------------------------------------------------
                                   SCF
            by Justin Turney, Rob Parrish, Andy Simmonett
                             and Daniel Smith
                              RKS Reference
                        4 Threads,   2861 MiB Core
         ---------------------------------------------------------

  ==> Geometry <==

    Molecular point group: c1
    Full point group: C1

    Geometry (in Angstrom), charge = 1, multiplicity = 1:

       Center              X                  Y                   Z               Mass       
[...]
	             0.0000042314       -0.0000130850       -0.0000133290
	             0.0004489320       -0.0047346193       -0.0000014732
	            -0.0000059488        0.0000006370        0.0000024065
	            -0.0000056682       -0.0000011658       -0.0000007449
	            -0.0000000567        0.0000010244       -0.0000001774
	             0.0000083030        0.0000013488        0.0000031775
	             0.0000096449        0.0000013868        0.0000027047
	             0.0007063436        0.0032692691        0.0000294900
	            -0.0000002000       -0.0000314919        0.0000211807
	            -0.0000029480        0.0000038930       -0.0000052932
	            -0.0000087831       -0.0000055747       -0.0000112617
	             0.0000157356       -0.0000045903       -0.0000053964
	             0.0000070437        0.0000022881       -0.0000062315

	---Fragment 1 Intrafragment Coordinates---
	 - Coordinate -           - BOHR/RAD -       - ANG/DEG -
	 R(1,2)           =         2.650357	       1.402509
	 R(1,6)           =         2.650163	       1.402406
	 R(1,7)           =         2.802526	       1.483033
	 R(2,3)           =         2.634433	       1.394082
	 R(2,8)           =         2.052884	       1.086340
	 R(3,4)           =         2.640682	       1.397389
	 R(3,9)           =         2.050931	       1.085306
	 R(4,5)           =         2.640785	       1.397443
	 R(4,10)          =         2.051508	       1.085611
	 R(5,6)           =         2.634385	       1.394057
	 R(5,11)          =         2.050907	       1.085293
	 R(6,12)          =         2.052950	       1.086375
	 R(7,13)          =         2.501829	       1.323911
	 R(7,14)          =         2.501728	       1.323857
	 R(13,17)         =         1.913554	       1.012609
	 R(13,18)         =         1.917882	       1.014899
	 R(14,15)         =         1.917825	       1.014869
	 R(14,16)         =         1.913537	       1.012600
	 B(1,2,3)         =         2.077675	     119.042025
	 B(1,2,8)         =         2.103365	     120.513948
	 B(1,6,5)         =         2.078196	     119.071888
	 B(1,6,12)        =         2.103161	     120.502243
	 B(1,7,13)        =         2.077604	     119.037935
	 B(1,7,14)        =         2.080329	     119.194071
	 B(2,1,6)         =         2.114705	     121.163673
	 B(2,1,7)         =         2.079347	     119.137813
	 B(2,3,4)         =         2.096645	     120.128889
	 B(2,3,9)         =         2.087675	     119.614938
	 B(3,2,8)         =         2.102140	     120.443767
	 B(3,4,5)         =         2.102696	     120.475624
	 B(3,4,10)        =         2.090181	     119.758547
	 B(4,3,9)         =         2.098860	     120.255803
	 B(4,5,6)         =         2.096051	     120.094892
	 B(4,5,11)        =         2.098836	     120.254421
	 B(5,4,10)        =         2.090300	     119.765368
	 B(5,6,12)        =         2.101693	     120.418161
	 B(6,1,7)         =         2.086898	     119.570425
	 B(6,5,11)        =         2.088291	     119.650244
	 B(7,13,17)       =         2.078466	     119.087302
	 B(7,13,18)       =         2.156482	     123.557310
	 B(7,14,15)       =         2.157069	     123.590944
	 B(7,14,16)       =         2.078936	     119.114258
	 B(13,7,14)       =         2.124379	     121.717946
	 B(15,14,16)      =         2.047109	     117.290693
	 B(17,13,18)      =         2.047745	     117.327139
	 D(1,2,3,4)       =         0.002234	       0.128022
	 D(1,2,3,9)       =         3.139975	     179.907298
	 D(1,6,5,4)       =        -0.022353	      -1.280760
	 D(1,6,5,11)      =         3.123452	     178.960621
	 D(1,7,13,17)     =         0.002068	       0.118502
	 D(1,7,13,18)     =         3.108977	     178.131278
	 D(1,7,14,15)     =         3.081006	     176.528614
	 D(1,7,14,16)     =        -0.073814	      -4.229250
	 D(2,1,6,5)       =         0.032828	       1.880919
	 D(2,1,6,12)      =        -3.126317	    -179.124761
	*D(2,1,7,13)      =         1.745329	      99.999974
	 D(2,1,7,14)      =        -1.352140	     -77.471931
	 D(2,3,4,5)       =         0.007852	       0.449879
	 D(2,3,4,10)      =        -3.138065	    -179.797885
	 D(3,2,1,6)       =        -0.022766	      -1.304418
	 D(3,2,1,7)       =        -3.092234	    -177.171969
	 D(3,4,5,6)       =         0.002379	       0.136304
	 D(3,4,5,11)      =         3.139733	     179.893452
	 D(4,3,2,8)       =        -3.136135	    -179.687310
	 D(4,5,6,12)      =         3.136776	     179.724052
	 D(5,4,3,9)       =        -3.129864	    -179.327970
	 D(5,6,1,7)       =         3.101989	     177.730853
	 D(6,1,2,8)       =         3.115601	     178.510781
	 D(6,1,7,13)      =        -1.325307	     -75.934481
	 D(6,1,7,14)      =         1.860410	     106.593614
	 D(6,5,4,10)      =        -3.134889	    -179.615916
	 D(7,1,2,8)       =         0.046133	       2.643230
	 D(7,1,6,12)      =        -0.057157	      -3.274826
	 D(8,2,3,9)       =         0.001605	       0.091965
	 D(9,3,4,10)      =         0.007405	       0.424266
	 D(10,4,5,11)     =         0.002465	       0.141232
	 D(11,5,6,12)     =        -0.000603	      -0.034567
	 D(13,7,14,15)    =        -0.015236	      -0.872950
	 D(13,7,14,16)    =         3.113130	     178.369186
	 D(14,7,13,17)    =         3.098378	     177.524010
	 D(14,7,13,18)    =        -0.077898	      -4.463215

	Current energy   :      -381.4646676896

	Energy change for the previous step:
		Projected    :        -0.0000026731
		Actual       :        -0.0000004884
	Energy ratio indicates iffy step: Trust radius decreased to 2.500e-01.


	Performing BFGS update.
	Previous computed or guess Hessian on step 1.
	Steps to be used in Hessian update: 5 4
	Taking RFO optimization step.
	Going to follow RFO solution 1.
	Rejecting RFO root 1 because normalization gives large value.
	Using RFO vector 2.
	Norm of target step-size    0.00182
	Projected energy change by RFO approximation:        -0.0000000545

	Back-transformation to cartesian coordinates...
	Successfully converged to displaced geometry.

	Back-transformation to cartesian coordinates to adjust frozen coordinates...
	Successfully converged to displaced geometry.

	--- Internal Coordinate Step in ANG or DEG, aJ/ANG or AJ/DEG ---
	 ---------------------------------------------------------------------------
	   Coordinate                Previous        Force       Change         New 
	   ----------                --------       ------       ------       ------
	    1 R(1,2)          =      1.402509     0.000228     0.000038     1.402546
	    2 R(1,6)          =      1.402406    -0.000057    -0.000007     1.402399
	    3 R(1,7)          =      1.483033     0.000013    -0.000013     1.483020
	    4 R(2,3)          =      1.394082    -0.000027    -0.000006     1.394076
	    5 R(2,8)          =      1.086340     0.000008     0.000001     1.086341
	    6 R(3,4)          =      1.397389     0.000007     0.000003     1.397391
	    7 R(3,9)          =      1.085306     0.000010     0.000002     1.085308
	    8 R(4,5)          =      1.397443    -0.000013    -0.000001     1.397442
	    9 R(4,10)         =      1.085611    -0.000004    -0.000001     1.085610
	   10 R(5,6)          =      1.394057     0.000024     0.000000     1.394057
	   11 R(5,11)         =      1.085293    -0.000005    -0.000000     1.085293
	   12 R(6,12)         =      1.086375     0.000026     0.000005     1.086380
	   13 R(7,13)         =      1.323911     0.000066     0.000013     1.323924
	   14 R(7,14)         =      1.323857    -0.000002     0.000000     1.323858
	   15 R(13,17)        =      1.012609    -0.000088    -0.000006     1.012603
	   16 R(13,18)        =      1.014899    -0.000051    -0.000001     1.014899
	   17 R(14,15)        =      1.014869    -0.000041     0.000003     1.014873
	   18 R(14,16)        =      1.012600    -0.000013     0.000006     1.012606
	   19 B(1,2,3)        =    119.042025     0.000001     0.002241   119.044266
	   20 B(1,2,8)        =    120.513948    -0.000001    -0.002532   120.511416
	   21 B(1,6,5)        =    119.071888     0.000000     0.001329   119.073217
	   22 B(1,6,12)       =    120.502243    -0.000000    -0.001527   120.500716
	   23 B(1,7,13)       =    119.037935    -0.000000    -0.000903   119.037032
	   24 B(1,7,14)       =    119.194071     0.000000     0.001091   119.195162
	   25 B(2,1,6)        =    121.163673    -0.000001    -0.003278   121.160395
	   26 B(2,1,7)        =    119.137813    -0.000001    -0.003470   119.134343
	   27 B(2,3,4)        =    120.128889    -0.000000    -0.000091   120.128798
	   28 B(2,3,9)        =    119.614938    -0.000000    -0.000404   119.614534
	   29 B(3,2,8)        =    120.443767    -0.000000     0.000302   120.444069
	   30 B(3,4,5)        =    120.475624    -0.000000    -0.001437   120.474187
	   31 B(3,4,10)       =    119.758547     0.000000     0.000961   119.759507
	   32 B(4,3,9)        =    120.255803     0.000000     0.000458   120.256261
	   33 B(4,5,6)        =    120.094892     0.000001     0.001777   120.096669
	   34 B(4,5,11)       =    120.254421    -0.000000     0.000461   120.254882
	   35 B(5,4,10)       =    119.765368     0.000000     0.000514   119.765881
	   36 B(5,6,12)       =    120.418161    -0.000000    -0.000037   120.418125
	   37 B(6,1,7)        =    119.570425     0.000002     0.008773   119.579198
	   38 B(6,5,11)       =    119.650244    -0.000001    -0.002167   119.648077
	   39 B(7,13,17)      =    119.087302    -0.000001    -0.005038   119.082264
	   40 B(7,13,18)      =    123.557310     0.000000     0.000455   123.557765
	   41 B(7,14,15)      =    123.590944     0.000000     0.000945   123.591890
	   42 B(7,14,16)      =    119.114258    -0.000001    -0.004741   119.109517
	   43 B(13,7,14)      =    121.717946    -0.000000    -0.001496   121.716450
	   44 B(15,14,16)     =    117.290693     0.000001     0.003632   117.294325
	   45 B(17,13,18)     =    117.327139     0.000001     0.004162   117.331301
	   46 D(1,2,3,4)      =      0.128022     0.000000     0.007815     0.135837
	   47 D(1,2,3,9)      =    179.907298    -0.000000    -0.002927   179.904371
	   48 D(1,6,5,4)      =     -1.280760     0.000000     0.015335    -1.265425
	   49 D(1,6,5,11)     =    178.960621    -0.000000    -0.004940   178.955681
	   50 D(1,7,13,17)    =      0.118502     0.000000     0.020247     0.138750
	   51 D(1,7,13,18)    =    178.131278     0.000000     0.005573   178.136851
	   52 D(1,7,14,15)    =    176.528614    -0.000000    -0.002104   176.526510
	   53 D(1,7,14,16)    =     -4.229250    -0.000000    -0.017018    -4.246269
	   54 D(2,1,6,5)      =      1.880919    -0.000000    -0.021407     1.859512
	   55 D(2,1,6,12)     =   -179.124761    -0.000000    -0.036627  -179.161387
	   56 *D(2,1,7,13)    =     99.999974     0.000000     0.000000    99.999974
	   57 D(2,1,7,14)     =    -77.471931     0.000000     0.032837   -77.439094
	   58 D(2,3,4,5)      =      0.449879    -0.000000    -0.013680     0.436199
	   59 D(2,3,4,10)     =   -179.797885    -0.000000    -0.003246  -179.801131
	   60 D(3,2,1,6)      =     -1.304418    -0.000000     0.009804    -1.294615
	   61 D(3,2,1,7)      =   -177.171969    -0.000000    -0.023292  -177.195262
	   62 D(3,4,5,6)      =      0.136304    -0.000000     0.001884     0.138188
	   63 D(3,4,5,11)     =    179.893452     0.000000     0.022277   179.915729
	   64 D(4,3,2,8)      =   -179.687310     0.000000     0.003940  -179.683371
	   65 D(4,5,6,12)     =    179.724052     0.000000     0.030557   179.754610
	   66 D(5,4,3,9)      =   -179.327970     0.000000    -0.002867  -179.330838
	   67 D(5,6,1,7)      =    177.730853     0.000000     0.011333   177.742187
	   68 D(6,1,2,8)      =    178.510781     0.000000     0.013687   178.524468
	   69 D(6,1,7,13)     =    -75.934481    -0.000000    -0.032068   -75.966549
	   70 D(6,1,7,14)     =    106.593614     0.000000     0.000770   106.594384
	   71 D(6,5,4,10)     =   -179.615916    -0.000000    -0.008551  -179.624468
	   72 D(7,1,2,8)      =      2.643230    -0.000000    -0.019409     2.623821
	   73 D(7,1,6,12)     =     -3.274826     0.000000    -0.003887    -3.278713
	   74 D(8,2,3,9)      =      0.091965    -0.000000    -0.006802     0.085163
	   75 D(9,3,4,10)     =      0.424266     0.000000     0.007566     0.431833
	   76 D(10,4,5,11)    =      0.141232     0.000000     0.011841     0.153073
	   77 D(11,5,6,12)    =     -0.034567    -0.000000     0.010283    -0.024285
	   78 D(13,7,14,15)   =     -0.872950     0.000000     0.031629    -0.841321
	   79 D(13,7,14,16)   =    178.369186     0.000000     0.016714   178.385900
	   80 D(14,7,13,17)   =    177.524010    -0.000000    -0.013383   177.510627
	   81 D(14,7,13,18)   =     -4.463215    -0.000000    -0.028057    -4.491272
	 ---------------------------------------------------------------------------
	Successfully symmetrized geometry.

  ==> Convergence Check <==

  Measures of convergence in internal coordinates in au.
  Criteria marked as inactive (o), active & met (*), and active & unmet ( ).
  ---------------------------------------------------------------------------------------------
   Step     Total Energy     Delta E     MAX Force     RMS Force      MAX Disp      RMS Disp   
  ---------------------------------------------------------------------------------------------
    Convergence Criteria    1.00e-06 *    3.00e-04 *             o    1.20e-03 *             o
  ---------------------------------------------------------------------------------------------
      6    -381.46466769   -4.88e-07 *    2.77e-05 *    7.74e-06 o    6.39e-04 *    2.02e-04 o  ~
  ---------------------------------------------------------------------------------------------


  **** Optimization is complete! (in 6 steps) ****

  ==> Optimization Summary <==

  Measures of convergence in internal coordinates in au.
  --------------------------------------------------------------------------------------------------------------- ~
   Step         Total Energy             Delta E       MAX Force       RMS Force        MAX Disp        RMS Disp  ~
  --------------------------------------------------------------------------------------------------------------- ~
      1    -381.461841226239   -381.461841226239      0.00801329      0.00191991      0.12541284      0.03872334  ~
      2    -381.464075347804     -0.002234121565      0.00506374      0.00111145      0.10091691      0.02585118  ~
      3    -381.464611346919     -0.000535999115      0.00231098      0.00049949      0.02234697      0.00602441  ~
      4    -381.464661601505     -0.000050254586      0.00052531      0.00009793      0.01249095      0.00283612  ~
      5    -381.464667201223     -0.000005599719      0.00016587      0.00004455      0.00313523      0.00083720  ~
      6    -381.464667689592     -0.000000488369      0.00002771      0.00000774      0.00063926      0.00020223  ~
  --------------------------------------------------------------------------------------------------------------- ~

	Writing optimization data to binary file.
	Final energy is   -381.4646676895925
	Final (previous) structure:
	Cartesian Geometry (in Angstrom)
	    C    -0.0482300699  -0.0112674074  -0.1739599109
	    C    -0.0051188025   1.2131306734   0.5086974031
	    C     0.0278480638   1.2101303507   1.9023862596
	    C     0.0205102493   0.0002597739   2.6015681034
	    C    -0.0103582898  -1.2157177273   1.9136050010
	    C    -0.0312603794  -1.2299477011   0.5197777582
	    C    -0.0194617995  -0.0127280364  -1.6567128175
	    H     0.0055126742   2.1505781388  -0.0401312843
	    H     0.0628413493   2.1522392609   2.4400619848
	    H     0.0429977158   0.0050017411   3.6869363124
	    H    -0.0142199205  -2.1532976238   2.4602223733
	    H    -0.0507739834  -2.1722825557  -0.0204387301
	    N     1.1222434452  -0.2665748195  -2.2770438923
	    N    -1.1221691996   0.2889514810  -2.3242634468
	    H    -1.1649888612   0.3579131953  -3.3358812694
	    H    -1.9798244867   0.4515834441  -1.8110993654
	    H     1.9503919028  -0.4559487147  -1.7259676057
	    H     1.2140603921  -0.3120244733  -3.2867588735
	Saving final (previous) structure.
	Removing binary optimization data file.
			--------------------------
			 OPTKING Finished Execution 
			--------------------------

    Final optimized geometry and variables:
    Molecular point group: c1
    Full point group: C1

    Geometry (in Angstrom), charge = 1, multiplicity = 1:

    C           -0.048230069872    -0.011267407371    -0.173959910890
    C           -0.005118802541     1.213130673400     0.508697403109
    C            0.027848063842     1.210130350719     1.902386259630
    C            0.020510249266     0.000259773889     2.601568103418
    C           -0.010358289834    -1.215717727282     1.913605000957
    C           -0.031260379364    -1.229947701090     0.519777758242
    C           -0.019461799481    -0.012728036436    -1.656712817528
    H            0.005512674179     2.150578138769    -0.040131284272
    H            0.062841349259     2.152239260908     2.440061984820
    H            0.042997715802     0.005001741116     3.686936312434
    H           -0.014219920547    -2.153297623809     2.460222373290
    H           -0.050773983396    -2.172282555738    -0.020438730066
    N            1.122243445226    -0.266574819527    -2.277043892277
    N           -1.122169199597     0.288951481014    -2.324263446782
    H           -1.164988861210     0.357913195302    -3.335881269437
    H           -1.979824486679     0.451583444121    -1.811099365443
    H            1.950391902825    -0.455948714655    -1.725967605668
    H            1.214060392122    -0.312024473329    -3.286758873539

	Removing binary optimization data file.
	Cleaning optimization helper files.


Properties will be evaluated at   0.000000,   0.000000,   0.000000 [a0]
OEProp: No title given, name of density matrix used for the following properties is 'SCF density'
  Nuclear Dipole Moment: [e a0]
     X:    -0.6234      Y:    -0.1822      Z:    -0.2835

  Electronic Dipole Moment: [e a0]
     X:     0.6383      Y:     0.1810      Z:    -2.2677

  Dipole Moment: [e a0]
     X:     0.0148      Y:    -0.0013      Z:    -2.5512     Total:     2.5512

  Dipole Moment: [D]
     X:     0.0377      Y:    -0.0032      Z:    -6.4845     Total:     6.4846

  Quadrupole Moment: [D A]
    XX:   -42.5815     YY:   -44.4407     ZZ:   -13.5529
    XY:    -2.8561     XZ:     0.2863     YZ:    -0.1749

  Traceless Quadrupole Moment: [D A]
    XX:    -9.0565     YY:   -10.9157     ZZ:    19.9721
    XY:    -2.8561     XZ:     0.2863     YZ:    -0.1749

  Mulliken Charges: (a.u.)
   Center  Symbol    Alpha    Beta     Spin     Total
       1     C     2.99246  2.99246  0.00000  0.01509
       2     C     3.06989  3.06989  0.00000 -0.13979
       3     C     3.06267  3.06267  0.00000 -0.12534
       4     C     3.05358  3.05358  0.00000 -0.10717
       5     C     3.06290  3.06290  0.00000 -0.12580
       6     C     3.07237  3.07237  0.00000 -0.14474
       7     C     2.74671  2.74671  0.00000  0.50657
       8     H     0.41353  0.41353  0.00000  0.17295
       9     H     0.40729  0.40729  0.00000  0.18543
      10     H     0.40667  0.40667  0.00000  0.18665
      11     H     0.40731  0.40731  0.00000  0.18538
      12     H     0.41368  0.41368  0.00000  0.17264
      13     N     3.84451  3.84451  0.00000 -0.68902
      14     N     3.84538  3.84538  0.00000 -0.69077
      15     H     0.30506  0.30506  0.00000  0.38988
      16     H     0.29542  0.29542  0.00000  0.40917
      17     H     0.29553  0.29553  0.00000  0.40893
      18     H     0.30503  0.30503  0.00000  0.38993

   Total alpha = 32.00000, Total beta = 32.00000, Total charge =  1.00000


    Psi4 stopped on: Saturday, 29 September 2018 08:53PM
    Psi4 wall time for execution: 0:02:46.84

*** Psi4 exiting successfully. Buy a developer a beer!
