
    -----------------------------------------------------------------------
          Psi4: An Open-Source Ab Initio Electronic Structure Package
                               Psi4 1.2.1 release

                         Git: Rev {HEAD} 406f4de 


    R. M. Parrish, L. A. Burns, D. G. A. Smith, A. C. Simmonett,
    A. E. DePrince III, E. G. Hohenstein, U. Bozkaya, A. Yu. Sokolov,
    R. Di Remigio, R. M. Richard, J. F. Gonthier, A. M. James,
    H. R. McAlexander, A. Kumar, M. Saitow, X. Wang, B. P. Pritchard,
    P. Verma, H. F. Schaefer III, K. Patkowski, R. A. King, E. F. Valeev,
    F. A. Evangelista, J. M. Turney, T. D. Crawford, and C. D. Sherrill,
    J. Chem. Theory Comput. 13(7) pp 3185--3197 (2017).
    (doi: 10.1021/acs.jctc.7b00174)


                         Additional Contributions by
    P. Kraus, H. Kruse, M. H. Lechner, M. C. Schieber, and R. A. Shaw

    -----------------------------------------------------------------------


    Psi4 started on: Saturday, 29 September 2018 04:50PM

    Process ID: 5000
    Host:       loro.prib.upf.edu
    PSIDATADIR: /shared/joao/test_parameterize/miniconda3/share/psi4
    Memory:     500.0 MiB
    Threads:    1
    
  ==> Input File <==

--------------------------------------------------------------------------
set_num_threads(1)
set_memory('5348 MB')

set { scf_mem_safety_factor 0.7 }

set { reference rks }
set { basis cc-pVDZ }

molecule MOL {
    0 1
    noreorient
    nocom
    symmetry c1
    O    1.141000   0.017000   0.083000
    C    2.558000   0.086000  -0.005000
    C    3.192000  -0.789000   1.067000
    O    4.610000  -0.719000   0.979000
    H    0.789000   0.590000  -0.620000
    H    2.874000   1.128000   0.115000
    H    2.871000  -0.243000  -1.001000
    H    2.876000  -1.830000   0.947000
    H    2.879000  -0.459000   2.064000
    H    4.911658  -1.585323   0.654387
}

set optking { frozen_dihedral = (" 2 3 4 10 ") }

energy, wfn = energy('B3LYP-D3', return_wfn=True)

import os
os.chdir(os.environ['HTMD_PSI4_WORKDIR'])

oeprop(wfn, 'DIPOLE', 'QUADRUPOLE', 'MULLIKEN_CHARGES')

with open('psi4out.xyz', 'w') as f:
    f.write('10 ' )
    f.write('%.12f\n' % energy)
    f.write(MOL.save_string_xyz())
--------------------------------------------------------------------------
  Threads set to 1 by Python driver.

  Memory set to   4.981 GiB by Python driver.

*** tstart() called on loro.prib.upf.edu
*** at Sat Sep 29 16:50:08 2018

   => Loading Basis Set <=

    Name: CC-PVDZ
    Role: ORBITAL
    Keyword: BASIS
    atoms 1, 4 entry O          line   198 file /shared/joao/test_parameterize/miniconda3/share/psi4/basis/cc-pvdz.gbs 
    atoms 2-3  entry C          line   138 file /shared/joao/test_parameterize/miniconda3/share/psi4/basis/cc-pvdz.gbs 
    atoms 5-10 entry H          line    22 file /shared/joao/test_parameterize/miniconda3/share/psi4/basis/cc-pvdz.gbs 


         ---------------------------------------------------------
                                   SCF
            by Justin Turney, Rob Parrish, Andy Simmonett
                             and Daniel Smith
                              RKS Reference
                        1 Threads,   5100 MiB Core
         ---------------------------------------------------------

  ==> Geometry <==

    Molecular point group: c1
    Full point group: C1

    Geometry (in Angstrom), charge = 0, multiplicity = 1:

       Center              X                  Y                   Z               Mass       
    ------------   -----------------  -----------------  -----------------  -----------------
         O            1.141000000000     0.017000000000     0.083000000000    15.994914619560
         C            2.558000000000     0.086000000000    -0.005000000000    12.000000000000
         C            3.192000000000    -0.789000000000     1.067000000000    12.000000000000
         O            4.610000000000    -0.719000000000     0.979000000000    15.994914619560
         H            0.789000000000     0.590000000000    -0.620000000000     1.007825032070
         H            2.874000000000     1.128000000000     0.115000000000     1.007825032070
         H            2.871000000000    -0.243000000000    -1.001000000000     1.007825032070
         H            2.876000000000    -1.830000000000     0.947000000000     1.007825032070
         H            2.879000000000    -0.459000000000     2.064000000000     1.007825032070
         H            4.911658000000    -1.585323000000     0.654387000000     1.007825032070

  Running in c1 symmetry.

  Rotational constants: A =      0.81755  B =      0.02543  C =      0.02495 [cm^-1]
  Rotational constants: A =  24509.54363  B =    762.34702  C =    748.01709 [MHz]
  Nuclear repulsion =  129.610507340647615

  Charge       = 0
  Multiplicity = 1
  Electrons    = 34
  Nalpha       = 17
  Nbeta        = 17

  ==> Algorithm <==

  SCF Algorithm Type is DF.
  DIIS enabled.
  MOM disabled.
  Fractional occupation disabled.
  Guess Type is SAD.
  Energy threshold   = 1.00e-06
  Density threshold  = 1.00e-06
  Integral threshold = 0.00e+00

  ==> Primary Basis <==

  Basis Set: CC-PVDZ
    Blend: CC-PVDZ
    Number of shells: 42
    Number of basis function: 86
    Number of Cartesian functions: 90
    Spherical Harmonics?: true
    Max angular momentum: 2

  ==> DFT Potential <==

   => Composite Functional: B3LYP-D3ZERO <= 

    B3LYP-d3zero Hyb-GGA Exchange-Correlation Functional

    P. J. Stephens, F. J. Devlin, C. F. Chabalowski, and M. J. Frisch, J. Phys. Chem. 98, 11623 (1994)

    Deriv               =              1
    GGA                 =           TRUE
    Meta                =          FALSE

    Exchange Hybrid     =           TRUE
    MP2 Hybrid          =          FALSE

   => Exchange Functionals <=

    0.0800   Slater exchange
    0.7200         Becke 88

   => Exact (HF) Exchange <=

    0.2000               HF 

   => Correlation Functionals <=

    0.1900   Vosko, Wilk & Nusair (VWN5_RPA)
    0.8100   Lee, Yang & Parr

   => Molecular Quadrature <=

    Radial Scheme       =       TREUTLER
    Pruning Scheme      =           FLAT
    Nuclear Scheme      =       TREUTLER

    BS radius alpha     =              1
    Pruning alpha       =              1
    Radial Points       =             75
    Spherical Points    =            302
    Total Points        =         222555
    Total Blocks        =           1731
    Max Points          =            256
    Max Functions       =             86

   => -D3ZERO: Empirical Dispersion <=

    Grimme's -D3 (zero-damping) Dispersion Correction
    Grimme S.; Antony J.; Ehrlich S.; Krieg H. (2010), J. Chem. Phys., 132: 154104

        S6 =   1.000000E+00
        S8 =   1.703000E+00
       SR6 =   1.261000E+00
       SR8 =   1.000000E+00
    ALPHA6 =   1.400000E+01

   => Loading Basis Set <=

    Name: (CC-PVDZ AUX)
    Role: JKFIT
    Keyword: DF_BASIS_SCF
    atoms 1, 4 entry O          line   221 file /shared/joao/test_parameterize/miniconda3/share/psi4/basis/cc-pvdz-jkfit.gbs 
    atoms 2-3  entry C          line   121 file /shared/joao/test_parameterize/miniconda3/share/psi4/basis/cc-pvdz-jkfit.gbs 
    atoms 5-10 entry H          line    51 file /shared/joao/test_parameterize/miniconda3/share/psi4/basis/cc-pvdz-jkfit.gbs 

  ==> Pre-Iterations <==

   -------------------------------------------------------
    Irrep   Nso     Nmo     Nalpha   Nbeta   Ndocc  Nsocc
   -------------------------------------------------------
     A         86      86       0       0       0       0
   -------------------------------------------------------
    Total      86      86      17      17      17       0
   -------------------------------------------------------

  ==> Integral Setup <==

  DFHelper Memory: AOs need 0.030 [GiB]; user supplied 3.486 [GiB]. Using in-core AOs.

  ==> MemDFJK: Density-Fitted J/K Matrices <==

    J tasked:                   Yes
    K tasked:                   Yes
    wK tasked:                   No
    OpenMP threads:               1
    Memory (MB):               3570
    Algorithm:                 Core
    Schwarz Cutoff:           1E-12
    Mask sparsity (%):       0.3515
    Fitting Condition:        1E-12

   => Auxiliary Basis Set <=

  Basis Set: (CC-PVDZ AUX)
    Blend: CC-PVDZ-JKFIT
    Number of shells: 150
    Number of basis function: 418
    Number of Cartesian functions: 474
    Spherical Harmonics?: true
    Max angular momentum: 3

  Minimum eigenvalue in the overlap matrix is 5.1582581760E-03.
  Using Symmetric Orthogonalization.

  SCF Guess: Superposition of Atomic Densities via on-the-fly atomic UHF.

  ==> Iterations <==

                           Total Energy        Delta E     RMS |[F,P]|

   @DF-RKS iter   0:  -231.04926796087730   -2.31049e+02   4.14218e-02 
   @DF-RKS iter   1:  -230.19244965683481    8.56818e-01   4.65378e-03 
   @DF-RKS iter   2:  -230.16521503817947    2.72346e-02   5.86431e-03 DIIS
   @DF-RKS iter   3:  -230.25581550664333   -9.06005e-02   6.91576e-04 DIIS
   @DF-RKS iter   4:  -230.25708479108948   -1.26928e-03   2.14422e-04 DIIS
   @DF-RKS iter   5:  -230.25724589047678   -1.61099e-04   4.65281e-05 DIIS
   @DF-RKS iter   6:  -230.25725343639917   -7.54592e-06   6.19444e-06 DIIS
   @DF-RKS iter   7:  -230.25725350773038   -7.13312e-08   3.86412e-06 DIIS
   @DF-RKS iter   8:  -230.25725354733552   -3.96051e-08   4.78235e-07 DIIS

  ==> Post-Iterations <==

    Orbital Energies [Eh]
    ---------------------

    Doubly Occupied:                                                      

       1A    -19.134014     2A    -19.130555     3A    -10.226920  
       4A    -10.223677     5A     -1.019833     6A     -1.008894  
       7A     -0.730823     8A     -0.607961     9A     -0.524896  
      10A     -0.492580    11A     -0.454582    12A     -0.423254  
      13A     -0.396316    14A     -0.338680    15A     -0.324738  
      16A     -0.268960    17A     -0.263489  

    Virtual:                                                              

      18A      0.042114    19A      0.052615    20A      0.107516  
      21A      0.120416    22A      0.125477    23A      0.164061  
      24A      0.187973    25A      0.247849    26A      0.250802  
      27A      0.434275    28A      0.442217    29A      0.504159  
      30A      0.529019    31A      0.556175    32A      0.589467  
      33A      0.604346    34A      0.623192    35A      0.633340  
      36A      0.649430    37A      0.659644    38A      0.680411  
      39A      0.884284    40A      0.906757    41A      0.909826  
      42A      0.971270    43A      1.015380    44A      1.058751  
      45A      1.061239    46A      1.097258    47A      1.203629  
      48A      1.213214    49A      1.263182    50A      1.343305  
      51A      1.349438    52A      1.398070    53A      1.455149  
      54A      1.529438    55A      1.594754    56A      1.605308  
      57A      1.639663    58A      1.650857    59A      1.670666  
      60A      1.699938    61A      1.741244    62A      1.757211  
      63A      1.818787    64A      1.844544    65A      1.912487  
      66A      1.992510    67A      2.031388    68A      2.084313  
      69A      2.101685    70A      2.154875    71A      2.244274  
      72A      2.289759    73A      2.404272    74A      2.439669  
      75A      2.469997    76A      2.524071    77A      2.915895  
      78A      2.940179    79A      2.970615    80A      3.028229  
      81A      3.069095    82A      3.146607    83A      3.191283  
      84A      3.228422    85A      3.664124    86A      3.694086  

    Final Occupation by Irrep:
              A 
    DOCC [    17 ]

  Energy converged.

  @DF-RKS Final Energy:  -230.25725354733552

   => Energetics <=

    Nuclear Repulsion Energy =            129.6105073406476151
    One-Electron Energy =                -570.9621923597484283
    Two-Electron Energy =                 235.6379413278055210
    DFT Exchange-Correlation Energy =     -24.5390281660402110
    Empirical Dispersion Energy =          -0.0044816900000000
    VV10 Nonlocal Energy =                  0.0000000000000000
    Total Energy =                       -230.2572535473355231



Properties will be evaluated at   0.000000,   0.000000,   0.000000 [a0]

Properties computed using the SCF density matrix

  Nuclear Dipole Moment: [e a0]
     X:   184.6426      Y:   -23.1176      Z:    32.1771

  Electronic Dipole Moment: [e a0]
     X:  -184.6609      Y:    22.9185      Z:   -32.7534

  Dipole Moment: [e a0]
     X:    -0.0183      Y:    -0.1991      Z:    -0.5763     Total:     0.6100

  Dipole Moment: [D]
     X:    -0.0465      Y:    -0.5062      Z:    -1.4649     Total:     1.5506


*** tstop() called on loro.prib.upf.edu at Sat Sep 29 16:50:23 2018
Module time:
	user time   =      12.86 seconds =       0.21 minutes
	system time =       0.17 seconds =       0.00 minutes
	total time  =         15 seconds =       0.25 minutes
Total time:
	user time   =      12.86 seconds =       0.21 minutes
	system time =       0.17 seconds =       0.00 minutes
	total time  =         15 seconds =       0.25 minutes


Properties will be evaluated at   0.000000,   0.000000,   0.000000 [a0]
OEProp: No title given, name of density matrix used for the following properties is 'SCF density'
  Nuclear Dipole Moment: [e a0]
     X:   184.6426      Y:   -23.1176      Z:    32.1771

  Electronic Dipole Moment: [e a0]
     X:  -184.6609      Y:    22.9185      Z:   -32.7534

  Dipole Moment: [e a0]
     X:    -0.0183      Y:    -0.1991      Z:    -0.5763     Total:     0.6100

  Dipole Moment: [D]
     X:    -0.0465      Y:    -0.5062      Z:    -1.4649     Total:     1.5506

  Quadrupole Moment: [D A]
    XX:   -27.1743     YY:   -20.5997     ZZ:   -24.8035
    XY:    -6.1878     XZ:    -3.3774     YZ:    -1.2263

  Traceless Quadrupole Moment: [D A]
    XX:    -2.9818     YY:     3.5928     ZZ:    -0.6110
    XY:    -6.1878     XZ:    -3.3774     YZ:    -1.2263

  Mulliken Charges: (a.u.)
   Center  Symbol    Alpha    Beta     Spin     Total
       1     O     4.14103  4.14103  0.00000 -0.28205
       2     C     2.93576  2.93576  0.00000  0.12848
       3     C     2.93691  2.93691  0.00000  0.12619
       4     O     4.13984  4.13984  0.00000 -0.27968
       5     H     0.42808  0.42808  0.00000  0.14384
       6     H     0.49789  0.49789  0.00000  0.00423
       7     H     0.50539  0.50539  0.00000 -0.01078
       8     H     0.49724  0.49724  0.00000  0.00551
       9     H     0.49002  0.49002  0.00000  0.01996
      10     H     0.42785  0.42785  0.00000  0.14431

   Total alpha = 17.00000, Total beta = 17.00000, Total charge = -0.00000


    Psi4 stopped on: Saturday, 29 September 2018 04:50PM
    Psi4 wall time for execution: 0:00:15.54

*** Psi4 exiting successfully. Buy a developer a beer!
