
    -----------------------------------------------------------------------
          Psi4: An Open-Source Ab Initio Electronic Structure Package
                               Psi4 1.2.1 release

                         Git: Rev {HEAD} 406f4de 


    R. M. Parrish, L. A. Burns, D. G. A. Smith, A. C. Simmonett,
    A. E. DePrince III, E. G. Hohenstein, U. Bozkaya, A. Yu. Sokolov,
    R. Di Remigio, R. M. Richard, J. F. Gonthier, A. M. James,
    H. R. McAlexander, A. Kumar, M. Saitow, X. Wang, B. P. Pritchard,
    P. Verma, H. F. Schaefer III, K. Patkowski, R. A. King, E. F. Valeev,
    F. A. Evangelista, J. M. Turney, T. D. Crawford, and C. D. Sherrill,
    J. Chem. Theory Comput. 13(7) pp 3185--3197 (2017).
    (doi: 10.1021/acs.jctc.7b00174)


                         Additional Contributions by
    P. Kraus, H. Kruse, M. H. Lechner, M. C. Schieber, and R. A. Shaw

    -----------------------------------------------------------------------


    Psi4 started on: Saturday, 29 September 2018 04:37PM

    Process ID: 30040
    Host:       loro.prib.upf.edu
    PSIDATADIR: /shared/joao/test_parameterize/miniconda3/share/psi4
    Memory:     500.0 MiB
    Threads:    1
    
  ==> Input File <==

--------------------------------------------------------------------------
set_num_threads(1)
set_memory('5348 MB')

set { scf_mem_safety_factor 0.7 }

set { reference rks }
set { basis cc-pVDZ }

molecule MOL {
    0 1
    noreorient
    nocom
    symmetry c1
    O    1.014300  -0.002300   0.060500
    O    2.462400  -0.107500  -0.002400
    H    0.821200  -0.823600  -0.430600
    H    2.545738  -0.866879   0.605246
}

set optking { frozen_dihedral = (" 3 1 2 4 ") }

set optking { dynamic_level = 1 
 geom_maxiter = 250
 print_trajectory_xyz_file = True }

energy, wfn = optimize('B3LYP-D3', return_wfn=True)

import os
os.chdir(os.environ['HTMD_PSI4_WORKDIR'])

oeprop(wfn, 'DIPOLE', 'QUADRUPOLE', 'MULLIKEN_CHARGES')

with open('psi4out.xyz', 'w') as f:
    f.write('4 ' )
    f.write('%.12f\n' % energy)
    f.write(MOL.save_string_xyz())
--------------------------------------------------------------------------
  Threads set to 1 by Python driver.

  Memory set to   4.981 GiB by Python driver.
gradient() will perform analytic gradient computation.

*** tstart() called on loro.prib.upf.edu
*** at Sat Sep 29 16:37:18 2018

   => Loading Basis Set <=

    Name: CC-PVDZ
    Role: ORBITAL
    Keyword: BASIS
    atoms 1-2 entry O          line   198 file /shared/joao/test_parameterize/miniconda3/share/psi4/basis/cc-pvdz.gbs 
    atoms 3-4 entry H          line    22 file /shared/joao/test_parameterize/miniconda3/share/psi4/basis/cc-pvdz.gbs 


         ---------------------------------------------------------
                                   SCF
            by Justin Turney, Rob Parrish, Andy Simmonett
                             and Daniel Smith
                              RKS Reference
                        1 Threads,   5100 MiB Core
         ---------------------------------------------------------

  ==> Geometry <==

    Molecular point group: c1
    Full point group: C1

    Geometry (in Angstrom), charge = 0, multiplicity = 1:

       Center              X                  Y                   Z               Mass       
    ------------   -----------------  -----------------  -----------------  -----------------
         O            1.014300000000    -0.002300000000     0.060500000000    15.994914619560
         O            2.462400000000    -0.107500000000    -0.002400000000    15.994914619560
         H            0.821200000000    -0.823600000000    -0.430600000000     1.007825032070
         H            2.545738000000    -0.866879000000     0.605246000000     1.007825032070

  Running in c1 symmetry.

  Rotational constants: A =      9.50714  B =      0.13853  C =      0.13782 [cm^-1]
  Rotational constants: A = 285016.98766  B =   4152.89057  C =   4131.75317 [MHz]
  Nuclear repulsion =   36.839381160652493

  Charge       = 0
  Multiplicity = 1
  Electrons    = 18
  Nalpha       = 9
  Nbeta        = 9

  ==> Algorithm <==

  SCF Algorithm Type is DF.
  DIIS enabled.
  MOM disabled.
  Fractional occupation disabled.
  Guess Type is SAD.
  Energy threshold   = 1.00e-08
  Density threshold  = 1.00e-08
  Integral threshold = 0.00e+00

  ==> Primary Basis <==

  Basis Set: CC-PVDZ
    Blend: CC-PVDZ
    Number of shells: 18
    Number of basis function: 38
    Number of Cartesian functions: 40
    Spherical Harmonics?: true
    Max angular momentum: 2

  ==> DFT Potential <==

   => Composite Functional: B3LYP-D3ZERO <= 

    B3LYP-d3zero Hyb-GGA Exchange-Correlation Functional

    P. J. Stephens, F. J. Devlin, C. F. Chabalowski, and M. J. Frisch, J. Phys. Chem. 98, 11623 (1994)

    Deriv               =              1
    GGA                 =           TRUE
    Meta                =          FALSE

    Exchange Hybrid     =           TRUE
    MP2 Hybrid          =          FALSE

   => Exchange Functionals <=

    0.0800   Slater exchange
    0.7200         Becke 88

   => Exact (HF) Exchange <=

    0.2000               HF 

   => Correlation Functionals <=

    0.1900   Vosko, Wilk & Nusair (VWN5_RPA)
    0.8100   Lee, Yang & Parr

   => Molecular Quadrature <=

    Radial Scheme       =       TREUTLER
    Pruning Scheme      =           FLAT
    Nuclear Scheme      =       TREUTLER

    BS radius alpha     =              1
    Pruning alpha       =              1
    Radial Points       =             75
    Spherical Points    =            302
    Total Points        =          88294
    Total Blocks        =            704
    Max Points          =            254
    Max Functions       =             38

   => -D3ZERO: Empirical Dispersion <=

    Grimme's -D3 (zero-damping) Dispersion Correction
    Grimme S.; Antony J.; Ehrlich S.; Krieg H. (2010), J. Chem. Phys., 132: 154104

        S6 =   1.000000E+00
        S8 =   1.703000E+00
       SR6 =   1.261000E+00
       SR8 =   1.000000E+00
    ALPHA6 =   1.400000E+01

   => Loading Basis Set <=

    Name: (CC-PVDZ AUX)
    Role: JKFIT
    Keyword: DF_BASIS_SCF
    atoms 1-2 entry O          line   221 file /shared/joao/test_parameterize/miniconda3/share/psi4/basis/cc-pvdz-jkfit.gbs 
    atoms 3-4 entry H          line    51 file /shared/joao/test_parameterize/miniconda3/share/psi4/basis/cc-pvdz-jkfit.gbs 

  ==> Pre-Iterations <==

   -------------------------------------------------------
    Irrep   Nso     Nmo     Nalpha   Nbeta   Ndocc  Nsocc
   -------------------------------------------------------
     A         38      38       0       0       0       0
   -------------------------------------------------------
    Total      38      38       9       9       9       0
   -------------------------------------------------------

  ==> Integral Setup <==

  DFHelper Memory: AOs need 0.003 [GiB]; user supplied 3.486 [GiB]. Using in-core AOs.

  ==> MemDFJK: Density-Fitted J/K Matrices <==

    J tasked:                   Yes
    K tasked:                   Yes
    wK tasked:                   No
    OpenMP threads:               1
    Memory (MB):               3570
    Algorithm:                 Core
    Schwarz Cutoff:           1E-12
    Mask sparsity (%):       0.0000
    Fitting Condition:        1E-12

   => Auxiliary Basis Set <=

  Basis Set: (CC-PVDZ AUX)
    Blend: CC-PVDZ-JKFIT
    Number of shells: 66
    Number of basis function: 186
    Number of Cartesian functions: 212
    Spherical Harmonics?: true
    Max angular momentum: 3

  Minimum eigenvalue in the overlap matrix is 2.5866361359E-02.
  Using Symmetric Orthogonalization.

  SCF Guess: Superposition of Atomic Densities via on-the-fly atomic UHF.

  ==> Iterations <==

                           Total Energy        Delta E     RMS |[F,P]|

   @DF-RKS iter   0:  -151.59043843088318   -1.51590e+02   4.87870e-02 
   @DF-RKS iter   1:  -151.51532575814431    7.51127e-02   7.30782e-03 
   @DF-RKS iter   2:  -151.51473456196993    5.91196e-04   7.58421e-03 DIIS
   @DF-RKS iter   3:  -151.54534290391118   -3.06083e-02   8.52192e-04 DIIS
   @DF-RKS iter   4:  -151.54569915334912   -3.56249e-04   1.11989e-04 DIIS
   @DF-RKS iter   5:  -151.54569689451429    2.25883e-06   1.36444e-04 DIIS
   @DF-RKS iter   6:  -151.54570668460508   -9.79009e-06   7.76091e-06 DIIS
   @DF-RKS iter   7:  -151.54570673228940   -4.76843e-08   1.68514e-06 DIIS
   @DF-RKS iter   8:  -151.54570673400764   -1.71823e-09   1.21041e-07 DIIS
   @DF-RKS iter   9:  -151.54570673402930   -2.16573e-11   1.93232e-08 DIIS
   @DF-RKS iter  10:  -151.54570673402938   -8.52651e-14   2.55765e-09 DIIS

  ==> Post-Iterations <==

    Orbital Energies [Eh]
    ---------------------

    Doubly Occupied:                                                      

       1A    -19.190895     2A    -19.190857     3A     -1.117347  
       4A     -0.887084     5A     -0.538461     6A     -0.458686  
       7A     -0.423603     8A     -0.311289     9A     -0.274939  

    Virtual:                                                              

      10A      0.022298    11A      0.034589    12A      0.110652  
      13A      0.573510    14A      0.575781    15A      0.855759  
      16A      0.872715    17A      0.909786    18A      0.926200  
      19A      1.015075    20A      1.035052    21A      1.232446  
      22A      1.302142    23A      1.312040    24A      1.412214  
      25A      1.660662    26A      1.714626    27A      2.051013  
      28A      2.075418    29A      2.404787    30A      2.436787  
      31A      2.574202    32A      2.865016    33A      2.932392  
      34A      3.068570    35A      3.094970    36A      3.451868  
      37A      3.577411    38A      3.819263  

    Final Occupation by Irrep:
              A 
    DOCC [     9 ]

  Energy converged.

  @DF-RKS Final Energy:  -151.54570673402938

   => Energetics <=

    Nuclear Repulsion Energy =             36.8393811606524935
    One-Electron Energy =                -281.6001190556148686
    Two-Electron Energy =                 107.6767953182171311
    DFT Exchange-Correlation Energy =     -14.4615378272841291
    Empirical Dispersion Energy =          -0.0002263300000000
    VV10 Nonlocal Energy =                  0.0000000000000000
    Total Energy =                       -151.5457067340293804



Properties will be evaluated at   0.000000,   0.000000,   0.000000 [a0]

Properties computed using the SCF density matrix

  Nuclear Dipole Moment: [e a0]
     X:    58.9227      Y:    -4.8545      Z:     1.2084

  Electronic Dipole Moment: [e a0]
     X:   -58.9945      Y:     3.8204      Z:    -1.1321

  Dipole Moment: [e a0]
     X:    -0.0718      Y:    -1.0341      Z:     0.0763     Total:     1.0394

  Dipole Moment: [D]
     X:    -0.1825      Y:    -2.6284      Z:     0.1939     Total:     2.6419


*** tstop() called on loro.prib.upf.edu at Sat Sep 29 16:37:24 2018
Module time:
	user time   =       3.28 seconds =       0.05 minutes
	system time =       0.07 seconds =       0.00 minutes
	total time  =          6 seconds =       0.10 minutes
Total time:
	user time   =       3.28 seconds =       0.05 minutes
	system time =       0.07 seconds =       0.00 minutes
	total time  =          6 seconds =       0.10 minutes

*** tstart() called on loro.prib.upf.edu
*** at Sat Sep 29 16:37:24 2018


         ------------------------------------------------------------
                                   SCF GRAD                          
                          Rob Parrish, Justin Turney,                
                       Andy Simmonett, and Alex Sokolov              
         ------------------------------------------------------------

  ==> Geometry <==

    Molecular point group: c1
    Full point group: C1

    Geometry (in Angstrom), charge = 0, multiplicity = 1:

       Center              X                  Y                   Z               Mass       
    ------------   -----------------  -----------------  -----------------  -----------------
         O            1.014300000000    -0.002300000000     0.060500000000    15.994914619560
         O            2.462400000000    -0.107500000000    -0.002400000000    15.994914619560
         H            0.821200000000    -0.823600000000    -0.430600000000     1.007825032070
         H            2.545738000000    -0.866879000000     0.605246000000     1.007825032070

  Nuclear repulsion =   36.839381160652493

  ==> Basis Set <==

  Basis Set: CC-PVDZ
    Blend: CC-PVDZ
    Number of shells: 18
    Number of basis function: 38
    Number of Cartesian functions: 40
    Spherical Harmonics?: true
    Max angular momentum: 2

  ==> DFJKGrad: Density-Fitted SCF Gradients <==

    Gradient:                    1
    J tasked:                  Yes
    K tasked:                  Yes
    wK tasked:                  No
    OpenMP threads:              1
    Integrals threads:           1
    Memory (MB):              3570
    Schwarz Cutoff:          0E+00
    Fitting Condition:       1E-12

   => Auxiliary Basis Set <=

  Basis Set: (CC-PVDZ AUX)
    Blend: CC-PVDZ-JKFIT
    Number of shells: 66
    Number of basis function: 186
    Number of Cartesian functions: 212
    Spherical Harmonics?: true
    Max angular momentum: 3

  ==> DFT Potential <==

   => Composite Functional: B3LYP-D3ZERO <= 

    B3LYP-d3zero Hyb-GGA Exchange-Correlation Functional

    P. J. Stephens, F. J. Devlin, C. F. Chabalowski, and M. J. Frisch, J. Phys. Chem. 98, 11623 (1994)

    Deriv               =              1
    GGA                 =           TRUE
    Meta                =          FALSE

    Exchange Hybrid     =           TRUE
    MP2 Hybrid          =          FALSE

   => Exchange Functionals <=

    0.0800   Slater exchange
    0.7200         Becke 88

   => Exact (HF) Exchange <=

    0.2000               HF 

   => Correlation Functionals <=

    0.1900   Vosko, Wilk & Nusair (VWN5_RPA)
    0.8100   Lee, Yang & Parr

   => Molecular Quadrature <=

    Radial Scheme       =       TREUTLER
    Pruning Scheme      =           FLAT
    Nuclear Scheme      =       TREUTLER

    BS radius alpha     =              1
    Pruning alpha       =              1
    Radial Points       =             75
    Spherical Points    =            302
    Total Points        =          88294
    Total Blocks        =            704
    Max Points          =            254
    Max Functions       =             38


  -Total Gradient:
     Atom            X                  Y                   Z
    ------   -----------------  -----------------  -----------------
       1        0.000405495566     0.006414780726     0.005096547627
       2        0.000432709397     0.005533310405    -0.005933984401
       3        0.011030178230    -0.006636429465     0.002665546863
       4       -0.011868628492    -0.005315230499    -0.001827851174


*** tstop() called on loro.prib.upf.edu at Sat Sep 29 16:37:25 2018
Module time:
	user time   =       0.70 seconds =       0.01 minutes
	system time =       0.02 seconds =       0.00 minutes
	total time  =          1 seconds =       0.02 minutes
Total time:
	user time   =       3.98 seconds =       0.07 minutes
	system time =       0.09 seconds =       0.00 minutes
	total time  =          7 seconds =       0.12 minutes

			-----------------------------------------
			 OPTKING 2.0: for geometry optimizations 
			  - R.A. King,  Bethel University        
			-----------------------------------------
	At level 1: Red. Int., RFO, no backsteps, dynamic trust

	Internal coordinates to be generated automatically.
	Detected frag 1 with atoms:  1 2 3 4
	---Fragment 1 Bond Connectivity---
	 1 : 2 3
	 2 : 1 4
	 3 : 1
	 4 : 2

	Assuming in current code that numbering for constraints corresponds to unified fragment.
	Frozen dihedral atom list: 
	     3     1     2     4
	---Fragment 1 Geometry and Gradient---
	 O           1.9167492166       -0.0043463701        0.1143284310
	 O           4.6532616296       -0.2031455593       -0.0045353427
	 H           1.5518431003       -1.5563784430       -0.8137160728
	 H           4.8107476261       -1.6381639003        1.1437491830
	             0.0004054956        0.0064147807        0.0050965476
	             0.0004327094        0.0055333104       -0.0059339844
	             0.0110301782       -0.0066364295        0.0026655469
	            -0.0118686285       -0.0053152305       -0.0018278512

	Previous optimization step data not found.  Starting new optimization.

	---Fragment 1 Intrafragment Coordinates---
	 - Coordinate -           - BOHR/RAD -       - ANG/DEG -
	 R(1,2)           =         2.746297	       1.453278
	 R(1,3)           =         1.844784	       0.976217
	 R(2,4)           =         1.844624	       0.976133
	 B(1,2,4)         =         1.685490	      96.571480
	 B(2,1,3)         =         1.685473	      96.570488
	*D(3,1,2,4)       =        -1.221731	     -70.000008

	Current energy   :      -151.5457067340

	Generating empirical Hessian (Schlegel '84) for each fragment.
	Taking RFO optimization step.
	Going to follow RFO solution 1.
	Using RFO vector 1.
	Norm of target step-size    0.18577
	Projected energy change by RFO approximation:        -0.0077541978

	Back-transformation to cartesian coordinates...
	Successfully converged to displaced geometry.

	Back-transformation to cartesian coordinates to adjust frozen coordinates...
	Successfully converged to displaced geometry.

	--- Internal Coordinate Step in ANG or DEG, aJ/ANG or AJ/DEG ---
	 ---------------------------------------------------------------------------
	   Coordinate                Previous        Force       Change         New 
	   ----------                --------       ------       ------       ------
	    1 R(1,2)          =      1.453278     0.091240     0.015257     1.468535
	    2 R(1,3)          =      0.976217    -0.016967    -0.002067     0.974150
	    3 R(2,4)          =      0.976133    -0.016336    -0.001990     0.974143
	    4 B(1,2,4)        =     96.571480     0.001637     7.397012   103.968491
	    5 B(2,1,3)        =     96.570488     0.001638     7.399095   103.969582
	    6 *D(3,1,2,4)     =    -70.000008     0.000000     0.000000   -70.000008
	 ---------------------------------------------------------------------------
	Successfully symmetrized geometry.

  ==> Convergence Check <==

  Measures of convergence in internal coordinates in au.
  Criteria marked as inactive (o), active & met (*), and active & unmet ( ).
  --------------------------------------------------------------------------------------------- ~
   Step     Total Energy     Delta E     MAX Force     RMS Force      MAX Disp      RMS Disp    ~
  --------------------------------------------------------------------------------------------- ~
    Convergence Criteria    1.00e-06 *    3.00e-04 *             o    1.20e-03 *             o  ~
  --------------------------------------------------------------------------------------------- ~
      1    -151.54570673   -1.52e+02      2.15e-02      1.33e-02 o    1.29e-01      7.55e-02 o  ~
  ---------------------------------------------------------------------------------------------

	Writing optimization data to binary file.
	Structure for next step:
	Cartesian Geometry (in Angstrom)
	    O     1.0051443019  -0.0144286488   0.0240053905
	    O     2.4701672942  -0.1152783510   0.0355412874
	    H     0.7185626056  -0.8087027639  -0.4617601320
	    H     2.6497637983  -0.8618692364   0.6349594541
			--------------------------
			 OPTKING Finished Execution 
			--------------------------

    Structure for next step:
    Molecular point group: c1
    Full point group: C1

    Geometry (in Angstrom), charge = 0, multiplicity = 1:

    O            1.005144301892    -0.014428648762     0.024005390499
    O            2.470167294227    -0.115278350978     0.035541287408
    H            0.718562605568    -0.808702763883    -0.461760132020
    H            2.649763798314    -0.861869236377     0.634959454112

gradient() will perform analytic gradient computation.

*** tstart() called on loro.prib.upf.edu
*** at Sat Sep 29 16:37:25 2018

   => Loading Basis Set <=

    Name: CC-PVDZ
    Role: ORBITAL
    Keyword: BASIS
    atoms 1-2 entry O          line   198 file /shared/joao/test_parameterize/miniconda3/share/psi4/basis/cc-pvdz.gbs 
    atoms 3-4 entry H          line    22 file /shared/joao/test_parameterize/miniconda3/share/psi4/basis/cc-pvdz.gbs 


         ---------------------------------------------------------
                                   SCF
            by Justin Turney, Rob Parrish, Andy Simmonett
                             and Daniel Smith
                              RKS Reference
                        1 Threads,   5100 MiB Core
         ---------------------------------------------------------

  ==> Geometry <==

    Molecular point group: c1
    Full point group: C1

    Geometry (in Angstrom), charge = 0, multiplicity = 1:

       Center              X                  Y                   Z               Mass       
    ------------   -----------------  -----------------  -----------------  -----------------
         O            1.005144301892    -0.014428648762     0.024005390499    15.994914619560
         O            2.470167294227    -0.115278350978     0.035541287408    15.994914619560
         H            0.718562605568    -0.808702763883    -0.461760132020     1.007825032070
         H            2.649763798314    -0.861869236377     0.634959454112     1.007825032070

  Running in c1 symmetry.

  Rotational constants: A =      9.90427  B =      0.13762  C =      0.13698 [cm^-1]
  Rotational constants: A = 296922.61823  B =   4125.88008  C =   4106.68136 [MHz]
  Nuclear repulsion =   36.337282178251719

  Charge       = 0
  Multiplicity = 1
  Electrons    = 18
  Nalpha       = 9
  Nbeta        = 9

  ==> Algorithm <==

  SCF Algorithm Type is DF.
  DIIS enabled.
  MOM disabled.
  Fractional occupation disabled.
  Guess Type is READ.
  Energy threshold   = 1.00e-08
  Density threshold  = 1.00e-08
  Integral threshold = 0.00e+00

  ==> Primary Basis <==

  Basis Set: CC-PVDZ
    Blend: CC-PVDZ
    Number of shells: 18
    Number of basis function: 38
    Number of Cartesian functions: 40
    Spherical Harmonics?: true
    Max angular momentum: 2

  ==> DFT Potential <==

   => Composite Functional: B3LYP-D3ZERO <= 

    B3LYP-d3zero Hyb-GGA Exchange-Correlation Functional

    P. J. Stephens, F. J. Devlin, C. F. Chabalowski, and M. J. Frisch, J. Phys. Chem. 98, 11623 (1994)

    Deriv               =              1
    GGA                 =           TRUE
    Meta                =          FALSE

    Exchange Hybrid     =           TRUE
    MP2 Hybrid          =          FALSE

   => Exchange Functionals <=

    0.0800   Slater exchange
    0.7200         Becke 88

   => Exact (HF) Exchange <=

    0.2000               HF 

   => Correlation Functionals <=

    0.1900   Vosko, Wilk & Nusair (VWN5_RPA)
    0.8100   Lee, Yang & Parr

   => Molecular Quadrature <=

    Radial Scheme       =       TREUTLER
    Pruning Scheme      =           FLAT
    Nuclear Scheme      =       TREUTLER

    BS radius alpha     =              1
    Pruning alpha       =              1
    Radial Points       =             75
    Spherical Points    =            302
    Total Points        =          88316
    Total Blocks        =            709
    Max Points          =            256
    Max Functions       =             38

   => -D3ZERO: Empirical Dispersion <=

    Grimme's -D3 (zero-damping) Dispersion Correction
    Grimme S.; Antony J.; Ehrlich S.; Krieg H. (2010), J. Chem. Phys., 132: 154104

        S6 =   1.000000E+00
        S8 =   1.703000E+00
       SR6 =   1.261000E+00
       SR8 =   1.000000E+00
    ALPHA6 =   1.400000E+01

   => Loading Basis Set <=

    Name: (CC-PVDZ AUX)
    Role: JKFIT
    Keyword: DF_BASIS_SCF
    atoms 1-2 entry O          line   221 file /shared/joao/test_parameterize/miniconda3/share/psi4/basis/cc-pvdz-jkfit.gbs 
    atoms 3-4 entry H          line    51 file /shared/joao/test_parameterize/miniconda3/share/psi4/basis/cc-pvdz-jkfit.gbs 

  Reading orbitals from file 180, no projection.

  ==> Pre-Iterations <==

   -------------------------------------------------------
    Irrep   Nso     Nmo     Nalpha   Nbeta   Ndocc  Nsocc
   -------------------------------------------------------
     A         38      38       0       0       0       0
   -------------------------------------------------------
    Total      38      38       9       9       9       0
   -------------------------------------------------------

  ==> Integral Setup <==

  DFHelper Memory: AOs need 0.003 [GiB]; user supplied 3.486 [GiB]. Using in-core AOs.

  ==> MemDFJK: Density-Fitted J/K Matrices <==

    J tasked:                   Yes
    K tasked:                   Yes
    wK tasked:                   No
    OpenMP threads:               1
    Memory (MB):               3570
    Algorithm:                 Core
    Schwarz Cutoff:           1E-12
    Mask sparsity (%):       0.0000
    Fitting Condition:        1E-12

   => Auxiliary Basis Set <=

  Basis Set: (CC-PVDZ AUX)
    Blend: CC-PVDZ-JKFIT
    Number of shells: 66
    Number of basis function: 186
    Number of Cartesian functions: 212
    Spherical Harmonics?: true
    Max angular momentum: 3

  Minimum eigenvalue in the overlap matrix is 2.6951668478E-02.
  Using Symmetric Orthogonalization.

  SCF Guess: Orbitals guess was supplied from a previous computation.

  ==> Iterations <==

                           Total Energy        Delta E     RMS |[F,P]|

   @DF-RKS iter   0:  -151.54605415432462   -1.51546e+02   2.53536e-03 
   @DF-RKS iter   1:  -151.54703514662356   -9.80992e-04   5.17152e-04 
   @DF-RKS iter   2:  -151.54717977217385   -1.44626e-04   2.42865e-04 DIIS
   @DF-RKS iter   3:  -151.54721100343014   -3.12313e-05   6.22559e-05 DIIS
   @DF-RKS iter   4:  -151.54721312626884   -2.12284e-06   2.31315e-05 DIIS
   @DF-RKS iter   5:  -151.54721349011160   -3.63843e-07   2.19139e-06 DIIS
   @DF-RKS iter   6:  -151.54721348997595    1.35657e-10   2.66306e-06 DIIS
   @DF-RKS iter   7:  -151.54721349368990   -3.71395e-09   3.16132e-07 DIIS
   @DF-RKS iter   8:  -151.54721349374501   -5.51097e-11   1.82099e-08 DIIS
   @DF-RKS iter   9:  -151.54721349374543   -4.26326e-13   3.24964e-09 DIIS

  ==> Post-Iterations <==

    Orbital Energies [Eh]
    ---------------------

    Doubly Occupied:                                                      

       1A    -19.190661     2A    -19.190627     3A     -1.102048  
       4A     -0.894976     5A     -0.545049     6A     -0.446632  
       7A     -0.412952     8A     -0.311427     9A     -0.274643  

    Virtual:                                                              

      10A      0.007356    11A      0.040602    12A      0.112067  
      13A      0.564258    14A      0.582221    15A      0.857955  
      16A      0.868129    17A      0.943246    18A      0.944093  
      19A      1.016970    20A      1.019875    21A      1.258363  
      22A      1.271611    23A      1.361066    24A      1.419889  
      25A      1.622288    26A      1.730245    27A      2.058453  
      28A      2.079929    29A      2.395167    30A      2.424891  
      31A      2.542502    32A      2.863595    33A      2.929281  
      34A      3.058901    35A      3.103624    36A      3.487096  
      37A      3.576625    38A      3.772459  

    Final Occupation by Irrep:
              A 
    DOCC [     9 ]

  Energy converged.

  @DF-RKS Final Energy:  -151.54721349374543

   => Energetics <=

    Nuclear Repulsion Energy =             36.3372821782517192
    One-Electron Energy =                -280.6528535481872950
    Two-Electron Energy =                 107.2211822249899882
    DFT Exchange-Correlation Energy =     -14.4524529887998430
    Empirical Dispersion Energy =          -0.0003713600000000
    VV10 Nonlocal Energy =                  0.0000000000000000
    Total Energy =                       -151.5472134937454314



Properties will be evaluated at   0.000000,   0.000000,   0.000000 [a0]

Properties computed using the SCF density matrix

  Nuclear Dipole Moment: [e a0]
     X:    58.9043      Y:    -5.1178      Z:     1.2275

  Electronic Dipole Moment: [e a0]
     X:   -58.9761      Y:     4.0834      Z:    -1.1512

  Dipole Moment: [e a0]
     X:    -0.0718      Y:    -1.0344      Z:     0.0763     Total:     1.0397

  Dipole Moment: [D]
     X:    -0.1825      Y:    -2.6291      Z:     0.1939     Total:     2.6426


*** tstop() called on loro.prib.upf.edu at Sat Sep 29 16:37:29 2018
Module time:
	user time   =       2.67 seconds =       0.04 minutes
	system time =       0.08 seconds =       0.00 minutes
	total time  =          4 seconds =       0.07 minutes
Total time:
	user time   =       6.67 seconds =       0.11 minutes
	system time =       0.17 seconds =       0.00 minutes
	total time  =         11 seconds =       0.18 minutes

*** tstart() called on loro.prib.upf.edu
*** at Sat Sep 29 16:37:29 2018


         ------------------------------------------------------------
                                   SCF GRAD                          
                          Rob Parrish, Justin Turney,                
                       Andy Simmonett, and Alex Sokolov              
         ------------------------------------------------------------

  ==> Geometry <==

    Molecular point group: c1
    Full point group: C1

    Geometry (in Angstrom), charge = 0, multiplicity = 1:

       Center              X                  Y                   Z               Mass       
    ------------   -----------------  -----------------  -----------------  -----------------
         O            1.005144301892    -0.014428648762     0.024005390499    15.994914619560
         O            2.470167294227    -0.115278350978     0.035541287408    15.994914619560
         H            0.718562605568    -0.808702763883    -0.461760132020     1.007825032070
         H            2.649763798314    -0.861869236377     0.634959454112     1.007825032070

  Nuclear repulsion =   36.337282178251719

  ==> Basis Set <==

  Basis Set: CC-PVDZ
    Blend: CC-PVDZ
    Number of shells: 18
    Number of basis function: 38
    Number of Cartesian functions: 40
    Spherical Harmonics?: true
    Max angular momentum: 2

  ==> DFJKGrad: Density-Fitted SCF Gradients <==

    Gradient:                    1
    J tasked:                  Yes
    K tasked:                  Yes
    wK tasked:                  No
    OpenMP threads:              1
    Integrals threads:           1
    Memory (MB):              3570
    Schwarz Cutoff:          0E+00
    Fitting Condition:       1E-12

   => Auxiliary Basis Set <=

  Basis Set: (CC-PVDZ AUX)
    Blend: CC-PVDZ-JKFIT
    Number of shells: 66
    Number of basis function: 186
    Number of Cartesian functions: 212
    Spherical Harmonics?: true
    Max angular momentum: 3

  ==> DFT Potential <==

   => Composite Functional: B3LYP-D3ZERO <= 

    B3LYP-d3zero Hyb-GGA Exchange-Correlation Functional

    P. J. Stephens, F. J. Devlin, C. F. Chabalowski, and M. J. Frisch, J. Phys. Chem. 98, 11623 (1994)

    Deriv               =              1
    GGA                 =           TRUE
    Meta                =          FALSE

    Exchange Hybrid     =           TRUE
    MP2 Hybrid          =          FALSE

   => Exchange Functionals <=

    0.0800   Slater exchange
    0.7200         Becke 88

   => Exact (HF) Exchange <=

    0.2000               HF 

   => Correlation Functionals <=

    0.1900   Vosko, Wilk & Nusair (VWN5_RPA)
    0.8100   Lee, Yang & Parr

   => Molecular Quadrature <=

    Radial Scheme       =       TREUTLER
    Pruning Scheme      =           FLAT
    Nuclear Scheme      =       TREUTLER

    BS radius alpha     =              1
    Pruning alpha       =              1
    Radial Points       =             75
    Spherical Points    =            302
    Total Points        =          88316
    Total Blocks        =            709
    Max Points          =            256
    Max Functions       =             38


  -Total Gradient:
     Atom            X                  Y                   Z
    ------   -----------------  -----------------  -----------------
       1       -0.010587962108     0.000065032585    -0.009809078611
       2        0.010598568772     0.000038728879     0.009804561641
       3       -0.004183392246     0.000610538066     0.005006222677
       4        0.004173544184    -0.000703371484    -0.005002516053


*** tstop() called on loro.prib.upf.edu at Sat Sep 29 16:37:29 2018
Module time:
	user time   =       0.60 seconds =       0.01 minutes
	system time =       0.02 seconds =       0.00 minutes
	total time  =          0 seconds =       0.00 minutes
Total time:
	user time   =       7.28 seconds =       0.12 minutes
	system time =       0.19 seconds =       0.00 minutes
	total time  =         11 seconds =       0.18 minutes

			-----------------------------------------
			 OPTKING 2.0: for geometry optimizations 
			  - R.A. King,  Bethel University        
			-----------------------------------------
	At level 1: Red. Int., RFO, no backsteps, dynamic trust

	Previous internal coordinate definitions found.
	---Fragment 1 Geometry and Gradient---
	 O           1.8994474546       -0.0272661946        0.0453636138
	 O           4.6679396885       -0.2178445124        0.0671632996
	 H           1.3578865339       -1.5282267466       -0.8726001886
	 H           5.0073278956       -1.6286968191        1.1998994738
	            -0.0105879621        0.0000650326       -0.0098090786
	             0.0105985688        0.0000387289        0.0098045616
	            -0.0041833922        0.0006105381        0.0050062227
	             0.0041735442       -0.0007033715       -0.0050025161

	---Fragment 1 Intrafragment Coordinates---
	 - Coordinate -           - BOHR/RAD -       - ANG/DEG -
	 R(1,2)           =         2.775130	       1.468535
	 R(1,3)           =         1.840877	       0.974150
	 R(2,4)           =         1.840864	       0.974143
	 B(1,2,4)         =         1.814592	     103.968491
	 B(2,1,3)         =         1.814612	     103.969582
	*D(3,1,2,4)       =        -1.221731	     -70.000008

	Current energy   :      -151.5472134937

	Energy change for the previous step:
		Projected    :        -0.0077541978
		Actual       :        -0.0015067597
	Energy ratio indicates iffy step: Trust radius decreased to 1.250e-01.


	Performing BFGS update.
	Previous computed or guess Hessian on step 1.
	Steps to be used in Hessian update: 1
	Taking RFO optimization step.
	Going to follow RFO solution 1.
	Using RFO vector 1.
	Norm of target step-size    0.05348
	Projected energy change by RFO approximation:        -0.0015316490

	Back-transformation to cartesian coordinates...
	Successfully converged to displaced geometry.

	Back-transformation to cartesian coordinates to adjust frozen coordinates...
	Successfully converged to displaced geometry.

	--- Internal Coordinate Step in ANG or DEG, aJ/ANG or AJ/DEG ---
	 ---------------------------------------------------------------------------
	   Coordinate                Previous        Force       Change         New 
	   ----------                --------       ------       ------       ------
	    1 R(1,2)          =      1.468535    -0.122097    -0.013826     1.454709
	    2 R(1,3)          =      0.974150     0.014509     0.001176     0.975327
	    3 R(2,4)          =      0.974143     0.014560     0.001182     0.975325
	    4 B(1,2,4)        =    103.968491    -0.000664    -1.888524   102.079968
	    5 B(2,1,3)        =    103.969582    -0.000664    -1.889407   102.080175
	    6 *D(3,1,2,4)     =    -70.000008    -0.000000     0.000000   -70.000008
	 ---------------------------------------------------------------------------
	Successfully symmetrized geometry.

  ==> Convergence Check <==

  Measures of convergence in internal coordinates in au.
  Criteria marked as inactive (o), active & met (*), and active & unmet ( ).
  ---------------------------------------------------------------------------------------------
   Step     Total Energy     Delta E     MAX Force     RMS Force      MAX Disp      RMS Disp   
  ---------------------------------------------------------------------------------------------
    Convergence Criteria    1.00e-06 *    3.00e-04 *             o    1.20e-03 *             o
  ---------------------------------------------------------------------------------------------
      2    -151.54721349   -1.51e-03      1.48e-02      7.94e-03 o    3.30e-02      2.19e-02 o  ~
  ---------------------------------------------------------------------------------------------

	Writing optimization data to binary file.
	Structure for next step:
	Cartesian Geometry (in Angstrom)
	    O     1.0123225714  -0.0107068405   0.0343682260
	    O     2.4634573116  -0.1121614396   0.0246718717
	    H     0.7483210013  -0.8135373514  -0.4524873613
	    H     2.6195371156  -0.8638733684   0.6261932636
			--------------------------
			 OPTKING Finished Execution 
			--------------------------

    Structure for next step:
    Molecular point group: c1
    Full point group: C1

    Geometry (in Angstrom), charge = 0, multiplicity = 1:

    O            1.012322571416    -0.010706840548     0.034368225956
    O            2.463457311612    -0.112161439649     0.024671871710
    H            0.748321001339    -0.813537351397    -0.452487361256
    H            2.619537115633    -0.863873368406     0.626193263589

gradient() will perform analytic gradient computation.

*** tstart() called on loro.prib.upf.edu
*** at Sat Sep 29 16:37:30 2018

   => Loading Basis Set <=

    Name: CC-PVDZ
    Role: ORBITAL
    Keyword: BASIS
    atoms 1-2 entry O          line   198 file /shared/joao/test_parameterize/miniconda3/share/psi4/basis/cc-pvdz.gbs 
    atoms 3-4 entry H          line    22 file /shared/joao/test_parameterize/miniconda3/share/psi4/basis/cc-pvdz.gbs 


         ---------------------------------------------------------
                                   SCF
            by Justin Turney, Rob Parrish, Andy Simmonett
                             and Daniel Smith
                              RKS Reference
                        1 Threads,   5100 MiB Core
         ---------------------------------------------------------

  ==> Geometry <==

    Molecular point group: c1
    Full point group: C1

    Geometry (in Angstrom), charge = 0, multiplicity = 1:

       Center              X                  Y                   Z               Mass       
    ------------   -----------------  -----------------  -----------------  -----------------
         O            1.012322571416    -0.010706840548     0.034368225956    15.994914619560
         O            2.463457311612    -0.112161439649     0.024671871710    15.994914619560
         H            0.748321001339    -0.813537351397    -0.452487361256     1.007825032070
         H            2.619537115633    -0.863873368406     0.626193263589     1.007825032070

  Running in c1 symmetry.

  Rotational constants: A =      9.81686  B =      0.13814  C =      0.13747 [cm^-1]
  Rotational constants: A = 294301.93659  B =   4141.32601  C =   4121.11263 [MHz]
  Nuclear repulsion =   36.632047390102954

  Charge       = 0
  Multiplicity = 1
  Electrons    = 18
  Nalpha       = 9
  Nbeta        = 9

  ==> Algorithm <==

  SCF Algorithm Type is DF.
  DIIS enabled.
  MOM disabled.
  Fractional occupation disabled.
  Guess Type is READ.
  Energy threshold   = 1.00e-08
  Density threshold  = 1.00e-08
  Integral threshold = 0.00e+00

  ==> Primary Basis <==

  Basis Set: CC-PVDZ
    Blend: CC-PVDZ
    Number of shells: 18
    Number of basis function: 38
    Number of Cartesian functions: 40
    Spherical Harmonics?: true
    Max angular momentum: 2

  ==> DFT Potential <==

   => Composite Functional: B3LYP-D3ZERO <= 

    B3LYP-d3zero Hyb-GGA Exchange-Correlation Functional

    P. J. Stephens, F. J. Devlin, C. F. Chabalowski, and M. J. Frisch, J. Phys. Chem. 98, 11623 (1994)

    Deriv               =              1
    GGA                 =           TRUE
    Meta                =          FALSE

    Exchange Hybrid     =           TRUE
    MP2 Hybrid          =          FALSE

   => Exchange Functionals <=

    0.0800   Slater exchange
    0.7200         Becke 88

   => Exact (HF) Exchange <=

    0.2000               HF 

   => Correlation Functionals <=

    0.1900   Vosko, Wilk & Nusair (VWN5_RPA)
    0.8100   Lee, Yang & Parr

   => Molecular Quadrature <=

    Radial Scheme       =       TREUTLER
    Pruning Scheme      =           FLAT
    Nuclear Scheme      =       TREUTLER

    BS radius alpha     =              1
    Pruning alpha       =              1
    Radial Points       =             75
    Spherical Points    =            302
    Total Points        =          88316
    Total Blocks        =            707
    Max Points          =            256
    Max Functions       =             38

   => -D3ZERO: Empirical Dispersion <=

    Grimme's -D3 (zero-damping) Dispersion Correction
    Grimme S.; Antony J.; Ehrlich S.; Krieg H. (2010), J. Chem. Phys., 132: 154104

        S6 =   1.000000E+00
        S8 =   1.703000E+00
       SR6 =   1.261000E+00
       SR8 =   1.000000E+00
    ALPHA6 =   1.400000E+01

   => Loading Basis Set <=

    Name: (CC-PVDZ AUX)
    Role: JKFIT
    Keyword: DF_BASIS_SCF
    atoms 1-2 entry O          line   221 file /shared/joao/test_parameterize/miniconda3/share/psi4/basis/cc-pvdz-jkfit.gbs 
    atoms 3-4 entry H          line    51 file /shared/joao/test_parameterize/miniconda3/share/psi4/basis/cc-pvdz-jkfit.gbs 

  Reading orbitals from file 180, no projection.

  ==> Pre-Iterations <==

   -------------------------------------------------------
    Irrep   Nso     Nmo     Nalpha   Nbeta   Ndocc  Nsocc
   -------------------------------------------------------
     A         38      38       0       0       0       0
   -------------------------------------------------------
    Total      38      38       9       9       9       0
   -------------------------------------------------------

  ==> Integral Setup <==

  DFHelper Memory: AOs need 0.003 [GiB]; user supplied 3.486 [GiB]. Using in-core AOs.

  ==> MemDFJK: Density-Fitted J/K Matrices <==

    J tasked:                   Yes
    K tasked:                   Yes
    wK tasked:                   No
    OpenMP threads:               1
    Memory (MB):               3570
    Algorithm:                 Core
    Schwarz Cutoff:           1E-12
    Mask sparsity (%):       0.0000
    Fitting Condition:        1E-12

   => Auxiliary Basis Set <=

  Basis Set: (CC-PVDZ AUX)
    Blend: CC-PVDZ-JKFIT
    Number of shells: 66
    Number of basis function: 186
    Number of Cartesian functions: 212
    Spherical Harmonics?: true
    Max angular momentum: 3

  Minimum eigenvalue in the overlap matrix is 2.6105937011E-02.
  Using Symmetric Orthogonalization.

  SCF Guess: Orbitals guess was supplied from a previous computation.

  ==> Iterations <==

                           Total Energy        Delta E     RMS |[F,P]|

   @DF-RKS iter   0:  -151.55189344658066   -1.51552e+02   9.39448e-04 
   @DF-RKS iter   1:  -151.54772396176983    4.16948e-03   2.55477e-04 
   @DF-RKS iter   2:  -151.54774973219534   -2.57704e-05   1.26204e-04 DIIS
   @DF-RKS iter   3:  -151.54775757967602   -7.84748e-06   2.26775e-05 DIIS
   @DF-RKS iter   4:  -151.54775785762294   -2.77947e-07   5.79520e-06 DIIS
   @DF-RKS iter   5:  -151.54775788499265   -2.73697e-08   3.46642e-07 DIIS
   @DF-RKS iter   6:  -151.54775788502872   -3.60671e-11   3.90970e-07 DIIS
   @DF-RKS iter   7:  -151.54775788510648   -7.77618e-11   7.71859e-08 DIIS
   @DF-RKS iter   8:  -151.54775788510977   -3.29692e-12   3.51828e-09 DIIS

  ==> Post-Iterations <==

    Orbital Energies [Eh]
    ---------------------

    Doubly Occupied:                                                      

       1A    -19.190159     2A    -19.190122     3A     -1.109522  
       4A     -0.891026     5A     -0.545171     6A     -0.450607  
       7A     -0.416900     8A     -0.310650     9A     -0.273548  

    Virtual:                                                              

      10A      0.016656    11A      0.038769    12A      0.113343  
      13A      0.566936    14A      0.580720    15A      0.857759  
      16A      0.870308    17A      0.933943    18A      0.936277  
      19A      1.015923    20A      1.022900    21A      1.250287  
      22A      1.279619    23A      1.348008    24A      1.421128  
      25A      1.638575    26A      1.722439    27A      2.058554  
      28A      2.079419    29A      2.403337    30A      2.419260  
      31A      2.542287    32A      2.861909    33A      2.931169  
      34A      3.073781    35A      3.114187    36A      3.476328  
      37A      3.574813    38A      3.795984  

    Final Occupation by Irrep:
              A 
    DOCC [     9 ]

  Energy converged.

  @DF-RKS Final Energy:  -151.54775788510977

   => Energetics <=

    Nuclear Repulsion Energy =             36.6320473901029544
    One-Electron Energy =                -281.2226593736825748
    Two-Electron Energy =                 107.5010457740019518
    DFT Exchange-Correlation Energy =     -14.4578700755321226
    Empirical Dispersion Energy =          -0.0003216000000000
    VV10 Nonlocal Energy =                  0.0000000000000000
    Total Energy =                       -151.5477578851097746



Properties will be evaluated at   0.000000,   0.000000,   0.000000 [a0]

Properties computed using the SCF density matrix

  Nuclear Dipole Moment: [e a0]
     X:    58.9105      Y:    -5.0273      Z:     1.2208

  Electronic Dipole Moment: [e a0]
     X:   -58.9824      Y:     3.9917      Z:    -1.1444

  Dipole Moment: [e a0]
     X:    -0.0719      Y:    -1.0357      Z:     0.0764     Total:     1.0410

  Dipole Moment: [D]
     X:    -0.1827      Y:    -2.6324      Z:     0.1942     Total:     2.6459


*** tstop() called on loro.prib.upf.edu at Sat Sep 29 16:37:33 2018
Module time:
	user time   =       2.44 seconds =       0.04 minutes
	system time =       0.06 seconds =       0.00 minutes
	total time  =          3 seconds =       0.05 minutes
Total time:
	user time   =       9.73 seconds =       0.16 minutes
	system time =       0.25 seconds =       0.00 minutes
	total time  =         15 seconds =       0.25 minutes

*** tstart() called on loro.prib.upf.edu
*** at Sat Sep 29 16:37:33 2018


         ------------------------------------------------------------
                                   SCF GRAD                          
                          Rob Parrish, Justin Turney,                
                       Andy Simmonett, and Alex Sokolov              
         ------------------------------------------------------------

  ==> Geometry <==

    Molecular point group: c1
    Full point group: C1

    Geometry (in Angstrom), charge = 0, multiplicity = 1:

       Center              X                  Y                   Z               Mass       
    ------------   -----------------  -----------------  -----------------  -----------------
         O            1.012322571416    -0.010706840548     0.034368225956    15.994914619560
         O            2.463457311612    -0.112161439649     0.024671871710    15.994914619560
         H            0.748321001339    -0.813537351397    -0.452487361256     1.007825032070
         H            2.619537115633    -0.863873368406     0.626193263589     1.007825032070

  Nuclear repulsion =   36.632047390102954

  ==> Basis Set <==

  Basis Set: CC-PVDZ
    Blend: CC-PVDZ
    Number of shells: 18
    Number of basis function: 38
    Number of Cartesian functions: 40
    Spherical Harmonics?: true
    Max angular momentum: 2

  ==> DFJKGrad: Density-Fitted SCF Gradients <==

    Gradient:                    1
    J tasked:                  Yes
    K tasked:                  Yes
    wK tasked:                  No
    OpenMP threads:              1
    Integrals threads:           1
    Memory (MB):              3570
    Schwarz Cutoff:          0E+00
    Fitting Condition:       1E-12

   => Auxiliary Basis Set <=

  Basis Set: (CC-PVDZ AUX)
    Blend: CC-PVDZ-JKFIT
    Number of shells: 66
    Number of basis function: 186
    Number of Cartesian functions: 212
    Spherical Harmonics?: true
    Max angular momentum: 3

  ==> DFT Potential <==

   => Composite Functional: B3LYP-D3ZERO <= 

    B3LYP-d3zero Hyb-GGA Exchange-Correlation Functional

    P. J. Stephens, F. J. Devlin, C. F. Chabalowski, and M. J. Frisch, J. Phys. Chem. 98, 11623 (1994)

    Deriv               =              1
    GGA                 =           TRUE
    Meta                =          FALSE

    Exchange Hybrid     =           TRUE
    MP2 Hybrid          =          FALSE

   => Exchange Functionals <=

    0.0800   Slater exchange
    0.7200         Becke 88

   => Exact (HF) Exchange <=

    0.2000               HF 

   => Correlation Functionals <=

    0.1900   Vosko, Wilk & Nusair (VWN5_RPA)
    0.8100   Lee, Yang & Parr

   => Molecular Quadrature <=

    Radial Scheme       =       TREUTLER
    Pruning Scheme      =           FLAT
    Nuclear Scheme      =       TREUTLER

    BS radius alpha     =              1
    Pruning alpha       =              1
    Radial Points       =             75
    Spherical Points    =            302
    Total Points        =          88316
    Total Blocks        =            707
    Max Points          =            256
    Max Functions       =             38


  -Total Gradient:
     Atom            X                  Y                   Z
    ------   -----------------  -----------------  -----------------
       1       -0.003485802286     0.002482071732    -0.005157845021
       2        0.003846549585     0.002705454275     0.004775727416
       3       -0.000190227856    -0.002294649649     0.004059626361
       4       -0.000168669298    -0.002866238961    -0.003679474118


*** tstop() called on loro.prib.upf.edu at Sat Sep 29 16:37:34 2018
Module time:
	user time   =       0.68 seconds =       0.01 minutes
	system time =       0.01 seconds =       0.00 minutes
	total time  =          1 seconds =       0.02 minutes
Total time:
	user time   =      10.41 seconds =       0.17 minutes
	system time =       0.27 seconds =       0.00 minutes
	total time  =         16 seconds =       0.27 minutes

			-----------------------------------------
			 OPTKING 2.0: for geometry optimizations 
			  - R.A. King,  Bethel University        
			-----------------------------------------
	At level 1: Red. Int., RFO, no backsteps, dynamic trust

	Previous internal coordinate definitions found.
	---Fragment 1 Geometry and Gradient---
	 O           1.9130124181       -0.0202329964        0.0649465347
	 O           4.6552596590       -0.2119544036        0.0466230807
	 H           1.4141217520       -1.5373627930       -0.8550771914
	 H           4.9502077435       -1.6324840798        1.1833337744
	            -0.0034858023        0.0024820717       -0.0051578450
	             0.0038465496        0.0027054543        0.0047757274
	            -0.0001902279       -0.0022946496        0.0040596264
	            -0.0001686693       -0.0028662390       -0.0036794741

	---Fragment 1 Intrafragment Coordinates---
	 - Coordinate -           - BOHR/RAD -       - ANG/DEG -
	 R(1,2)           =         2.749002	       1.454709
	 R(1,3)           =         1.843100	       0.975327
	 R(2,4)           =         1.843098	       0.975325
	 B(1,2,4)         =         1.781632	     102.079968
	 B(2,1,3)         =         1.781635	     102.080175
	*D(3,1,2,4)       =        -1.221731	     -70.000008

	Current energy   :      -151.5477578851

	Energy change for the previous step:
		Projected    :        -0.0015316490
		Actual       :        -0.0005443914

	Performing BFGS update.
	Previous computed or guess Hessian on step 1.
	Steps to be used in Hessian update: 2 1
	Taking RFO optimization step.
	Going to follow RFO solution 1.
	Using RFO vector 1.
	Norm of target step-size    0.01093
	Projected energy change by RFO approximation:        -0.0000467484

	Back-transformation to cartesian coordinates...
	Successfully converged to displaced geometry.

	Back-transformation to cartesian coordinates to adjust frozen coordinates...
	Successfully converged to displaced geometry.

	--- Internal Coordinate Step in ANG or DEG, aJ/ANG or AJ/DEG ---
	 ---------------------------------------------------------------------------
	   Coordinate                Previous        Force       Change         New 
	   ----------                --------       ------       ------       ------
	    1 R(1,2)          =      1.454709    -0.030246    -0.005428     1.449281
	    2 R(1,3)          =      0.975327     0.000656     0.000047     0.975374
	    3 R(2,4)          =      0.975325     0.000665     0.000051     0.975376
	    4 B(1,2,4)        =    102.079968    -0.000010     0.152819   102.232787
	    5 B(2,1,3)        =    102.080175    -0.000010     0.152571   102.232746
	    6 *D(3,1,2,4)     =    -70.000008     0.000000    -0.000000   -70.000008
	 ---------------------------------------------------------------------------
	Successfully symmetrized geometry.

  ==> Convergence Check <==

  Measures of convergence in internal coordinates in au.
  Criteria marked as inactive (o), active & met (*), and active & unmet ( ).
  ---------------------------------------------------------------------------------------------
   Step     Total Energy     Delta E     MAX Force     RMS Force      MAX Disp      RMS Disp   
  ---------------------------------------------------------------------------------------------
    Convergence Criteria    1.00e-06 *    3.00e-04 *             o    1.20e-03 *             o
  ---------------------------------------------------------------------------------------------
      3    -151.54775789   -5.44e-04      3.67e-03      1.50e-03 o    1.03e-02      4.46e-03 o  ~
  ---------------------------------------------------------------------------------------------

	Writing optimization data to binary file.
	Structure for next step:
	Cartesian Geometry (in Angstrom)
	    O     1.0150136874  -0.0111050683   0.0342885959
	    O     2.4607355598  -0.1121702143   0.0247802573
	    H     0.7485581133  -0.8133345556  -0.4523151154
	    H     2.6193306395  -0.8636691617   0.6259922622
			--------------------------
			 OPTKING Finished Execution 
			--------------------------

    Structure for next step:
    Molecular point group: c1
    Full point group: C1

    Geometry (in Angstrom), charge = 0, multiplicity = 1:

    O            1.015013687439    -0.011105068334     0.034288595937
    O            2.460735559799    -0.112170214340     0.024780257310
    H            0.748558113256    -0.813334555581    -0.452315115424
    H            2.619330639507    -0.863669161745     0.625992262177

gradient() will perform analytic gradient computation.

*** tstart() called on loro.prib.upf.edu
*** at Sat Sep 29 16:37:34 2018

   => Loading Basis Set <=

    Name: CC-PVDZ
    Role: ORBITAL
    Keyword: BASIS
    atoms 1-2 entry O          line   198 file /shared/joao/test_parameterize/miniconda3/share/psi4/basis/cc-pvdz.gbs 
    atoms 3-4 entry H          line    22 file /shared/joao/test_parameterize/miniconda3/share/psi4/basis/cc-pvdz.gbs 


         ---------------------------------------------------------
                                   SCF
            by Justin Turney, Rob Parrish, Andy Simmonett
                             and Daniel Smith
                              RKS Reference
                        1 Threads,   5100 MiB Core
         ---------------------------------------------------------

  ==> Geometry <==

    Molecular point group: c1
    Full point group: C1

    Geometry (in Angstrom), charge = 0, multiplicity = 1:

       Center              X                  Y                   Z               Mass       
    ------------   -----------------  -----------------  -----------------  -----------------
         O            1.015013687439    -0.011105068334     0.034288595937    15.994914619560
         O            2.460735559799    -0.112170214340     0.024780257310    15.994914619560
         H            0.748558113256    -0.813334555581    -0.452315115424     1.007825032070
         H            2.619330639507    -0.863669161745     0.625992262177     1.007825032070

  Running in c1 symmetry.

  Rotational constants: A =      9.82739  B =      0.13828  C =      0.13761 [cm^-1]
  Rotational constants: A = 294617.63133  B =   4145.65856  C =   4125.42410 [MHz]
  Nuclear repulsion =   36.725222030336987

  Charge       = 0
  Multiplicity = 1
  Electrons    = 18
  Nalpha       = 9
  Nbeta        = 9

  ==> Algorithm <==

  SCF Algorithm Type is DF.
  DIIS enabled.
  MOM disabled.
  Fractional occupation disabled.
  Guess Type is READ.
  Energy threshold   = 1.00e-08
  Density threshold  = 1.00e-08
  Integral threshold = 0.00e+00

  ==> Primary Basis <==

  Basis Set: CC-PVDZ
    Blend: CC-PVDZ
    Number of shells: 18
    Number of basis function: 38
    Number of Cartesian functions: 40
    Spherical Harmonics?: true
    Max angular momentum: 2

  ==> DFT Potential <==

   => Composite Functional: B3LYP-D3ZERO <= 

    B3LYP-d3zero Hyb-GGA Exchange-Correlation Functional

    P. J. Stephens, F. J. Devlin, C. F. Chabalowski, and M. J. Frisch, J. Phys. Chem. 98, 11623 (1994)

    Deriv               =              1
    GGA                 =           TRUE
    Meta                =          FALSE

    Exchange Hybrid     =           TRUE
    MP2 Hybrid          =          FALSE

   => Exchange Functionals <=

    0.0800   Slater exchange
    0.7200         Becke 88

   => Exact (HF) Exchange <=

    0.2000               HF 

   => Correlation Functionals <=

    0.1900   Vosko, Wilk & Nusair (VWN5_RPA)
    0.8100   Lee, Yang & Parr

   => Molecular Quadrature <=

    Radial Scheme       =       TREUTLER
    Pruning Scheme      =           FLAT
    Nuclear Scheme      =       TREUTLER

    BS radius alpha     =              1
    Pruning alpha       =              1
    Radial Points       =             75
    Spherical Points    =            302
    Total Points        =          88314
    Total Blocks        =            706
    Max Points          =            256
    Max Functions       =             38

   => -D3ZERO: Empirical Dispersion <=

    Grimme's -D3 (zero-damping) Dispersion Correction
    Grimme S.; Antony J.; Ehrlich S.; Krieg H. (2010), J. Chem. Phys., 132: 154104

        S6 =   1.000000E+00
        S8 =   1.703000E+00
       SR6 =   1.261000E+00
       SR8 =   1.000000E+00
    ALPHA6 =   1.400000E+01

   => Loading Basis Set <=

    Name: (CC-PVDZ AUX)
    Role: JKFIT
    Keyword: DF_BASIS_SCF
    atoms 1-2 entry O          line   221 file /shared/joao/test_parameterize/miniconda3/share/psi4/basis/cc-pvdz-jkfit.gbs 
    atoms 3-4 entry H          line    51 file /shared/joao/test_parameterize/miniconda3/share/psi4/basis/cc-pvdz-jkfit.gbs 

  Reading orbitals from file 180, no projection.

  ==> Pre-Iterations <==

   -------------------------------------------------------
    Irrep   Nso     Nmo     Nalpha   Nbeta   Ndocc  Nsocc
   -------------------------------------------------------
     A         38      38       0       0       0       0
   -------------------------------------------------------
    Total      38      38       9       9       9       0
   -------------------------------------------------------

  ==> Integral Setup <==

  DFHelper Memory: AOs need 0.003 [GiB]; user supplied 3.486 [GiB]. Using in-core AOs.

  ==> MemDFJK: Density-Fitted J/K Matrices <==

    J tasked:                   Yes
    K tasked:                   Yes
    wK tasked:                   No
    OpenMP threads:               1
    Memory (MB):               3570
    Algorithm:                 Core
    Schwarz Cutoff:           1E-12
    Mask sparsity (%):       0.0000
    Fitting Condition:        1E-12

   => Auxiliary Basis Set <=

  Basis Set: (CC-PVDZ AUX)
    Blend: CC-PVDZ-JKFIT
    Number of shells: 66
    Number of basis function: 186
    Number of Cartesian functions: 212
    Spherical Harmonics?: true
    Max angular momentum: 3

  Minimum eigenvalue in the overlap matrix is 2.5831310758E-02.
  Using Symmetric Orthogonalization.

  SCF Guess: Orbitals guess was supplied from a previous computation.

  ==> Iterations <==

                           Total Energy        Delta E     RMS |[F,P]|

   @DF-RKS iter   0:  -151.55033370424488   -1.51550e+02   2.95549e-04 
   @DF-RKS iter   1:  -151.54777905176238    2.55465e-03   6.60471e-05 
   @DF-RKS iter   2:  -151.54778058982390   -1.53806e-06   3.35460e-05 DIIS
   @DF-RKS iter   3:  -151.54778111148227   -5.21658e-07   5.43226e-06 DIIS
   @DF-RKS iter   4:  -151.54778112706515   -1.55829e-08   6.22395e-07 DIIS
   @DF-RKS iter   5:  -151.54778112730745   -2.42295e-10   9.91136e-08 DIIS
   @DF-RKS iter   6:  -151.54778112730853   -1.08002e-12   9.32770e-08 DIIS
   @DF-RKS iter   7:  -151.54778112731304   -4.51905e-12   9.56136e-09 DIIS

  ==> Post-Iterations <==

    Orbital Energies [Eh]
    ---------------------

    Doubly Occupied:                                                      

       1A    -19.189788     2A    -19.189752     3A     -1.111524  
       4A     -0.890089     5A     -0.546526     6A     -0.450929  
       7A     -0.417420     8A     -0.310160     9A     -0.272809  

    Virtual:                                                              

      10A      0.019323    11A      0.038772    12A      0.114505  
      13A      0.566816    14A      0.580908    15A      0.857913  
      16A      0.871017    17A      0.933753    18A      0.935393  
      19A      1.016079    20A      1.022265    21A      1.250200  
      22A      1.279585    23A      1.348275    24A      1.421912  
      25A      1.640401    26A      1.723144    27A      2.059747  
      28A      2.079805    29A      2.407290    30A      2.416048  
      31A      2.539272    32A      2.860652    33A      2.931823  
      34A      3.079643    35A      3.119830    36A      3.477896  
      37A      3.574294    38A      3.800693  

    Final Occupation by Irrep:
              A 
    DOCC [     9 ]

  Energy converged.

  @DF-RKS Final Energy:  -151.54778112731304

   => Energetics <=

    Nuclear Repulsion Energy =             36.7252220303369867
    One-Electron Energy =                -281.4052170141587794
    Two-Electron Energy =                 107.5923291668324708
    DFT Exchange-Correlation Energy =     -14.4597963303237229
    Empirical Dispersion Energy =          -0.0003189800000000
    VV10 Nonlocal Energy =                  0.0000000000000000
    Total Energy =                       -151.5477811273130442



Properties will be evaluated at   0.000000,   0.000000,   0.000000 [a0]

Properties computed using the SCF density matrix

  Nuclear Dipole Moment: [e a0]
     X:    58.9101      Y:    -5.0327      Z:     1.2212

  Electronic Dipole Moment: [e a0]
     X:   -58.9820      Y:     3.9974      Z:    -1.1448

  Dipole Moment: [e a0]
     X:    -0.0719      Y:    -1.0353      Z:     0.0764     Total:     1.0406

  Dipole Moment: [D]
     X:    -0.1827      Y:    -2.6315      Z:     0.1941     Total:     2.6450


*** tstop() called on loro.prib.upf.edu at Sat Sep 29 16:37:37 2018
Module time:
	user time   =       1.90 seconds =       0.03 minutes
	system time =       0.05 seconds =       0.00 minutes
	total time  =          3 seconds =       0.05 minutes
Total time:
	user time   =      12.32 seconds =       0.21 minutes
	system time =       0.32 seconds =       0.01 minutes
	total time  =         19 seconds =       0.32 minutes

*** tstart() called on loro.prib.upf.edu
*** at Sat Sep 29 16:37:37 2018


         ------------------------------------------------------------
                                   SCF GRAD                          
                          Rob Parrish, Justin Turney,                
                       Andy Simmonett, and Alex Sokolov              
         ------------------------------------------------------------

  ==> Geometry <==

    Molecular point group: c1
    Full point group: C1

    Geometry (in Angstrom), charge = 0, multiplicity = 1:

       Center              X                  Y                   Z               Mass       
    ------------   -----------------  -----------------  -----------------  -----------------
         O            1.015013687439    -0.011105068334     0.034288595937    15.994914619560
         O            2.460735559799    -0.112170214340     0.024780257310    15.994914619560
         H            0.748558113256    -0.813334555581    -0.452315115424     1.007825032070
         H            2.619330639507    -0.863669161745     0.625992262177     1.007825032070

  Nuclear repulsion =   36.725222030336987

  ==> Basis Set <==

  Basis Set: CC-PVDZ
    Blend: CC-PVDZ
    Number of shells: 18
    Number of basis function: 38
    Number of Cartesian functions: 40
    Spherical Harmonics?: true
    Max angular momentum: 2

  ==> DFJKGrad: Density-Fitted SCF Gradients <==

    Gradient:                    1
    J tasked:                  Yes
    K tasked:                  Yes
    wK tasked:                  No
    OpenMP threads:              1
    Integrals threads:           1
    Memory (MB):              3570
    Schwarz Cutoff:          0E+00
    Fitting Condition:       1E-12

   => Auxiliary Basis Set <=

  Basis Set: (CC-PVDZ AUX)
    Blend: CC-PVDZ-JKFIT
    Number of shells: 66
    Number of basis function: 186
    Number of Cartesian functions: 212
    Spherical Harmonics?: true
    Max angular momentum: 3

  ==> DFT Potential <==

   => Composite Functional: B3LYP-D3ZERO <= 

    B3LYP-d3zero Hyb-GGA Exchange-Correlation Functional

    P. J. Stephens, F. J. Devlin, C. F. Chabalowski, and M. J. Frisch, J. Phys. Chem. 98, 11623 (1994)

    Deriv               =              1
    GGA                 =           TRUE
    Meta                =          FALSE

    Exchange Hybrid     =           TRUE
    MP2 Hybrid          =          FALSE

   => Exchange Functionals <=

    0.0800   Slater exchange
    0.7200         Becke 88

   => Exact (HF) Exchange <=

    0.2000               HF 

   => Correlation Functionals <=

    0.1900   Vosko, Wilk & Nusair (VWN5_RPA)
    0.8100   Lee, Yang & Parr

   => Molecular Quadrature <=

    Radial Scheme       =       TREUTLER
    Pruning Scheme      =           FLAT
    Nuclear Scheme      =       TREUTLER

    BS radius alpha     =              1
    Pruning alpha       =              1
    Radial Points       =             75
    Spherical Points    =            302
    Total Points        =          88314
    Total Blocks        =            706
    Max Points          =            256
    Max Functions       =             38


  -Total Gradient:
     Atom            X                  Y                   Z
    ------   -----------------  -----------------  -----------------
       1       -0.000773900867     0.002358032622    -0.005158814576
       2        0.001142447423     0.002958839982     0.004765317112
       3       -0.000171493632    -0.002361486292     0.004046782859
       4       -0.000195278322    -0.002929819190    -0.003655169739


*** tstop() called on loro.prib.upf.edu at Sat Sep 29 16:37:37 2018
Module time:
	user time   =       0.70 seconds =       0.01 minutes
	system time =       0.02 seconds =       0.00 minutes
	total time  =          0 seconds =       0.00 minutes
Total time:
	user time   =      13.02 seconds =       0.22 minutes
	system time =       0.35 seconds =       0.01 minutes
	total time  =         19 seconds =       0.32 minutes

			-----------------------------------------
			 OPTKING 2.0: for geometry optimizations 
			  - R.A. King,  Bethel University        
			-----------------------------------------
	At level 1: Red. Int., RFO, no backsteps, dynamic trust

	Previous internal coordinate definitions found.
	---Fragment 1 Geometry and Gradient---
	 O           1.9180978904       -0.0209855378        0.0647960558
	 O           4.6501162935       -0.2119709854        0.0468278998
	 H           1.4145698286       -1.5369795645       -0.8547516939
	 H           4.9498175601       -1.6320981851        1.1829539368
	            -0.0007739009        0.0023580326       -0.0051588146
	             0.0011424474        0.0029588400        0.0047653171
	            -0.0001714936       -0.0023614863        0.0040467829
	            -0.0001952783       -0.0029298192       -0.0036551697

	---Fragment 1 Intrafragment Coordinates---
	 - Coordinate -           - BOHR/RAD -       - ANG/DEG -
	 R(1,2)           =         2.738745	       1.449281
	 R(1,3)           =         1.843189	       0.975374
	 R(2,4)           =         1.843194	       0.975376
	 B(1,2,4)         =         1.784299	     102.232787
	 B(2,1,3)         =         1.784298	     102.232746
	*D(3,1,2,4)       =        -1.221731	     -70.000008

	Current energy   :      -151.5477811273

	Energy change for the previous step:
		Projected    :        -0.0000467484
		Actual       :        -0.0000232422

	Performing BFGS update.
	Previous computed or guess Hessian on step 1.
	Steps to be used in Hessian update: 3 2
	Taking RFO optimization step.
	Going to follow RFO solution 1.
	Using RFO vector 1.
	Norm of target step-size    0.00362
	Projected energy change by RFO approximation:        -0.0000039120

	Back-transformation to cartesian coordinates...
	Successfully converged to displaced geometry.

	Back-transformation to cartesian coordinates to adjust frozen coordinates...
	Successfully converged to displaced geometry.

	--- Internal Coordinate Step in ANG or DEG, aJ/ANG or AJ/DEG ---
	 ---------------------------------------------------------------------------
	   Coordinate                Previous        Force       Change         New 
	   ----------                --------       ------       ------       ------
	    1 R(1,2)          =      1.449281    -0.007696    -0.001858     1.447423
	    2 R(1,3)          =      0.975374     0.000194     0.000018     0.975391
	    3 R(2,4)          =      0.975376     0.000175     0.000016     0.975392
	    4 B(1,2,4)        =    102.232787    -0.000005     0.035051   102.267838
	    5 B(2,1,3)        =    102.232746    -0.000005     0.035093   102.267840
	    6 *D(3,1,2,4)     =    -70.000008     0.000000     0.000000   -70.000008
	 ---------------------------------------------------------------------------
	Successfully symmetrized geometry.

  ==> Convergence Check <==

  Measures of convergence in internal coordinates in au.
  Criteria marked as inactive (o), active & met (*), and active & unmet ( ).
  ---------------------------------------------------------------------------------------------
   Step     Total Energy     Delta E     MAX Force     RMS Force      MAX Disp      RMS Disp   
  ---------------------------------------------------------------------------------------------
    Convergence Criteria    1.00e-06 *    3.00e-04 *             o    1.20e-03 *             o
  ---------------------------------------------------------------------------------------------
      4    -151.54778113   -2.32e-05      9.34e-04      3.84e-04 o    3.51e-03      1.48e-03 o  ~
  ---------------------------------------------------------------------------------------------

	Writing optimization data to binary file.
	Structure for next step:
	Cartesian Geometry (in Angstrom)
	    O     1.0159384010  -0.0112106577   0.0343408158
	    O     2.4598053935  -0.1121545851   0.0247353356
	    H     0.7488622741  -0.8133012797  -0.4521872243
	    H     2.6190319313  -0.8636124775   0.6258570729
			--------------------------
			 OPTKING Finished Execution 
			--------------------------

    Structure for next step:
    Molecular point group: c1
    Full point group: C1

    Geometry (in Angstrom), charge = 0, multiplicity = 1:

    O            1.015938401019    -0.011210657669     0.034340815811
    O            2.459805393534    -0.112154585143     0.024735335580
    H            0.748862274121    -0.813301279705    -0.452187224281
    H            2.619031931325    -0.863612477483     0.625857072890

gradient() will perform analytic gradient computation.

*** tstart() called on loro.prib.upf.edu
*** at Sat Sep 29 16:37:38 2018

   => Loading Basis Set <=

    Name: CC-PVDZ
    Role: ORBITAL
    Keyword: BASIS
    atoms 1-2 entry O          line   198 file /shared/joao/test_parameterize/miniconda3/share/psi4/basis/cc-pvdz.gbs 
    atoms 3-4 entry H          line    22 file /shared/joao/test_parameterize/miniconda3/share/psi4/basis/cc-pvdz.gbs 


         ---------------------------------------------------------
                                   SCF
            by Justin Turney, Rob Parrish, Andy Simmonett
                             and Daniel Smith
                              RKS Reference
                        1 Threads,   5100 MiB Core
         ---------------------------------------------------------

  ==> Geometry <==

    Molecular point group: c1
    Full point group: C1

    Geometry (in Angstrom), charge = 0, multiplicity = 1:

       Center              X                  Y                   Z               Mass       
    ------------   -----------------  -----------------  -----------------  -----------------
         O            1.015938401019    -0.011210657669     0.034340815811    15.994914619560
         O            2.459805393534    -0.112154585143     0.024735335580    15.994914619560
         H            0.748862274121    -0.813301279705    -0.452187224281     1.007825032070
         H            2.619031931325    -0.863612477483     0.625857072890     1.007825032070

  Running in c1 symmetry.

  Rotational constants: A =      9.83023  B =      0.13833  C =      0.13766 [cm^-1]
  Rotational constants: A = 294702.78225  B =   4147.17074  C =   4126.92324 [MHz]
  Nuclear repulsion =   36.757831013550565

  Charge       = 0
  Multiplicity = 1
  Electrons    = 18
  Nalpha       = 9
  Nbeta        = 9

  ==> Algorithm <==

  SCF Algorithm Type is DF.
  DIIS enabled.
  MOM disabled.
  Fractional occupation disabled.
  Guess Type is READ.
  Energy threshold   = 1.00e-08
  Density threshold  = 1.00e-08
  Integral threshold = 0.00e+00

  ==> Primary Basis <==

  Basis Set: CC-PVDZ
    Blend: CC-PVDZ
    Number of shells: 18
    Number of basis function: 38
    Number of Cartesian functions: 40
    Spherical Harmonics?: true
    Max angular momentum: 2

  ==> DFT Potential <==

   => Composite Functional: B3LYP-D3ZERO <= 

    B3LYP-d3zero Hyb-GGA Exchange-Correlation Functional

    P. J. Stephens, F. J. Devlin, C. F. Chabalowski, and M. J. Frisch, J. Phys. Chem. 98, 11623 (1994)

    Deriv               =              1
    GGA                 =           TRUE
    Meta                =          FALSE

    Exchange Hybrid     =           TRUE
    MP2 Hybrid          =          FALSE

   => Exchange Functionals <=

    0.0800   Slater exchange
    0.7200         Becke 88

   => Exact (HF) Exchange <=

    0.2000               HF 

   => Correlation Functionals <=

    0.1900   Vosko, Wilk & Nusair (VWN5_RPA)
    0.8100   Lee, Yang & Parr

   => Molecular Quadrature <=

    Radial Scheme       =       TREUTLER
    Pruning Scheme      =           FLAT
    Nuclear Scheme      =       TREUTLER

    BS radius alpha     =              1
    Pruning alpha       =              1
    Radial Points       =             75
    Spherical Points    =            302
    Total Points        =          88314
    Total Blocks        =            708
    Max Points          =            256
    Max Functions       =             38

   => -D3ZERO: Empirical Dispersion <=

    Grimme's -D3 (zero-damping) Dispersion Correction
    Grimme S.; Antony J.; Ehrlich S.; Krieg H. (2010), J. Chem. Phys., 132: 154104

        S6 =   1.000000E+00
        S8 =   1.703000E+00
       SR6 =   1.261000E+00
       SR8 =   1.000000E+00
    ALPHA6 =   1.400000E+01

   => Loading Basis Set <=

    Name: (CC-PVDZ AUX)
    Role: JKFIT
    Keyword: DF_BASIS_SCF
    atoms 1-2 entry O          line   221 file /shared/joao/test_parameterize/miniconda3/share/psi4/basis/cc-pvdz-jkfit.gbs 
    atoms 3-4 entry H          line    51 file /shared/joao/test_parameterize/miniconda3/share/psi4/basis/cc-pvdz-jkfit.gbs 

  Reading orbitals from file 180, no projection.

  ==> Pre-Iterations <==

   -------------------------------------------------------
    Irrep   Nso     Nmo     Nalpha   Nbeta   Ndocc  Nsocc
   -------------------------------------------------------
     A         38      38       0       0       0       0
   -------------------------------------------------------
    Total      38      38       9       9       9       0
   -------------------------------------------------------

  ==> Integral Setup <==

  DFHelper Memory: AOs need 0.003 [GiB]; user supplied 3.486 [GiB]. Using in-core AOs.

  ==> MemDFJK: Density-Fitted J/K Matrices <==

    J tasked:                   Yes
    K tasked:                   Yes
    wK tasked:                   No
    OpenMP threads:               1
    Memory (MB):               3570
    Algorithm:                 Core
    Schwarz Cutoff:           1E-12
    Mask sparsity (%):       0.0000
    Fitting Condition:        1E-12

   => Auxiliary Basis Set <=

  Basis Set: (CC-PVDZ AUX)
    Blend: CC-PVDZ-JKFIT
    Number of shells: 66
    Number of basis function: 186
    Number of Cartesian functions: 212
    Spherical Harmonics?: true
    Max angular momentum: 3

  Minimum eigenvalue in the overlap matrix is 2.5736110336E-02.
  Using Symmetric Orthogonalization.

  SCF Guess: Orbitals guess was supplied from a previous computation.

  ==> Iterations <==

                           Total Energy        Delta E     RMS |[F,P]|

   @DF-RKS iter   0:  -151.54865462082074   -1.51549e+02   1.00505e-04 
   @DF-RKS iter   1:  -151.54778241527026    8.72206e-04   2.32309e-05 
   @DF-RKS iter   2:  -151.54778260394008   -1.88670e-07   1.18046e-05 DIIS
   @DF-RKS iter   3:  -151.54778266869494   -6.47549e-08   1.92064e-06 DIIS
   @DF-RKS iter   4:  -151.54778267064452   -1.94959e-09   1.89441e-07 DIIS
   @DF-RKS iter   5:  -151.54778267066621   -2.16858e-11   4.04074e-08 DIIS
   @DF-RKS iter   6:  -151.54778267066627   -5.68434e-14   3.80535e-08 DIIS
   @DF-RKS iter   7:  -151.54778267066715   -8.81073e-13   2.50980e-09 DIIS

  ==> Post-Iterations <==

    Orbital Energies [Eh]
    ---------------------

    Doubly Occupied:                                                      

       1A    -19.189664     2A    -19.189627     3A     -1.112238  
       4A     -0.889756     5A     -0.546969     6A     -0.451068  
       7A     -0.417620     8A     -0.309993     9A     -0.272560  

    Virtual:                                                              

      10A      0.020249    11A      0.038761    12A      0.114912  
      13A      0.566802    14A      0.580964    15A      0.857958  
      16A      0.871263    17A      0.933614    18A      0.935050  
      19A      1.016128    20A      1.022084    21A      1.250111  
      22A      1.279647    23A      1.348251    24A      1.422169  
      25A      1.641082    26A      1.723324    27A      2.060149  
      28A      2.079945    29A      2.408698    30A      2.414978  
      31A      2.538311    32A      2.860233    33A      2.932060  
      34A      3.081669    35A      3.121740    36A      3.478314  
      37A      3.574129    38A      3.802373  

    Final Occupation by Irrep:
              A 
    DOCC [     9 ]

  Energy converged.

  @DF-RKS Final Energy:  -151.54778267066715

   => Energetics <=

    Nuclear Repulsion Energy =             36.7578310135505646
    One-Electron Energy =                -281.4689977791338151
    Two-Electron Energy =                 107.6241744422726612
    DFT Exchange-Correlation Energy =     -14.4604725773565654
    Empirical Dispersion Energy =          -0.0003177700000000
    VV10 Nonlocal Energy =                  0.0000000000000000
    Total Energy =                       -151.5477826706671749



Properties will be evaluated at   0.000000,   0.000000,   0.000000 [a0]

Properties computed using the SCF density matrix

  Nuclear Dipole Moment: [e a0]
     X:    58.9100      Y:    -5.0339      Z:     1.2213

  Electronic Dipole Moment: [e a0]
     X:   -58.9819      Y:     3.9987      Z:    -1.1449

  Dipole Moment: [e a0]
     X:    -0.0719      Y:    -1.0352      Z:     0.0764     Total:     1.0405

  Dipole Moment: [D]
     X:    -0.1827      Y:    -2.6312      Z:     0.1941     Total:     2.6447


*** tstop() called on loro.prib.upf.edu at Sat Sep 29 16:37:40 2018
Module time:
	user time   =       2.21 seconds =       0.04 minutes
	system time =       0.06 seconds =       0.00 minutes
	total time  =          2 seconds =       0.03 minutes
Total time:
	user time   =      15.25 seconds =       0.25 minutes
	system time =       0.41 seconds =       0.01 minutes
	total time  =         22 seconds =       0.37 minutes

*** tstart() called on loro.prib.upf.edu
*** at Sat Sep 29 16:37:40 2018


         ------------------------------------------------------------
                                   SCF GRAD                          
                          Rob Parrish, Justin Turney,                
                       Andy Simmonett, and Alex Sokolov              
         ------------------------------------------------------------

  ==> Geometry <==

    Molecular point group: c1
    Full point group: C1

    Geometry (in Angstrom), charge = 0, multiplicity = 1:

       Center              X                  Y                   Z               Mass       
    ------------   -----------------  -----------------  -----------------  -----------------
         O            1.015938401019    -0.011210657669     0.034340815811    15.994914619560
         O            2.459805393534    -0.112154585143     0.024735335580    15.994914619560
         H            0.748862274121    -0.813301279705    -0.452187224281     1.007825032070
         H            2.619031931325    -0.863612477483     0.625857072890     1.007825032070

  Nuclear repulsion =   36.757831013550565

  ==> Basis Set <==

  Basis Set: CC-PVDZ
    Blend: CC-PVDZ
    Number of shells: 18
    Number of basis function: 38
    Number of Cartesian functions: 40
    Spherical Harmonics?: true
    Max angular momentum: 2

  ==> DFJKGrad: Density-Fitted SCF Gradients <==

    Gradient:                    1
    J tasked:                  Yes
    K tasked:                  Yes
    wK tasked:                  No
    OpenMP threads:              1
    Integrals threads:           1
    Memory (MB):              3570
    Schwarz Cutoff:          0E+00
    Fitting Condition:       1E-12

   => Auxiliary Basis Set <=

  Basis Set: (CC-PVDZ AUX)
    Blend: CC-PVDZ-JKFIT
    Number of shells: 66
    Number of basis function: 186
    Number of Cartesian functions: 212
    Spherical Harmonics?: true
    Max angular momentum: 3

  ==> DFT Potential <==

   => Composite Functional: B3LYP-D3ZERO <= 

    B3LYP-d3zero Hyb-GGA Exchange-Correlation Functional

    P. J. Stephens, F. J. Devlin, C. F. Chabalowski, and M. J. Frisch, J. Phys. Chem. 98, 11623 (1994)

    Deriv               =              1
    GGA                 =           TRUE
    Meta                =          FALSE

    Exchange Hybrid     =           TRUE
    MP2 Hybrid          =          FALSE

   => Exchange Functionals <=

    0.0800   Slater exchange
    0.7200         Becke 88

   => Exact (HF) Exchange <=

    0.2000               HF 

   => Correlation Functionals <=

    0.1900   Vosko, Wilk & Nusair (VWN5_RPA)
    0.8100   Lee, Yang & Parr

   => Molecular Quadrature <=

    Radial Scheme       =       TREUTLER
    Pruning Scheme      =           FLAT
    Nuclear Scheme      =       TREUTLER

    BS radius alpha     =              1
    Pruning alpha       =              1
    Radial Points       =             75
    Spherical Points    =            302
    Total Points        =          88314
    Total Blocks        =            708
    Max Points          =            256
    Max Functions       =             38


  -Total Gradient:
     Atom            X                  Y                   Z
    ------   -----------------  -----------------  -----------------
       1        0.000178155883     0.002328587793    -0.005126936150
       2        0.000195487008     0.003054752431     0.004729626709
       3       -0.000131287943    -0.002399343215     0.004038725028
       4       -0.000240599687    -0.002958712652    -0.003643280359


*** tstop() called on loro.prib.upf.edu at Sat Sep 29 16:37:41 2018
Module time:
	user time   =       0.67 seconds =       0.01 minutes
	system time =       0.03 seconds =       0.00 minutes
	total time  =          1 seconds =       0.02 minutes
Total time:
	user time   =      15.93 seconds =       0.27 minutes
	system time =       0.44 seconds =       0.01 minutes
	total time  =         23 seconds =       0.38 minutes

			-----------------------------------------
			 OPTKING 2.0: for geometry optimizations 
			  - R.A. King,  Bethel University        
			-----------------------------------------
	At level 1: Red. Int., RFO, no backsteps, dynamic trust

	Previous internal coordinate definitions found.
	---Fragment 1 Geometry and Gradient---
	 O           1.9198453458       -0.0211850728        0.0648947371
	 O           4.6483585340       -0.2119414505        0.0467430101
	 H           1.4151446093       -1.5369166822       -0.8545100147
	 H           4.9492530835       -1.6319910674        1.1826984661
	             0.0001781559        0.0023285878       -0.0051269361
	             0.0001954870        0.0030547524        0.0047296267
	            -0.0001312879       -0.0023993432        0.0040387250
	            -0.0002405997       -0.0029587127       -0.0036432804

	---Fragment 1 Intrafragment Coordinates---
	 - Coordinate -           - BOHR/RAD -       - ANG/DEG -
	 R(1,2)           =         2.735233	       1.447423
	 R(1,3)           =         1.843223	       0.975391
	 R(2,4)           =         1.843224	       0.975392
	 B(1,2,4)         =         1.784910	     102.267838
	 B(2,1,3)         =         1.784911	     102.267840
	*D(3,1,2,4)       =        -1.221731	     -70.000008

	Current energy   :      -151.5477826707

	Energy change for the previous step:
		Projected    :        -0.0000039120
		Actual       :        -0.0000015434

	Performing BFGS update.
	Previous computed or guess Hessian on step 1.
	Steps to be used in Hessian update: 4 3
	Taking RFO optimization step.
	Going to follow RFO solution 1.
	Using RFO vector 1.
	Norm of target step-size    0.00019
	Projected energy change by RFO approximation:        -0.0000000087

	Back-transformation to cartesian coordinates...
	Successfully converged to displaced geometry.

	Back-transformation to cartesian coordinates to adjust frozen coordinates...
	Successfully converged to displaced geometry.

	--- Internal Coordinate Step in ANG or DEG, aJ/ANG or AJ/DEG ---
	 ---------------------------------------------------------------------------
	   Coordinate                Previous        Force       Change         New 
	   ----------                --------       ------       ------       ------
	    1 R(1,2)          =      1.447423     0.000497     0.000096     1.447520
	    2 R(1,3)          =      0.975391    -0.000005     0.000001     0.975392
	    3 R(2,4)          =      0.975392    -0.000008     0.000000     0.975392
	    4 B(1,2,4)        =    102.267838     0.000002     0.002483   102.270322
	    5 B(2,1,3)        =    102.267840     0.000002     0.002477   102.270316
	    6 *D(3,1,2,4)     =    -70.000008     0.000000     0.000000   -70.000008
	 ---------------------------------------------------------------------------
	Successfully symmetrized geometry.

  ==> Convergence Check <==

  Measures of convergence in internal coordinates in au.
  Criteria marked as inactive (o), active & met (*), and active & unmet ( ).
  ---------------------------------------------------------------------------------------------
   Step     Total Energy     Delta E     MAX Force     RMS Force      MAX Disp      RMS Disp   
  ---------------------------------------------------------------------------------------------
    Convergence Criteria    1.00e-06 *    3.00e-04 *             o    1.20e-03 *             o
  ---------------------------------------------------------------------------------------------
      5    -151.54778267   -1.54e-06      6.03e-05 *    2.74e-05 o    1.82e-04 *    7.85e-05 o  ~
  ---------------------------------------------------------------------------------------------


  **** Optimization is complete! (in 5 steps) ****

  ==> Optimization Summary <==

  Measures of convergence in internal coordinates in au.
  --------------------------------------------------------------------------------------------------------------- ~
   Step         Total Energy             Delta E       MAX Force       RMS Force        MAX Disp        RMS Disp  ~
  --------------------------------------------------------------------------------------------------------------- ~
      1    -151.545706734029   -151.545706734029      0.02152451      0.01327388      0.12913856      0.07550369  ~
      2    -151.547213493745     -0.001506759716      0.01481989      0.00793868      0.03297638      0.02185729  ~
      3    -151.547757885110     -0.000544391364      0.00367124      0.00150152      0.01025738      0.00446161  ~
      4    -151.547781127313     -0.000023242203      0.00093412      0.00038364      0.00351137      0.00147654  ~
      5    -151.547782670667     -0.000001543354      0.00006030      0.00002742      0.00018225      0.00007849  ~
  --------------------------------------------------------------------------------------------------------------- ~

	Writing optimization data to binary file.
	Final energy is   -151.5477826706671
	Final (previous) structure:
	Cartesian Geometry (in Angstrom)
	    O     1.0159384010  -0.0112106577   0.0343408158
	    O     2.4598053935  -0.1121545851   0.0247353356
	    H     0.7488622741  -0.8133012797  -0.4521872243
	    H     2.6190319313  -0.8636124775   0.6258570729
	Saving final (previous) structure.
	Removing binary optimization data file.
			--------------------------
			 OPTKING Finished Execution 
			--------------------------

    Final optimized geometry and variables:
    Molecular point group: c1
    Full point group: C1

    Geometry (in Angstrom), charge = 0, multiplicity = 1:

    O            1.015938401019    -0.011210657669     0.034340815811
    O            2.459805393534    -0.112154585143     0.024735335580
    H            0.748862274121    -0.813301279705    -0.452187224281
    H            2.619031931325    -0.863612477483     0.625857072890

	Removing binary optimization data file.
	Cleaning optimization helper files.


Properties will be evaluated at   0.000000,   0.000000,   0.000000 [a0]
OEProp: No title given, name of density matrix used for the following properties is 'SCF density'
  Nuclear Dipole Moment: [e a0]
     X:    58.9100      Y:    -5.0339      Z:     1.2213

  Electronic Dipole Moment: [e a0]
     X:   -58.9819      Y:     3.9987      Z:    -1.1449

  Dipole Moment: [e a0]
     X:    -0.0719      Y:    -1.0352      Z:     0.0764     Total:     1.0405

  Dipole Moment: [D]
     X:    -0.1827      Y:    -2.6312      Z:     0.1941     Total:     2.6447

  Quadrupole Moment: [D A]
    XX:   -11.3593     YY:    -9.2281     ZZ:   -10.9405
    XY:    -4.3340     XZ:     2.2803     YZ:    -0.3306

  Traceless Quadrupole Moment: [D A]
    XX:    -0.8500     YY:     1.2812     ZZ:    -0.4312
    XY:    -4.3340     XZ:     2.2803     YZ:    -0.3306

  Mulliken Charges: (a.u.)
   Center  Symbol    Alpha    Beta     Spin     Total
       1     O     4.08520  4.08520  0.00000 -0.17040
       2     O     4.08520  4.08520  0.00000 -0.17040
       3     H     0.41480  0.41480  0.00000  0.17040
       4     H     0.41480  0.41480  0.00000  0.17040

   Total alpha =  9.00000, Total beta =  9.00000, Total charge =  0.00000


    Psi4 stopped on: Saturday, 29 September 2018 04:37PM
    Psi4 wall time for execution: 0:00:22.84

*** Psi4 exiting successfully. Buy a developer a beer!
