
    -----------------------------------------------------------------------
          Psi4: An Open-Source Ab Initio Electronic Structure Package
                               Psi4 1.2.1 release

                         Git: Rev {HEAD} 406f4de 


    R. M. Parrish, L. A. Burns, D. G. A. Smith, A. C. Simmonett,
    A. E. DePrince III, E. G. Hohenstein, U. Bozkaya, A. Yu. Sokolov,
    R. Di Remigio, R. M. Richard, J. F. Gonthier, A. M. James,
    H. R. McAlexander, A. Kumar, M. Saitow, X. Wang, B. P. Pritchard,
    P. Verma, H. F. Schaefer III, K. Patkowski, R. A. King, E. F. Valeev,
    F. A. Evangelista, J. M. Turney, T. D. Crawford, and C. D. Sherrill,
    J. Chem. Theory Comput. 13(7) pp 3185--3197 (2017).
    (doi: 10.1021/acs.jctc.7b00174)


                         Additional Contributions by
    P. Kraus, H. Kruse, M. H. Lechner, M. C. Schieber, and R. A. Shaw

    -----------------------------------------------------------------------


    Psi4 started on: Saturday, 29 September 2018 08:39PM

    Process ID: 27184
    Host:       oliva.prib.upf.edu
    PSIDATADIR: /shared/joao/test_parameterize/miniconda3/share/psi4
    Memory:     500.0 MiB
    Threads:    1
    
  ==> Input File <==

--------------------------------------------------------------------------
set_num_threads(4)
set_memory('3000 MB')

set { scf_mem_safety_factor 0.7 }

set { reference rks }
set { basis 6-31G* }

molecule MOL {
    1 1
    noreorient
    nocom
    symmetry c1
    C   -0.000000  -0.000000  -0.177864
    C    0.036678   1.219374   0.524165
    C    0.031765   1.213120   1.915444
    C    0.000000   0.000000   2.610107
    C   -0.031765  -1.213120   1.915444
    C   -0.036678  -1.219375   0.524165
    C   -0.000000   0.000000  -1.644734
    H    0.018170   2.164705  -0.010854
    H    0.042402   2.152895   2.457886
    H    0.000000   0.000000   3.695756
    H   -0.042402  -2.152895   2.457886
    H   -0.018170  -2.164705  -0.010853
    N   -0.034654  -1.152097  -2.308461
    N    0.034654   1.152098  -2.308460
    H   -0.056579   1.209666  -3.315997
    H    0.224422   2.013552  -1.813316
    H   -0.224422  -2.013552  -1.813317
    H    0.056579  -1.209665  -3.315997
}

set optking { frozen_dihedral = (" 2 1 7 13 ") }

set optking { dynamic_level = 1 
 geom_maxiter = 250
 print_trajectory_xyz_file = True }

energy, wfn = optimize('B3LYP-D3', return_wfn=True)

import os
os.chdir(os.environ['HTMD_PSI4_WORKDIR'])

oeprop(wfn, 'DIPOLE', 'QUADRUPOLE', 'MULLIKEN_CHARGES')

with open('psi4out.xyz', 'w') as f:
    f.write('18 ' )
    f.write('%.12f\n' % energy)
    f.write(MOL.save_string_xyz())
--------------------------------------------------------------------------
  Threads set to 4 by Python driver.

  Memory set to   2.794 GiB by Python driver.
gradient() will perform analytic gradient computation.

*** tstart() called on oliva.prib.upf.edu
*** at Sat Sep 29 20:39:06 2018

   => Loading Basis Set <=

    Name: 6-31G*
    Role: ORBITAL
    Keyword: BASIS
    atoms 1-7         entry C          line   111 file /shared/joao/test_parameterize/miniconda3/share/psi4/basis/6-31gs.gbs 
    atoms 8-12, 15-18 entry H          line    44 file /shared/joao/test_parameterize/miniconda3/share/psi4/basis/6-31gs.gbs 
    atoms 13-14       entry N          line   128 file /shared/joao/test_parameterize/miniconda3/share/psi4/basis/6-31gs.gbs 


         ---------------------------------------------------------
                                   SCF
            by Justin Turney, Rob Parrish, Andy Simmonett
                             and Daniel Smith
                              RKS Reference
                        4 Threads,   2861 MiB Core
         ---------------------------------------------------------

  ==> Geometry <==

    Molecular point group: c1
    Full point group: C1

    Geometry (in Angstrom), charge = 1, multiplicity = 1:

       Center              X                  Y                   Z               Mass       
    ------------   -----------------  -----------------  -----------------  -----------------
         C            0.000000000000     0.000000000000    -0.177864000000    12.000000000000
         C            0.036678000000     1.219374000000     0.524165000000    12.000000000000
         C            0.031765000000     1.213120000000     1.915444000000    12.000000000000
         C            0.000000000000     0.000000000000     2.610107000000    12.000000000000
         C           -0.031765000000    -1.213120000000     1.915444000000    12.000000000000
         C           -0.036678000000    -1.219375000000     0.524165000000    12.000000000000
         C            0.000000000000     0.000000000000    -1.644734000000    12.000000000000
         H            0.018170000000     2.164705000000    -0.010854000000     1.007825032070
         H            0.042402000000     2.152895000000     2.457886000000     1.007825032070
         H            0.000000000000     0.000000000000     3.695756000000     1.007825032070
         H           -0.042402000000    -2.152895000000     2.457886000000     1.007825032070
         H           -0.018170000000    -2.164705000000    -0.010853000000     1.007825032070
         N           -0.034654000000    -1.152097000000    -2.308461000000    14.003074004780
         N            0.034654000000     1.152098000000    -2.308460000000    14.003074004780
         H           -0.056579000000     1.209666000000    -3.315997000000     1.007825032070
         H            0.224422000000     2.013552000000    -1.813316000000     1.007825032070
         H           -0.224422000000    -2.013552000000    -1.813317000000     1.007825032070
         H            0.056579000000    -1.209665000000    -3.315997000000     1.007825032070

  Running in c1 symmetry.

  Rotational constants: A =      0.12190  B =      0.04079  C =      0.03057 [cm^-1]
  Rotational constants: A =   3654.48749  B =   1222.79690  C =    916.48363 [MHz]
  Nuclear repulsion =  417.729204970027695

  Charge       = 1
  Multiplicity = 1
  Electrons    = 64
  Nalpha       = 32
  Nbeta        = 32

  ==> Algorithm <==

  SCF Algorithm Type is DF.
  DIIS enabled.
  MOM disabled.
  Fractional occupation disabled.
  Guess Type is SAD.
  Energy threshold   = 1.00e-08
  Density threshold  = 1.00e-08
  Integral threshold = 0.00e+00

  ==> Primary Basis <==

  Basis Set: 6-31G*
    Blend: 6-31G*
    Number of shells: 72
    Number of basis function: 153
    Number of Cartesian functions: 153
    Spherical Harmonics?: false
    Max angular momentum: 2

  ==> DFT Potential <==

   => Composite Functional: B3LYP-D3ZERO <= 

    B3LYP-d3zero Hyb-GGA Exchange-Correlation Functional

    P. J. Stephens, F. J. Devlin, C. F. Chabalowski, and M. J. Frisch, J. Phys. Chem. 98, 11623 (1994)

    Deriv               =              1
    GGA                 =           TRUE
    Meta                =          FALSE

    Exchange Hybrid     =           TRUE
    MP2 Hybrid          =          FALSE

   => Exchange Functionals <=

    0.0800   Slater exchange
    0.7200         Becke 88

   => Exact (HF) Exchange <=

    0.2000               HF 

   => Correlation Functionals <=

    0.1900   Vosko, Wilk & Nusair (VWN5_RPA)
    0.8100   Lee, Yang & Parr

   => Molecular Quadrature <=

    Radial Scheme       =       TREUTLER
    Pruning Scheme      =           FLAT
    Nuclear Scheme      =       TREUTLER

    BS radius alpha     =              1
    Pruning alpha       =              1
    Radial Points       =             75
    Spherical Points    =            302
    Total Points        =         396516
    Total Blocks        =           3008
    Max Points          =            256
    Max Functions       =            149

   => -D3ZERO: Empirical Dispersion <=

    Grimme's -D3 (zero-damping) Dispersion Correction
    Grimme S.; Antony J.; Ehrlich S.; Krieg H. (2010), J. Chem. Phys., 132: 154104

        S6 =   1.000000E+00
        S8 =   1.703000E+00
       SR6 =   1.261000E+00
       SR8 =   1.000000E+00
    ALPHA6 =   1.400000E+01

   => Loading Basis Set <=

    Name: (6-31G* AUX)
    Role: JKFIT
    Keyword: DF_BASIS_SCF
    atoms 1-7         entry C          line   121 file /shared/joao/test_parameterize/miniconda3/share/psi4/basis/cc-pvdz-jkfit.gbs 
    atoms 8-12, 15-18 entry H          line    51 file /shared/joao/test_parameterize/miniconda3/share/psi4/basis/cc-pvdz-jkfit.gbs 
    atoms 13-14       entry N          line   171 file /shared/joao/test_parameterize/miniconda3/share/psi4/basis/cc-pvdz-jkfit.gbs 

  ==> Pre-Iterations <==

   -------------------------------------------------------
    Irrep   Nso     Nmo     Nalpha   Nbeta   Ndocc  Nsocc
   -------------------------------------------------------
     A        153     153       0       0       0       0
   -------------------------------------------------------
    Total     153     153      32      32      32       0
   -------------------------------------------------------

  ==> Integral Setup <==

  ==> DiskDFJK: Density-Fitted J/K Matrices <==

    J tasked:                  Yes
    K tasked:                  Yes
    wK tasked:                  No
    OpenMP threads:              4
    Integrals threads:           4
    Memory (MB):              2002
    Algorithm:                Core
    Integral Cache:           NONE
    Schwarz Cutoff:          1E-12
    Fitting Condition:       1E-12

   => Auxiliary Basis Set <=

  Basis Set: (6-31G* AUX)
    Blend: CC-PVDZ-JKFIT
    Number of shells: 297
    Number of basis function: 954
    Number of Cartesian functions: 954
    Spherical Harmonics?: false
    Max angular momentum: 3

  Minimum eigenvalue in the overlap matrix is 4.7547286100E-04.
  Using Symmetric Orthogonalization.

  SCF Guess: Superposition of Atomic Densities via on-the-fly atomic UHF.

  ==> Iterations <==

                           Total Energy        Delta E     RMS |[F,P]|

   @DF-RKS iter   0:  -379.49601205068086   -3.79496e+02   6.76548e-02 
   @DF-RKS iter   1:  -381.00415577962150   -1.50814e+00   1.25464e-02 
   @DF-RKS iter   2:  -380.89548669227338    1.08669e-01   1.39648e-02 DIIS
   @DF-RKS iter   3:  -381.45319426544921   -5.57708e-01   1.99459e-03 DIIS
   @DF-RKS iter   4:  -381.46180596100191   -8.61170e-03   8.97552e-04 DIIS
   @DF-RKS iter   5:  -381.46377094365619   -1.96498e-03   2.49691e-04 DIIS
   @DF-RKS iter   6:  -381.46392661593978   -1.55672e-04   8.80429e-05 DIIS
   @DF-RKS iter   7:  -381.46394798898689   -2.13730e-05   2.38134e-05 DIIS
   @DF-RKS iter   8:  -381.46394972762067   -1.73863e-06   6.39303e-06 DIIS
   @DF-RKS iter   9:  -381.46394985392533   -1.26305e-07   2.18267e-06 DIIS
   @DF-RKS iter  10:  -381.46394986721077   -1.32854e-08   6.36959e-07 DIIS
   @DF-RKS iter  11:  -381.46394986825680   -1.04603e-09   1.78475e-07 DIIS
   @DF-RKS iter  12:  -381.46394986834315   -8.63452e-11   8.03916e-08 DIIS
   @DF-RKS iter  13:  -381.46394986836657   -2.34195e-11   1.04749e-08 DIIS
   @DF-RKS iter  14:  -381.46394986836651    5.68434e-14   5.36048e-09 DIIS

  ==> Post-Iterations <==

    Orbital Energies [Eh]
    ---------------------

    Doubly Occupied:                                                      

       1A    -14.565166     2A    -14.565158     3A    -10.496780  
       4A    -10.376404     5A    -10.362592     6A    -10.362581  
       7A    -10.347266     8A    -10.344536     9A    -10.344483  
      10A     -1.182940    11A     -1.091578    12A     -1.018026  
      13A     -0.929025    14A     -0.907450    15A     -0.848160  
      16A     -0.785893    17A     -0.780287    18A     -0.739362  
      19A     -0.737449    20A     -0.690076    21A     -0.668510  
      22A     -0.634015    23A     -0.608166    24A     -0.604260  
      25A     -0.581159    26A     -0.580356    27A     -0.518379  
      28A     -0.511028    29A     -0.503329    30A     -0.471687  
      31A     -0.413309    32A     -0.409160  

    Virtual:                                                              

      33A     -0.224500    34A     -0.157293    35A     -0.116472  
      36A     -0.113536    37A     -0.078173    38A     -0.071558  
      39A     -0.044563    40A     -0.026212    41A      0.013542  
      42A      0.027637    43A      0.029577    44A      0.066323  
      45A      0.084276    46A      0.091774    47A      0.116674  
      48A      0.132600    49A      0.150438    50A      0.189736  
      51A      0.236837    52A      0.250338    53A      0.303591  
      54A      0.345797    55A      0.350322    56A      0.373434  
      57A      0.393194    58A      0.395499    59A      0.416058  
      60A      0.425501    61A      0.433097    62A      0.449242  
      63A      0.455524    64A      0.470291    65A      0.471116  
      66A      0.473577    67A      0.481156    68A      0.494391  
      69A      0.496122    70A      0.537538    71A      0.568279  
      72A      0.587729    73A      0.630602    74A      0.644479  
      75A      0.664493    76A      0.697896    77A      0.698566  
      78A      0.702802    79A      0.717344    80A      0.751351  
      81A      0.776837    82A      0.786170    83A      0.795508  
      84A      0.820623    85A      0.851413    86A      0.864155  
      87A      0.898459    88A      0.922545    89A      0.960589  
      90A      1.023869    91A      1.057472    92A      1.058659  
      93A      1.084035    94A      1.100905    95A      1.137813  
      96A      1.157297    97A      1.190235    98A      1.272325  
      99A      1.276970   100A      1.309312   101A      1.322494  
     102A      1.340827   103A      1.355696   104A      1.396139  
     105A      1.414796   106A      1.452846   107A      1.517881  
     108A      1.595098   109A      1.639401   110A      1.654002  
     111A      1.662663   112A      1.735526   113A      1.751968  
     114A      1.799773   115A      1.813886   116A      1.870574  
     117A      1.899599   118A      1.913968   119A      1.925712  
     120A      1.980988   121A      1.988105   122A      2.023147  
     123A      2.039808   124A      2.066101   125A      2.106206  
     126A      2.121046   127A      2.148182   128A      2.220905  
     129A      2.282350   130A      2.287678   131A      2.310382  
     132A      2.358119   133A      2.441149   134A      2.485167  
     135A      2.494817   136A      2.499518   137A      2.520483  
     138A      2.590535   139A      2.591672   140A      2.663284  
     141A      2.741225   142A      2.887328   143A      3.015263  
     144A      3.257878   145A      3.650036   146A      3.711640  
     147A      3.901561   148A      3.941615   149A      3.962162  
     150A      4.033509   151A      4.170486   152A      4.258911  
     153A      4.549418  

    Final Occupation by Irrep:
              A 
    DOCC [    32 ]

  Energy converged.

  @DF-RKS Final Energy:  -381.46394986836651

   => Energetics <=

    Nuclear Repulsion Energy =            417.7292049700276948
    One-Electron Energy =               -1330.4780673315351578
    Two-Electron Energy =                 575.7085030547453925
    DFT Exchange-Correlation Energy =     -44.4122097716045019
    Empirical Dispersion Energy =          -0.0113807900000000
    VV10 Nonlocal Energy =                  0.0000000000000000
    Total Energy =                       -381.4639498683665693



Properties will be evaluated at   0.000000,   0.000000,   0.000000 [a0]

Properties computed using the SCF density matrix

  Nuclear Dipole Moment: [e a0]
     X:     0.0000      Y:     0.0000      Z:     0.0248

  Electronic Dipole Moment: [e a0]
     X:     0.0000      Y:    -0.0000      Z:    -2.1599

  Dipole Moment: [e a0]
     X:     0.0000      Y:    -0.0000      Z:    -2.1351     Total:     2.1351

  Dipole Moment: [D]
     X:     0.0000      Y:    -0.0000      Z:    -5.4268     Total:     5.4268


*** tstop() called on oliva.prib.upf.edu at Sat Sep 29 20:39:35 2018
Module time:
	user time   =     102.28 seconds =       1.70 minutes
	system time =       0.77 seconds =       0.01 minutes
	total time  =         29 seconds =       0.48 minutes
Total time:
	user time   =     102.28 seconds =       1.70 minutes
	system time =       0.77 seconds =       0.01 minutes
	total time  =         29 seconds =       0.48 minutes

*** tstart() called on oliva.prib.upf.edu
*** at Sat Sep 29 20:39:35 2018


         ------------------------------------------------------------
                                   SCF GRAD                          
                          Rob Parrish, Justin Turney,                
                       Andy Simmonett, and Alex Sokolov              
         ------------------------------------------------------------

  ==> Geometry <==

    Molecular point group: c1
    Full point group: C1

    Geometry (in Angstrom), charge = 1, multiplicity = 1:

       Center              X                  Y                   Z               Mass       
    ------------   -----------------  -----------------  -----------------  -----------------
         C            0.000000000000     0.000000000000    -0.177864000000    12.000000000000
         C            0.036678000000     1.219374000000     0.524165000000    12.000000000000
         C            0.031765000000     1.213120000000     1.915444000000    12.000000000000
         C            0.000000000000     0.000000000000     2.610107000000    12.000000000000
         C           -0.031765000000    -1.213120000000     1.915444000000    12.000000000000
         C           -0.036678000000    -1.219375000000     0.524165000000    12.000000000000
         C            0.000000000000     0.000000000000    -1.644734000000    12.000000000000
         H            0.018170000000     2.164705000000    -0.010854000000     1.007825032070
         H            0.042402000000     2.152895000000     2.457886000000     1.007825032070
         H            0.000000000000     0.000000000000     3.695756000000     1.007825032070
         H           -0.042402000000    -2.152895000000     2.457886000000     1.007825032070
         H           -0.018170000000    -2.164705000000    -0.010853000000     1.007825032070
         N           -0.034654000000    -1.152097000000    -2.308461000000    14.003074004780
         N            0.034654000000     1.152098000000    -2.308460000000    14.003074004780
         H           -0.056579000000     1.209666000000    -3.315997000000     1.007825032070
         H            0.224422000000     2.013552000000    -1.813316000000     1.007825032070
         H           -0.224422000000    -2.013552000000    -1.813317000000     1.007825032070
         H            0.056579000000    -1.209665000000    -3.315997000000     1.007825032070

  Nuclear repulsion =  417.729204970027695

  ==> Basis Set <==

  Basis Set: 6-31G*
    Blend: 6-31G*
    Number of shells: 72
    Number of basis function: 153
    Number of Cartesian functions: 153
    Spherical Harmonics?: false
    Max angular momentum: 2

  ==> DFJKGrad: Density-Fitted SCF Gradients <==

    Gradient:                    1
    J tasked:                  Yes
    K tasked:                  Yes
    wK tasked:                  No
    OpenMP threads:              4
    Integrals threads:           4
    Memory (MB):              2002
    Schwarz Cutoff:          0E+00
    Fitting Condition:       1E-12

   => Auxiliary Basis Set <=

  Basis Set: (6-31G* AUX)
    Blend: CC-PVDZ-JKFIT
    Number of shells: 297
    Number of basis function: 954
    Number of Cartesian functions: 954
    Spherical Harmonics?: false
    Max angular momentum: 3

  ==> DFT Potential <==

   => Composite Functional: B3LYP-D3ZERO <= 

    B3LYP-d3zero Hyb-GGA Exchange-Correlation Functional

    P. J. Stephens, F. J. Devlin, C. F. Chabalowski, and M. J. Frisch, J. Phys. Chem. 98, 11623 (1994)

    Deriv               =              1
    GGA                 =           TRUE
    Meta                =          FALSE

    Exchange Hybrid     =           TRUE
    MP2 Hybrid          =          FALSE

   => Exchange Functionals <=

    0.0800   Slater exchange
    0.7200         Becke 88

   => Exact (HF) Exchange <=

    0.2000               HF 

   => Correlation Functionals <=

    0.1900   Vosko, Wilk & Nusair (VWN5_RPA)
    0.8100   Lee, Yang & Parr

   => Molecular Quadrature <=

    Radial Scheme       =       TREUTLER
    Pruning Scheme      =           FLAT
    Nuclear Scheme      =       TREUTLER

    BS radius alpha     =              1
    Pruning alpha       =              1
    Radial Points       =             75
    Spherical Points    =            302
    Total Points        =         396516
    Total Blocks        =           3008
    Max Points          =            256
    Max Functions       =            149


  -Total Gradient:
     Atom            X                  Y                   Z
    ------   -----------------  -----------------  -----------------
       1        0.000000025699     0.000000821635     0.001512350737
       2        0.004186093766     0.004610379280    -0.003020024866
       3       -0.000101297990    -0.001925221085     0.001281436920
       4       -0.000000001072    -0.000000069021     0.000538304892
       5        0.000101302335     0.001925487269     0.001281644034
       6       -0.004186104059    -0.004611928779    -0.003020404929
       7       -0.000000026361    -0.000000522085    -0.001949160075
       8       -0.000585575000    -0.001002664785    -0.005338694060
       9       -0.000495227175     0.000102222859    -0.000064758703
      10        0.000000000968     0.000000006141     0.000104592322
      11        0.000495225887    -0.000102251116    -0.000064804481
      12        0.000585567014     0.001003377792    -0.005338217119
      13        0.002808276781    -0.000679391006     0.003509510305
      14       -0.002808029389     0.000680413015     0.003510780561
      15       -0.001510979357     0.000422566411    -0.000776418580
      16        0.001347273118     0.000922632055     0.004316596071
      17       -0.001347415894    -0.000923251207     0.004316938208
      18        0.001510890835    -0.000422607468    -0.000775536446


*** tstop() called on oliva.prib.upf.edu at Sat Sep 29 20:39:43 2018
Module time:
	user time   =      28.70 seconds =       0.48 minutes
	system time =       0.29 seconds =       0.00 minutes
	total time  =          8 seconds =       0.13 minutes
Total time:
	user time   =     131.05 seconds =       2.18 minutes
	system time =       1.07 seconds =       0.02 minutes
	total time  =         37 seconds =       0.62 minutes

			-----------------------------------------
			 OPTKING 2.0: for geometry optimizations 
			  - R.A. King,  Bethel University        
			-----------------------------------------
	At level 1: Red. Int., RFO, no backsteps, dynamic trust

	Internal coordinates to be generated automatically.
	Detected frag 1 with atoms:  1 2 3 4 5 6 7 8 9 10 11 12 13 14 15 16 17 18
	---Fragment 1 Bond Connectivity---
	 1 : 2 6 7
	 2 : 1 3 8
	 3 : 2 4 9
	 4 : 3 5 10
	 5 : 4 6 11
	 6 : 1 5 12
	 7 : 1 13 14
	 8 : 2
	 9 : 3
	 10 : 4
	 11 : 5
	 12 : 6
	 13 : 7 17 18
	 14 : 7 15 16
	 15 : 14
	 16 : 14
	 17 : 13
	 18 : 13

	Assuming in current code that numbering for constraints corresponds to unified fragment.
	Frozen dihedral atom list: 
	     2     1     7    13
	---Fragment 1 Geometry and Gradient---
	 C           0.0000000000        0.0000000000       -0.3361142489
	 C           0.0693113751        2.3042829136        0.9905282984
	 C           0.0600271506        2.2924645663        3.6196645829
	 C           0.0000000000        0.0000000000        4.9323874075
	 C          -0.0600271506       -2.2924645663        3.6196645829
	 C          -0.0693113751       -2.3042848033        0.9905282984
	 C           0.0000000000        0.0000000000       -3.1080968214
	 H           0.0343363238        4.0906996085       -0.0205110874
	 H           0.0801281675        4.0683819429        4.6447314059
	 H           0.0000000000        0.0000000000        6.9839666940
	 H          -0.0801281675       -4.0683819429        4.6447314059
	 H          -0.0343363238       -4.0906996085       -0.0205091977
	 N          -0.0654865694       -2.1771478085       -4.3623590784
	 N           0.0654865694        2.1771496982       -4.3623571887
	 H          -0.1069188149        2.2859374523       -6.2663261875
	 H           0.4240961182        3.8050618343       -3.4266706324
	 H          -0.4240961182       -3.8050618343       -3.4266725221
	 H           0.1069188149       -2.2859355625       -6.2663261875
	             0.0000000257        0.0000008216        0.0015123507
	             0.0041860938        0.0046103793       -0.0030200249
	            -0.0001012980       -0.0019252211        0.0012814369
	            -0.0000000011       -0.0000000690        0.0005383049
	             0.0001013023        0.0019254873        0.0012816440
	            -0.0041861041       -0.0046119288       -0.0030204049
	            -0.0000000264       -0.0000005221       -0.0019491601
	            -0.0005855750       -0.0010026648       -0.0053386941
	            -0.0004952272        0.0001022229       -0.0000647587
	             0.0000000010        0.0000000061        0.0001045923
	             0.0004952259       -0.0001022511       -0.0000648045
	             0.0005855670        0.0010033778       -0.0053382171
	             0.0028082768       -0.0006793910        0.0035095103
	            -0.0028080294        0.0006804130        0.0035107806
	            -0.0015109794        0.0004225664       -0.0007764186
	             0.0013472731        0.0009226321        0.0043165961
	            -0.0013474159       -0.0009232512        0.0043169382
	             0.0015108908       -0.0004226075       -0.0007755364

	Previous optimization step data not found.  Starting new optimization.

	---Fragment 1 Intrafragment Coordinates---
	 - Coordinate -           - BOHR/RAD -       - ANG/DEG -
	 R(1,2)           =         2.659794	       1.407502
	 R(1,6)           =         2.659796	       1.407503
	 R(1,7)           =         2.771983	       1.466870
	 R(2,3)           =         2.629179	       1.391302
	 R(2,8)           =         2.052976	       1.086388
	 R(3,4)           =         2.642393	       1.398294
	 R(3,9)           =         2.050622	       1.085142
	 R(4,5)           =         2.642393	       1.398294
	 R(4,10)          =         2.051579	       1.085649
	 R(5,6)           =         2.629179	       1.391302
	 R(5,11)          =         2.050622	       1.085142
	 R(6,12)          =         2.052973	       1.086386
	 R(7,13)          =         2.513451	       1.330061
	 R(7,14)          =         2.513451	       1.330061
	 R(13,17)         =         1.911600	       1.011575
	 R(13,18)         =         1.914850	       1.013295
	 R(14,15)         =         1.914852	       1.013296
	 R(14,16)         =         1.911598	       1.011574
	 B(1,2,3)         =         2.088380	     119.655376
	 B(1,2,8)         =         2.103396	     120.515689
	 B(1,6,5)         =         2.088379	     119.655315
	 B(1,6,12)        =         2.103396	     120.515729
	 B(1,7,13)        =         2.093264	     119.935186
	 B(1,7,14)        =         2.093263	     119.935127
	 B(2,1,6)         =         2.097220	     120.161857
	 B(2,1,7)         =         2.092983	     119.919082
	 B(2,3,4)         =         2.095279	     120.050636
	 B(2,3,9)         =         2.089719	     119.732108
	 B(3,2,8)         =         2.090149	     119.756722
	 B(3,4,5)         =         2.101793	     120.423859
	 B(3,4,10)        =         2.090696	     119.788070
	 B(4,3,9)         =         2.098135	     120.214297
	 B(4,5,6)         =         2.095280	     120.050677
	 B(4,5,11)        =         2.098135	     120.214297
	 B(5,4,10)        =         2.090696	     119.788070
	 B(5,6,12)        =         2.090149	     119.756743
	 B(6,1,7)         =         2.092982	     119.919061
	 B(6,5,11)        =         2.089719	     119.732067
	 B(7,13,17)       =         2.092411	     119.886342
	 B(7,13,18)       =         2.144860	     122.891454
	 B(7,14,15)       =         2.144859	     122.891393
	 B(7,14,16)       =         2.092412	     119.886371
	 B(13,7,14)       =         2.096659	     120.129687
	 B(15,14,16)      =         2.043400	     117.078176
	 B(17,13,18)      =         2.043399	     117.078145
	 D(1,2,3,4)       =         0.007799	       0.446825
	 D(1,2,3,9)       =        -3.122896	    -178.928735
	 D(1,6,5,4)       =         0.007799	       0.446822
	 D(1,6,5,11)      =        -3.122896	    -178.928737
	 D(1,7,13,17)     =         0.187845	      10.762701
	 D(1,7,13,18)     =        -3.032165	    -173.730246
	 D(1,7,14,15)     =        -3.032165	    -173.730257
	 D(1,7,14,16)     =         0.187845	      10.762717
	 D(2,1,6,5)       =        -0.003906	      -0.223802
	 D(2,1,6,12)      =        -3.091437	    -177.126283
	*D(2,1,7,13)      =         3.141593	     180.000000
	 D(2,1,7,14)      =        -0.000000	      -0.000000
	 D(2,3,4,5)       =        -0.003942	      -0.225875
	 D(2,3,4,10)      =         3.137650	     179.774125
	 D(3,2,1,6)       =        -0.003906	      -0.223806
	 D(3,2,1,7)       =         3.137687	     179.776196
	 D(3,4,5,6)       =        -0.003942	      -0.225874
	 D(3,4,5,11)      =         3.126699	     179.146646
	 D(4,3,2,8)       =         3.095744	     177.373058
	 D(4,5,6,12)      =         3.095744	     177.373055
	 D(5,4,3,9)       =         3.126699	     179.146646
	 D(5,6,1,7)       =         3.137687	     179.776197
	 D(6,1,2,8)       =        -3.091437	    -177.126287
	 D(6,1,7,13)      =        -0.000000	      -0.000000
	 D(6,1,7,14)      =         3.141593	     180.000000
	 D(6,5,4,10)      =         3.137650	     179.774126
	 D(7,1,2,8)       =         0.050156	       2.873714
	 D(7,1,6,12)      =         0.050156	       2.873716
	 D(8,2,3,9)       =        -0.034950	      -2.002503
	 D(9,3,4,10)      =        -0.014894	      -0.853354
	 D(10,4,5,11)     =        -0.014894	      -0.853354
	 D(11,5,6,12)     =        -0.034950	      -2.002504
	 D(13,7,14,15)    =         0.109428	       6.269742
	 D(13,7,14,16)    =        -2.953748	    -169.237284
	 D(14,7,13,17)    =        -2.953748	    -169.237297
	 D(14,7,13,18)    =         0.109428	       6.269755

	Current energy   :      -381.4639498684

	Generating empirical Hessian (Schlegel '84) for each fragment.
	Taking RFO optimization step.
	Going to follow RFO solution 1.
	Using RFO vector 1.
	Norm of target step-size    0.24077
	Projected energy change by RFO approximation:        -0.0039817445

	Back-transformation to cartesian coordinates...
	Could not converge backtransformation.
	Using first guess instead.

	Back-transformation to cartesian coordinates to adjust frozen coordinates...
	Successfully converged to displaced geometry.

	--- Internal Coordinate Step in ANG or DEG, aJ/ANG or AJ/DEG ---
	 ---------------------------------------------------------------------------
	   Coordinate                Previous        Force       Change         New 
	   ----------                --------       ------       ------       ------
	    1 R(1,2)          =      1.407502     0.032207     0.004996     1.412498
	    2 R(1,6)          =      1.407503     0.032197     0.006098     1.413601
	    3 R(1,7)          =      1.466870     0.100045     0.017618     1.484488
	    4 R(2,3)          =      1.391302    -0.012816    -0.001297     1.390005
	    5 R(2,8)          =      1.086388    -0.014560    -0.001712     1.084676
	    6 R(3,4)          =      1.398294    -0.018860    -0.002548     1.395746
	    7 R(3,9)          =      1.085142    -0.000417    -0.000018     1.085124
	    8 R(4,5)          =      1.398294    -0.018864    -0.002736     1.395557
	    9 R(4,10)         =      1.085649    -0.000851     0.000001     1.085650
	   10 R(5,6)          =      1.391302    -0.012827    -0.001705     1.389597
	   11 R(5,11)         =      1.085142    -0.000417     0.000056     1.085198
	   12 R(6,12)         =      1.086386    -0.014553    -0.001764     1.084622
	   13 R(7,13)         =      1.330061     0.015157     0.002310     1.332371
	   14 R(7,14)         =      1.330061     0.015154     0.003996     1.334057
	   15 R(13,17)        =      1.011575    -0.025964    -0.001780     1.009795
	   16 R(13,18)        =      1.013295    -0.007683     0.000098     1.013392
	   17 R(14,15)        =      1.013296    -0.007690     0.002397     1.015693
	   18 R(14,16)        =      1.011574    -0.025958    -0.002400     1.009174
	   19 B(1,2,3)        =    119.655376     0.000341     1.124940   120.780316
	   20 B(1,2,8)        =    120.515689     0.000232     1.305475   121.821164
	   21 B(1,6,5)        =    119.655315     0.000341     1.133597   120.788912
	   22 B(1,6,12)       =    120.515729     0.000233     1.310764   121.826493
	   23 B(1,7,13)       =    119.935186     0.000623     1.839956   121.775142
	   24 B(1,7,14)       =    119.935127     0.000623     1.823794   121.758921
	   25 B(2,1,6)        =    120.161857    -0.000687    -2.015527   118.146330
	   26 B(2,1,7)        =    119.919082     0.000343     0.999965   120.919047
	   27 B(2,3,4)        =    120.050636     0.000042     0.070261   120.120897
	   28 B(2,3,9)        =    119.732108    -0.000013     0.012814   119.744922
	   29 B(3,2,8)        =    119.756722    -0.000571    -2.381535   117.375187
	   30 B(3,4,5)        =    120.423859    -0.000079    -0.384563   120.039296
	   31 B(3,4,10)       =    119.788070     0.000040     0.203057   119.991127
	   32 B(4,3,9)        =    120.214297    -0.000029    -0.081542   120.132755
	   33 B(4,5,6)        =    120.050677     0.000042     0.051978   120.102655
	   34 B(4,5,11)       =    120.214297    -0.000029    -0.063236   120.151061
	   35 B(5,4,10)       =    119.788070     0.000040     0.180392   119.968462
	   36 B(5,6,12)       =    119.756743    -0.000572    -2.384998   117.371745
	   37 B(6,1,7)        =    119.919061     0.000343     0.948270   120.867332
	   38 B(6,5,11)       =    119.732067    -0.000013     0.009308   119.741375
	   39 B(7,13,17)      =    119.886342     0.000334     1.512878   121.399220
	   40 B(7,13,18)      =    122.891454    -0.000186    -0.881329   122.010125
	   41 B(7,14,15)      =    122.891393    -0.000186    -0.764924   122.126469
	   42 B(7,14,16)      =    119.886371     0.000334     1.477057   121.363428
	   43 B(13,7,14)      =    120.129687    -0.001247    -3.725825   116.403862
	   44 B(15,14,16)     =    117.078176    -0.000151    -0.805251   116.272924
	   45 B(17,13,18)     =    117.078145    -0.000151    -0.731999   116.346146
	   46 D(1,2,3,4)      =      0.446825    -0.000006    -0.707467    -0.260643
	   47 D(1,2,3,9)      =   -178.928735    -0.000008    -0.898099  -179.826835
	   48 D(1,6,5,4)      =      0.446822    -0.000012    -1.789610    -1.342788
	   49 D(1,6,5,11)     =   -178.928737    -0.000012    -1.609313  -180.538050
	   50 D(1,7,13,17)    =     10.762701     0.000000     0.395674    11.158375
	   51 D(1,7,13,18)    =   -173.730246    -0.000011    -1.000735  -174.730981
	   52 D(1,7,14,15)    =   -173.730257    -0.000028    -4.085033  -177.815290
	   53 D(1,7,14,16)    =     10.762717    -0.000017    -2.773164     7.989553
	   54 D(2,1,6,5)      =     -0.223802     0.000012     1.960581     1.736779
	   55 D(2,1,6,12)     =   -177.126283     0.000003     0.201545  -176.924737
	   56 *D(2,1,7,13)    =    180.000000     0.000000     0.000000   180.000000
	   57 D(2,1,7,14)     =      0.000000     0.000017     2.969328     2.969328
	   58 D(2,3,4,5)      =     -0.225875     0.000006     0.916044     0.690169
	   59 D(2,3,4,10)     =    179.774125     0.000004     0.531839   180.305963
	   60 D(3,2,1,6)      =     -0.223806    -0.000003    -0.710483    -0.934289
	   61 D(3,2,1,7)      =    179.776196     0.000013     2.247371   182.023566
	   62 D(3,4,5,6)      =     -0.225874     0.000003     0.334689     0.108814
	   63 D(3,4,5,11)     =    179.146646     0.000003     0.154108   179.300754
	   64 D(4,3,2,8)      =    177.373058     0.000007     0.640688   178.013746
	   65 D(4,5,6,12)     =    177.373055     0.000003     0.003550   177.376605
	   66 D(5,4,3,9)      =    179.146646     0.000008     1.108020   180.254666
	   67 D(5,6,1,7)      =    179.776197    -0.000004    -0.995674   178.780523
	   68 D(6,1,2,8)      =   -177.126287    -0.000010    -2.004550  -179.130837
	   69 D(6,1,7,13)     =      0.000000     0.000016     3.039049     3.039049
	   70 D(6,1,7,14)     =    180.000000     0.000033     6.007852   186.007852
	   71 D(6,5,4,10)     =    179.774126     0.000005     0.718806   180.492932
	   72 D(7,1,2,8)      =      2.873714     0.000006     0.953304     3.827018
	   73 D(7,1,6,12)     =      2.873716    -0.000013    -2.754710     0.119006
	   74 D(8,2,3,9)      =     -2.002503     0.000006     0.450056    -1.552446
	   75 D(9,3,4,10)     =     -0.853354     0.000006     0.723815    -0.129539
	   76 D(10,4,5,11)    =     -0.853354     0.000005     0.538226    -0.315128
	   77 D(11,5,6,12)    =     -2.002504     0.000004     0.183847    -1.818656
	   78 D(13,7,14,15)   =      6.269742    -0.000011    -1.267367     5.002374
	   79 D(13,7,14,16)   =   -169.237284     0.000000     0.044502  -169.192783
	   80 D(14,7,13,17)   =   -169.237297    -0.000017    -2.422486  -171.659783
	   81 D(14,7,13,18)   =      6.269755    -0.000028    -3.818895     2.450860
	 ---------------------------------------------------------------------------
	Successfully symmetrized geometry.

  ==> Convergence Check <==

  Measures of convergence in internal coordinates in au.
  Criteria marked as inactive (o), active & met (*), and active & unmet ( ).
  --------------------------------------------------------------------------------------------- ~
   Step     Total Energy     Delta E     MAX Force     RMS Force      MAX Disp      RMS Disp    ~
  --------------------------------------------------------------------------------------------- ~
    Convergence Criteria    1.00e-06 *    3.00e-04 *             o    1.20e-03 *             o  ~
  --------------------------------------------------------------------------------------------- ~
      1    -381.46394987   -3.81e+02      1.64e-02      3.52e-03 o    1.05e-01      2.69e-02 o  ~
  ---------------------------------------------------------------------------------------------

	Writing optimization data to binary file.
	Structure for next step:
	Cartesian Geometry (in Angstrom)
	    C    -0.0449002994   0.0013711562  -0.1693406920
	    C    -0.0128439925   1.2128377813   0.5562427719
	    C     0.0168988818   1.2090995990   1.9459240796
	    C     0.0098925682   0.0001434252   2.6434067857
	    C    -0.0124701213  -1.2085399287   1.9461515008
	    C    -0.0255240981  -1.2114254836   0.5566186708
	    C    -0.0317502263   0.0007488621  -1.6537700892
	    H    -0.0393506189   2.1772528016   0.0605376167
	    H     0.0384515929   2.1497464904   2.4864912386
	    H     0.0281481430  -0.0002332423   3.7289028616
	    H    -0.0065005916  -2.1496679864   2.4864258927
	    H     0.0012900518  -2.1751345715   0.0596770048
	    N    -0.0615189231  -1.1316504459  -2.3551959802
	    N     0.0691735826   1.1308035237  -2.3555536165
	    H     0.0460627408   1.1399363897  -3.3709422428
	    H     0.2593311865   2.0136192527  -1.9050990139
	    H    -0.2604971265  -2.0182607969  -1.9147241245
	    H     0.0261072501  -1.1406458266  -3.3647526642
			--------------------------
			 OPTKING Finished Execution 
			--------------------------

    Structure for next step:
    Molecular point group: c1
    Full point group: C1

    Geometry (in Angstrom), charge = 1, multiplicity = 1:

    C           -0.044900299417     0.001371156185    -0.169340691993
    C           -0.012843992467     1.212837781262     0.556242771938
    C            0.016898881769     1.209099599031     1.945924079560
    C            0.009892568166     0.000143425163     2.643406785713
    C           -0.012470121264    -1.208539928696     1.946151500809
    C           -0.025524098091    -1.211425483629     0.556618670778
    C           -0.031750226269     0.000748862072    -1.653770089185
    H           -0.039350618919     2.177252801597     0.060537616716
    H            0.038451592897     2.149746490407     2.486491238574
    H            0.028148142977    -0.000233242269     3.728902861574
    H           -0.006500591563    -2.149667986418     2.486425892734
    H            0.001290051769    -2.175134571457     0.059677004841
    N           -0.061518923095    -1.131650445851    -2.355195980166
    N            0.069173582641     1.130803523678    -2.355553616498
    H            0.046062740764     1.139936389727    -3.370942242756
    H            0.259331186452     2.013619252668    -1.905099013935
    H           -0.260497126473    -2.018260796854    -1.914724124494
    H            0.026107250120    -1.140645826616    -3.364752664210

gradient() will perform analytic gradient computation.

*** tstart() called on oliva.prib.upf.edu
*** at Sat Sep 29 20:39:43 2018

   => Loading Basis Set <=

    Name: 6-31G*
    Role: ORBITAL
    Keyword: BASIS
    atoms 1-7         entry C          line   111 file /shared/joao/test_parameterize/miniconda3/share/psi4/basis/6-31gs.gbs 
    atoms 8-12, 15-18 entry H          line    44 file /shared/joao/test_parameterize/miniconda3/share/psi4/basis/6-31gs.gbs 
    atoms 13-14       entry N          line   128 file /shared/joao/test_parameterize/miniconda3/share/psi4/basis/6-31gs.gbs 


         ---------------------------------------------------------
                                   SCF
            by Justin Turney, Rob Parrish, Andy Simmonett
                             and Daniel Smith
                              RKS Reference
                        4 Threads,   2861 MiB Core
         ---------------------------------------------------------

  ==> Geometry <==

    Molecular point group: c1
    Full point group: C1

    Geometry (in Angstrom), charge = 1, multiplicity = 1:

       Center              X                  Y                   Z               Mass       
    ------------   -----------------  -----------------  -----------------  -----------------
         C           -0.044900299417     0.001371156185    -0.169340691993    12.000000000000
         C           -0.012843992467     1.212837781262     0.556242771938    12.000000000000
         C            0.016898881769     1.209099599031     1.945924079560    12.000000000000
         C            0.009892568166     0.000143425163     2.643406785713    12.000000000000
         C           -0.012470121264    -1.208539928696     1.946151500809    12.000000000000
         C           -0.025524098091    -1.211425483629     0.556618670778    12.000000000000
         C           -0.031750226269     0.000748862072    -1.653770089185    12.000000000000
         H           -0.039350618919     2.177252801597     0.060537616716     1.007825032070
         H            0.038451592897     2.149746490407     2.486491238574     1.007825032070
         H            0.028148142977    -0.000233242269     3.728902861574     1.007825032070
         H           -0.006500591563    -2.149667986418     2.486425892734     1.007825032070
         H            0.001290051769    -2.175134571457     0.059677004841     1.007825032070
         N           -0.061518923095    -1.131650445851    -2.355195980166    14.003074004780
         N            0.069173582641     1.130803523678    -2.355553616498    14.003074004780
         H            0.046062740764     1.139936389727    -3.370942242756     1.007825032070
         H            0.259331186452     2.013619252668    -1.905099013935     1.007825032070
         H           -0.260497126473    -2.018260796854    -1.914724124494     1.007825032070
         H            0.026107250120    -1.140645826616    -3.364752664210     1.007825032070

  Running in c1 symmetry.

  Rotational constants: A =      0.12381  B =      0.03942  C =      0.02992 [cm^-1]
  Rotational constants: A =   3711.68966  B =   1181.85341  C =    897.08921 [MHz]
  Nuclear repulsion =  415.386982401603973

  Charge       = 1
  Multiplicity = 1
  Electrons    = 64
  Nalpha       = 32
  Nbeta        = 32

  ==> Algorithm <==

  SCF Algorithm Type is DF.
  DIIS enabled.
  MOM disabled.
  Fractional occupation disabled.
  Guess Type is READ.
  Energy threshold   = 1.00e-08
  Density threshold  = 1.00e-08
  Integral threshold = 0.00e+00

  ==> Primary Basis <==

  Basis Set: 6-31G*
    Blend: 6-31G*
    Number of shells: 72
    Number of basis function: 153
    Number of Cartesian functions: 153
    Spherical Harmonics?: false
    Max angular momentum: 2

  ==> DFT Potential <==

   => Composite Functional: B3LYP-D3ZERO <= 

    B3LYP-d3zero Hyb-GGA Exchange-Correlation Functional

    P. J. Stephens, F. J. Devlin, C. F. Chabalowski, and M. J. Frisch, J. Phys. Chem. 98, 11623 (1994)

    Deriv               =              1
    GGA                 =           TRUE
    Meta                =          FALSE

    Exchange Hybrid     =           TRUE
    MP2 Hybrid          =          FALSE

   => Exchange Functionals <=

    0.0800   Slater exchange
    0.7200         Becke 88

   => Exact (HF) Exchange <=

    0.2000               HF 

   => Correlation Functionals <=

    0.1900   Vosko, Wilk & Nusair (VWN5_RPA)
    0.8100   Lee, Yang & Parr

   => Molecular Quadrature <=

    Radial Scheme       =       TREUTLER
    Pruning Scheme      =           FLAT
    Nuclear Scheme      =       TREUTLER

    BS radius alpha     =              1
    Pruning alpha       =              1
    Radial Points       =             75
    Spherical Points    =            302
    Total Points        =         396552
    Total Blocks        =           2996
    Max Points          =            256
    Max Functions       =            149

   => -D3ZERO: Empirical Dispersion <=

    Grimme's -D3 (zero-damping) Dispersion Correction
    Grimme S.; Antony J.; Ehrlich S.; Krieg H. (2010), J. Chem. Phys., 132: 154104

        S6 =   1.000000E+00
        S8 =   1.703000E+00
       SR6 =   1.261000E+00
       SR8 =   1.000000E+00
    ALPHA6 =   1.400000E+01

   => Loading Basis Set <=

    Name: (6-31G* AUX)
    Role: JKFIT
    Keyword: DF_BASIS_SCF
    atoms 1-7         entry C          line   121 file /shared/joao/test_parameterize/miniconda3/share/psi4/basis/cc-pvdz-jkfit.gbs 
    atoms 8-12, 15-18 entry H          line    51 file /shared/joao/test_parameterize/miniconda3/share/psi4/basis/cc-pvdz-jkfit.gbs 
    atoms 13-14       entry N          line   171 file /shared/joao/test_parameterize/miniconda3/share/psi4/basis/cc-pvdz-jkfit.gbs 

  Reading orbitals from file 180, no projection.

  ==> Pre-Iterations <==

   -------------------------------------------------------
    Irrep   Nso     Nmo     Nalpha   Nbeta   Ndocc  Nsocc
   -------------------------------------------------------
     A        153     153       0       0       0       0
   -------------------------------------------------------
    Total     153     153      32      32      32       0
   -------------------------------------------------------

  ==> Integral Setup <==

  ==> DiskDFJK: Density-Fitted J/K Matrices <==

    J tasked:                  Yes
    K tasked:                  Yes
    wK tasked:                  No
    OpenMP threads:              4
    Integrals threads:           4
    Memory (MB):              2002
    Algorithm:                Core
    Integral Cache:           NONE
    Schwarz Cutoff:          1E-12
    Fitting Condition:       1E-12

   => Auxiliary Basis Set <=

  Basis Set: (6-31G* AUX)
    Blend: CC-PVDZ-JKFIT
    Number of shells: 297
    Number of basis function: 954
    Number of Cartesian functions: 954
    Spherical Harmonics?: false
    Max angular momentum: 3

  Minimum eigenvalue in the overlap matrix is 4.6606347625E-04.
  Using Symmetric Orthogonalization.

  SCF Guess: Orbitals guess was supplied from a previous computation.

  ==> Iterations <==

                           Total Energy        Delta E     RMS |[F,P]|

   @DF-RKS iter   0:  -381.43596324966757   -3.81436e+02   1.75288e-03 
   @DF-RKS iter   1:  -381.46512025086855   -2.91570e-02   1.97853e-04 
   @DF-RKS iter   2:  -381.46498986046311    1.30390e-04   2.95767e-04 DIIS
   @DF-RKS iter   3:  -381.46528000252198   -2.90142e-04   5.76119e-05 DIIS
   @DF-RKS iter   4:  -381.46528870194396   -8.69942e-06   2.46691e-05 DIIS
   @DF-RKS iter   5:  -381.46529043132023   -1.72938e-06   7.12148e-06 DIIS
   @DF-RKS iter   6:  -381.46529057379900   -1.42479e-07   2.15097e-06 DIIS
   @DF-RKS iter   7:  -381.46529058676208   -1.29631e-08   5.39389e-07 DIIS
   @DF-RKS iter   8:  -381.46529058743619   -6.74106e-10   2.07905e-07 DIIS
   @DF-RKS iter   9:  -381.46529058755442   -1.18234e-10   6.31673e-08 DIIS
   @DF-RKS iter  10:  -381.46529058756352   -9.09495e-12   1.84511e-08 DIIS
   @DF-RKS iter  11:  -381.46529058756556   -2.04636e-12   7.79794e-09 DIIS

  ==> Post-Iterations <==

    Orbital Energies [Eh]
    ---------------------

    Doubly Occupied:                                                      

       1A    -14.565152     2A    -14.564924     3A    -10.499924  
       4A    -10.380701     5A    -10.361457     6A    -10.361430  
       7A    -10.345808     8A    -10.342397     9A    -10.342334  
      10A     -1.183328    11A     -1.086855    12A     -1.016326  
      13A     -0.927534    14A     -0.905431    15A     -0.848271  
      16A     -0.786905    17A     -0.774818    18A     -0.739697  
      19A     -0.735307    20A     -0.684675    21A     -0.670097  
      22A     -0.631508    23A     -0.607509    24A     -0.602942  
      25A     -0.582868    26A     -0.577351    27A     -0.518040  
      28A     -0.509788    29A     -0.500752    30A     -0.469455  
      31A     -0.413393    32A     -0.407496  

    Virtual:                                                              

      33A     -0.224907    34A     -0.154814    35A     -0.117503  
      36A     -0.114448    37A     -0.077045    38A     -0.073358  
      39A     -0.040754    40A     -0.029828    41A      0.013787  
      42A      0.024387    43A      0.028158    44A      0.066045  
      45A      0.076226    46A      0.081570    47A      0.113791  
      48A      0.124630    49A      0.154908    50A      0.187141  
      51A      0.235035    52A      0.247497    53A      0.301508  
      54A      0.346761    55A      0.352280    56A      0.372211  
      57A      0.392390    58A      0.396625    59A      0.417420  
      60A      0.418999    61A      0.437167    62A      0.452354  
      63A      0.456598    64A      0.468867    65A      0.474640  
      66A      0.475736    67A      0.482464    68A      0.496102  
      69A      0.504555    70A      0.535485    71A      0.565210  
      72A      0.589225    73A      0.631891    74A      0.649426  
      75A      0.662852    76A      0.694075    77A      0.695096  
      78A      0.703577    79A      0.713733    80A      0.745576  
      81A      0.775103    82A      0.779634    83A      0.793178  
      84A      0.812558    85A      0.840251    86A      0.857111  
      87A      0.897973    88A      0.921685    89A      0.961481  
      90A      1.028522    91A      1.047084    92A      1.062081  
      93A      1.082510    94A      1.105724    95A      1.138073  
      96A      1.148750    97A      1.174526    98A      1.269607  
      99A      1.288000   100A      1.314877   101A      1.323887  
     102A      1.344117   103A      1.352325   104A      1.372257  
     105A      1.416227   106A      1.452360   107A      1.508979  
     108A      1.601106   109A      1.633138   110A      1.648802  
     111A      1.653560   112A      1.742637   113A      1.743394  
     114A      1.804312   115A      1.816256   116A      1.850596  
     117A      1.895246   118A      1.920931   119A      1.943862  
     120A      1.974213   121A      1.981741   122A      2.018802  
     123A      2.026534   124A      2.075829   125A      2.100756  
     126A      2.127290   127A      2.153873   128A      2.211749  
     129A      2.260144   130A      2.274795   131A      2.310573  
     132A      2.344807   133A      2.437118   134A      2.484173  
     135A      2.496080   136A      2.501981   137A      2.513861  
     138A      2.594581   139A      2.609003   140A      2.659996  
     141A      2.736132   142A      2.887517   143A      3.001344  
     144A      3.256217   145A      3.642352   146A      3.686628  
     147A      3.892443   148A      3.945161   149A      3.962560  
     150A      4.039148   151A      4.171821   152A      4.259221  
     153A      4.545899  

    Final Occupation by Irrep:
              A 
    DOCC [    32 ]

  Energy converged.

  @DF-RKS Final Energy:  -381.46529058756556

   => Energetics <=

    Nuclear Repulsion Energy =            415.3869824016039729
    One-Electron Energy =               -1325.8729808227762987
    Two-Electron Energy =                 573.4313106587145512
    DFT Exchange-Correlation Energy =     -44.3991086551077174
    Empirical Dispersion Energy =          -0.0114941700000000
    VV10 Nonlocal Energy =                  0.0000000000000000
    Total Energy =                       -381.4652905875655051



Properties will be evaluated at   0.000000,   0.000000,   0.000000 [a0]

Properties computed using the SCF density matrix

  Nuclear Dipole Moment: [e a0]
     X:    -0.8647      Y:     0.0304      Z:     0.4586

  Electronic Dipole Moment: [e a0]
     X:     0.8921      Y:    -0.0364      Z:    -2.6392

  Dipole Moment: [e a0]
     X:     0.0274      Y:    -0.0059      Z:    -2.1806     Total:     2.1808

  Dipole Moment: [D]
     X:     0.0697      Y:    -0.0151      Z:    -5.5426     Total:     5.5430


*** tstop() called on oliva.prib.upf.edu at Sat Sep 29 20:40:06 2018
Module time:
	user time   =      82.19 seconds =       1.37 minutes
	system time =       0.57 seconds =       0.01 minutes
	total time  =         23 seconds =       0.38 minutes
Total time:
	user time   =     213.97 seconds =       3.57 minutes
	system time =       1.72 seconds =       0.03 minutes
	total time  =         60 seconds =       1.00 minutes

*** tstart() called on oliva.prib.upf.edu
*** at Sat Sep 29 20:40:06 2018


         ------------------------------------------------------------
                                   SCF GRAD                          
                          Rob Parrish, Justin Turney,                
                       Andy Simmonett, and Alex Sokolov              
         ------------------------------------------------------------

  ==> Geometry <==

    Molecular point group: c1
    Full point group: C1

    Geometry (in Angstrom), charge = 1, multiplicity = 1:

       Center              X                  Y                   Z               Mass       
    ------------   -----------------  -----------------  -----------------  -----------------
         C           -0.044900299417     0.001371156185    -0.169340691993    12.000000000000
         C           -0.012843992467     1.212837781262     0.556242771938    12.000000000000
         C            0.016898881769     1.209099599031     1.945924079560    12.000000000000
         C            0.009892568166     0.000143425163     2.643406785713    12.000000000000
         C           -0.012470121264    -1.208539928696     1.946151500809    12.000000000000
         C           -0.025524098091    -1.211425483629     0.556618670778    12.000000000000
         C           -0.031750226269     0.000748862072    -1.653770089185    12.000000000000
         H           -0.039350618919     2.177252801597     0.060537616716     1.007825032070
         H            0.038451592897     2.149746490407     2.486491238574     1.007825032070
         H            0.028148142977    -0.000233242269     3.728902861574     1.007825032070
         H           -0.006500591563    -2.149667986418     2.486425892734     1.007825032070
         H            0.001290051769    -2.175134571457     0.059677004841     1.007825032070
         N           -0.061518923095    -1.131650445851    -2.355195980166    14.003074004780
         N            0.069173582641     1.130803523678    -2.355553616498    14.003074004780
         H            0.046062740764     1.139936389727    -3.370942242756     1.007825032070
         H            0.259331186452     2.013619252668    -1.905099013935     1.007825032070
         H           -0.260497126473    -2.018260796854    -1.914724124494     1.007825032070
         H            0.026107250120    -1.140645826616    -3.364752664210     1.007825032070

  Nuclear repulsion =  415.386982401603973

  ==> Basis Set <==

  Basis Set: 6-31G*
    Blend: 6-31G*
    Number of shells: 72
    Number of basis function: 153
    Number of Cartesian functions: 153
    Spherical Harmonics?: false
    Max angular momentum: 2

  ==> DFJKGrad: Density-Fitted SCF Gradients <==

    Gradient:                    1
    J tasked:                  Yes
    K tasked:                  Yes
    wK tasked:                  No
    OpenMP threads:              4
    Integrals threads:           4
    Memory (MB):              2002
    Schwarz Cutoff:          0E+00
    Fitting Condition:       1E-12

   => Auxiliary Basis Set <=

  Basis Set: (6-31G* AUX)
    Blend: CC-PVDZ-JKFIT
    Number of shells: 297
    Number of basis function: 954
    Number of Cartesian functions: 954
    Spherical Harmonics?: false
    Max angular momentum: 3

  ==> DFT Potential <==

   => Composite Functional: B3LYP-D3ZERO <= 

    B3LYP-d3zero Hyb-GGA Exchange-Correlation Functional

    P. J. Stephens, F. J. Devlin, C. F. Chabalowski, and M. J. Frisch, J. Phys. Chem. 98, 11623 (1994)

    Deriv               =              1
    GGA                 =           TRUE
    Meta                =          FALSE

    Exchange Hybrid     =           TRUE
    MP2 Hybrid          =          FALSE

   => Exchange Functionals <=

    0.0800   Slater exchange
    0.7200         Becke 88

   => Exact (HF) Exchange <=

    0.2000               HF 

   => Correlation Functionals <=

    0.1900   Vosko, Wilk & Nusair (VWN5_RPA)
    0.8100   Lee, Yang & Parr

   => Molecular Quadrature <=

    Radial Scheme       =       TREUTLER
    Pruning Scheme      =           FLAT
    Nuclear Scheme      =       TREUTLER

    BS radius alpha     =              1
    Pruning alpha       =              1
    Radial Points       =             75
    Spherical Points    =            302
    Total Points        =         396552
    Total Blocks        =           2996
    Max Points          =            256
    Max Functions       =            149


  -Total Gradient:
     Atom            X                  Y                   Z
    ------   -----------------  -----------------  -----------------
       1       -0.002623650830     0.000508157122     0.003017498579
       2        0.002836103100     0.000645609411     0.002467941158
       3        0.000291405334    -0.000162274704     0.000486960271
       4       -0.000169004408    -0.000180655146    -0.001408753013
       5       -0.000353585989     0.000297719316     0.000483858706
       6        0.000251764510    -0.001165014246     0.003147663774
       7       -0.005781730006    -0.000971107660    -0.001349585510
       8        0.000172260649    -0.000430243649     0.001271589422
       9        0.000030744006    -0.000156662169     0.000512504264
      10        0.000068127713    -0.000039357810     0.000009205927
      11       -0.000077226799     0.000105123147     0.000515483039
      12        0.000409498096     0.000404064479     0.001271669691
      13        0.004200323280     0.003504737708    -0.003755271790
      14       -0.000237904702    -0.002106795123    -0.002609286747
      15       -0.000311885551    -0.000011512804    -0.003151798642
      16        0.000804270153    -0.000576858350    -0.000060258468
      17       -0.000221486070     0.000070474814     0.000225942754
      18        0.000711303897     0.000261597296    -0.001083019475


*** tstop() called on oliva.prib.upf.edu at Sat Sep 29 20:40:14 2018
Module time:
	user time   =      29.51 seconds =       0.49 minutes
	system time =       0.25 seconds =       0.00 minutes
	total time  =          8 seconds =       0.13 minutes
Total time:
	user time   =     243.55 seconds =       4.06 minutes
	system time =       1.98 seconds =       0.03 minutes
	total time  =         68 seconds =       1.13 minutes

			-----------------------------------------
			 OPTKING 2.0: for geometry optimizations 
			  - R.A. King,  Bethel University        
			-----------------------------------------
	At level 1: Red. Int., RFO, no backsteps, dynamic trust

	Previous internal coordinate definitions found.
	---Fragment 1 Geometry and Gradient---
	 C          -0.0848492692        0.0025911097       -0.3200075310
	 C          -0.0242716282        2.2919312502        1.0511465024
	 C           0.0319342585        2.2848671096        3.6772635858
	 C           0.0186942446        0.0002710343        4.9953148828
	 C          -0.0235651140       -2.2838094859        3.6776933496
	 C          -0.0482335552       -2.2892623945        1.0518568482
	 C          -0.0599992323        0.0014151442       -3.1251725553
	 H          -0.0743618929        4.1144115171        0.1143995163
	 H           0.0726629799        4.0624321220        4.6987874727
	 H           0.0531922814       -0.0004407640        7.0466051845
	 H          -0.0122843378       -4.0622837710        4.6986639870
	 H           0.0024378445       -4.1104086422        0.1127731956
	 N          -0.1162539166       -2.1385094208       -4.4506753918
	 N           0.1307191268        2.1369089699       -4.4513512265
	 H           0.0870459650        2.1541675855       -6.3701576486
	 H           0.4900649201        3.8051889234       -3.6001153924
	 H          -0.4922682274       -3.8139601708       -3.6183042153
	 H           0.0493355528       -2.1555082269       -6.3584610403
	            -0.0026236508        0.0005081571        0.0030174986
	             0.0028361031        0.0006456094        0.0024679412
	             0.0002914053       -0.0001622747        0.0004869603
	            -0.0001690044       -0.0001806551       -0.0014087530
	            -0.0003535860        0.0002977193        0.0004838587
	             0.0002517645       -0.0011650142        0.0031476638
	            -0.0057817300       -0.0009711077       -0.0013495855
	             0.0001722606       -0.0004302436        0.0012715894
	             0.0000307440       -0.0001566622        0.0005125043
	             0.0000681277       -0.0000393578        0.0000092059
	            -0.0000772268        0.0001051231        0.0005154830
	             0.0004094981        0.0004040645        0.0012716697
	             0.0042003233        0.0035047377       -0.0037552718
	            -0.0002379047       -0.0021067951       -0.0026092867
	            -0.0003118856       -0.0000115128       -0.0031517986
	             0.0008042702       -0.0005768583       -0.0000602585
	            -0.0002214861        0.0000704748        0.0002259428
	             0.0007113039        0.0002615973       -0.0010830195

	---Fragment 1 Intrafragment Coordinates---
	 - Coordinate -           - BOHR/RAD -       - ANG/DEG -
	 R(1,2)           =         2.669234	       1.412498
	 R(1,6)           =         2.671319	       1.413601
	 R(1,7)           =         2.805275	       1.484488
	 R(2,3)           =         2.626728	       1.390005
	 R(2,8)           =         2.049741	       1.084676
	 R(3,4)           =         2.637577	       1.395746
	 R(3,9)           =         2.050587	       1.085124
	 R(4,5)           =         2.637221	       1.395557
	 R(4,10)          =         2.051580	       1.085650
	 R(5,6)           =         2.625958	       1.389597
	 R(5,11)          =         2.050726	       1.085198
	 R(6,12)          =         2.049639	       1.084622
	 R(7,13)          =         2.517816	       1.332371
	 R(7,14)          =         2.521003	       1.334057
	 R(13,17)         =         1.908236	       1.009795
	 R(13,18)         =         1.915034	       1.013392
	 R(14,15)         =         1.919381	       1.015693
	 R(14,16)         =         1.907063	       1.009174
	 B(1,2,3)         =         2.108014	     120.780316
	 B(1,2,8)         =         2.126180	     121.821164
	 B(1,6,5)         =         2.108164	     120.788912
	 B(1,6,12)        =         2.126273	     121.826493
	 B(1,7,13)        =         2.125377	     121.775142
	 B(1,7,14)        =         2.125094	     121.758921
	 B(2,1,6)         =         2.062042	     118.146330
	 B(2,1,7)         =         2.110435	     120.919047
	 B(2,3,4)         =         2.096505	     120.120897
	 B(2,3,9)         =         2.089943	     119.744922
	 B(3,2,8)         =         2.048583	     117.375187
	 B(3,4,5)         =         2.095081	     120.039296
	 B(3,4,10)        =         2.094240	     119.991127
	 B(4,3,9)         =         2.096712	     120.132755
	 B(4,5,6)         =         2.096187	     120.102655
	 B(4,5,11)        =         2.097032	     120.151061
	 B(5,4,10)        =         2.093845	     119.968462
	 B(5,6,12)        =         2.048523	     117.371745
	 B(6,1,7)         =         2.109533	     120.867332
	 B(6,5,11)        =         2.089881	     119.741375
	 B(7,13,17)       =         2.118816	     121.399220
	 B(7,13,18)       =         2.129478	     122.010125
	 B(7,14,15)       =         2.131509	     122.126469
	 B(7,14,16)       =         2.118191	     121.363428
	 B(13,7,14)       =         2.031631	     116.403862
	 B(15,14,16)      =         2.029345	     116.272924
	 B(17,13,18)      =         2.030623	     116.346146
	 D(1,2,3,4)       =        -0.004549	      -0.260643
	 D(1,2,3,9)       =        -3.138570	    -179.826835
	 D(1,6,5,4)       =        -0.023436	      -1.342788
	 D(1,6,5,11)      =         3.132202	     179.461950
	 D(1,7,13,17)     =         0.194750	      11.158375
	 D(1,7,13,18)     =        -3.049631	    -174.730981
	 D(1,7,14,15)     =        -3.103462	    -177.815290
	 D(1,7,14,16)     =         0.139444	       7.989553
	 D(2,1,6,5)       =         0.030313	       1.736779
	 D(2,1,6,12)      =        -3.087919	    -176.924737
	*D(2,1,7,13)      =         3.141593	     180.000000
	 D(2,1,7,14)      =         0.051825	       2.969328
	 D(2,3,4,5)       =         0.012046	       0.690169
	 D(2,3,4,10)      =        -3.136253	    -179.694037
	 D(3,2,1,6)       =        -0.016306	      -0.934289
	 D(3,2,1,7)       =        -3.106275	    -177.976434
	 D(3,4,5,6)       =         0.001899	       0.108814
	 D(3,4,5,11)      =         3.129389	     179.300754
	 D(4,3,2,8)       =         3.106926	     178.013746
	 D(4,5,6,12)      =         3.095806	     177.376605
	 D(5,4,3,9)       =        -3.137148	    -179.745334
	 D(5,6,1,7)       =         3.120309	     178.780523
	 D(6,1,2,8)       =        -3.126423	    -179.130837
	 D(6,1,7,13)      =         0.053041	       3.039049
	 D(6,1,7,14)      =        -3.036736	    -173.992148
	 D(6,5,4,10)      =        -3.132989	    -179.507068
	 D(7,1,2,8)       =         0.066794	       3.827018
	 D(7,1,6,12)      =         0.002077	       0.119006
	 D(8,2,3,9)       =        -0.027095	      -1.552446
	 D(9,3,4,10)      =        -0.002261	      -0.129539
	 D(10,4,5,11)     =        -0.005500	      -0.315128
	 D(11,5,6,12)     =        -0.031742	      -1.818656
	 D(13,7,14,15)    =         0.087308	       5.002374
	 D(13,7,14,16)    =        -2.952971	    -169.192783
	 D(14,7,13,17)    =        -2.996028	    -171.659783
	 D(14,7,13,18)    =         0.042776	       2.450860

	Current energy   :      -381.4652905876

	Energy change for the previous step:
		Projected    :        -0.0039817445
		Actual       :        -0.0013407192

	Performing BFGS update.
	Previous computed or guess Hessian on step 1.
	Steps to be used in Hessian update: 1
	Taking RFO optimization step.
	Going to follow RFO solution 1.
	Using RFO vector 1.
	Norm of target step-size    0.07651
	Projected energy change by RFO approximation:        -0.0015621449

	Back-transformation to cartesian coordinates...
	Could not converge backtransformation.
	Using first guess instead.

	Back-transformation to cartesian coordinates to adjust frozen coordinates...
	Successfully converged to displaced geometry.

	--- Internal Coordinate Step in ANG or DEG, aJ/ANG or AJ/DEG ---
	 ---------------------------------------------------------------------------
	   Coordinate                Previous        Force       Change         New 
	   ----------                --------       ------       ------       ------
	    1 R(1,2)          =      1.412498    -0.027847    -0.002748     1.409750
	    2 R(1,6)          =      1.413601    -0.033904    -0.003629     1.409972
	    3 R(1,7)          =      1.484488    -0.096989    -0.011115     1.473372
	    4 R(2,3)          =      1.390005    -0.003536    -0.000547     1.389458
	    5 R(2,8)          =      1.084676     0.007976     0.000674     1.085350
	    6 R(3,4)          =      1.395746     0.012790     0.001196     1.396942
	    7 R(3,9)          =      1.085124    -0.000991    -0.000139     1.084985
	    8 R(4,5)          =      1.395557     0.015414     0.001497     1.397054
	    9 R(4,10)         =      1.085650    -0.000089    -0.000054     1.085596
	   10 R(5,6)          =      1.389597    -0.001372    -0.000226     1.389372
	   11 R(5,11)         =      1.085198    -0.001362    -0.000207     1.084991
	   12 R(6,12)         =      1.084622     0.007676     0.000668     1.085290
	   13 R(7,13)         =      1.332371     0.007740     0.000630     1.333001
	   14 R(7,14)         =      1.334057    -0.006583    -0.000832     1.333225
	   15 R(13,17)        =      1.009795    -0.000659    -0.000649     1.009146
	   16 R(13,18)        =      1.013392    -0.009374    -0.001106     1.012286
	   17 R(14,15)        =      1.015693    -0.026011    -0.003334     1.012359
	   18 R(14,16)        =      1.009174     0.003124     0.000219     1.009393
	   19 B(1,2,3)        =    120.780316    -0.000110    -0.209978   120.570338
	   20 B(1,2,8)        =    121.821164    -0.000018    -0.019513   121.801651
	   21 B(1,6,5)        =    120.788912    -0.000120    -0.235232   120.553680
	   22 B(1,6,12)       =    121.826493    -0.000014    -0.007592   121.818902
	   23 B(1,7,13)       =    121.775142    -0.000381    -0.693596   121.081547
	   24 B(1,7,14)       =    121.758921    -0.000411    -0.755557   121.003365
	   25 B(2,1,6)        =    118.146330     0.000320     0.500270   118.646599
	   26 B(2,1,7)        =    120.919047    -0.000158    -0.270247   120.648800
	   27 B(2,3,4)        =    120.120897    -0.000033    -0.029970   120.090927
	   28 B(2,3,9)        =    119.744922    -0.000024    -0.120437   119.624485
	   29 B(3,2,8)        =    117.375187     0.000128     0.229029   117.604216
	   30 B(3,4,5)        =    120.039296    -0.000032    -0.017279   120.022017
	   31 B(3,4,10)       =    119.991127     0.000013    -0.003876   119.987251
	   32 B(4,3,9)        =    120.132755     0.000057     0.151576   120.284331
	   33 B(4,5,6)        =    120.102655    -0.000024    -0.003627   120.099028
	   34 B(4,5,11)       =    120.151061     0.000051     0.129973   120.281034
	   35 B(5,4,10)       =    119.968462     0.000019     0.021734   119.990196
	   36 B(5,6,12)       =    117.371745     0.000134     0.245520   117.617265
	   37 B(6,1,7)        =    120.867332    -0.000162    -0.266820   120.600512
	   38 B(6,5,11)       =    119.741375    -0.000027    -0.124176   119.617199
	   39 B(7,13,17)      =    121.399220     0.000008     0.106841   121.506060
	   40 B(7,13,18)      =    122.010125     0.000018    -0.013591   121.996534
	   41 B(7,14,15)      =    122.126469    -0.000004    -0.077880   122.048590
	   42 B(7,14,16)      =    121.363428     0.000021     0.187019   121.550447
	   43 B(13,7,14)      =    116.403862     0.000793     1.476874   117.880736
	   44 B(15,14,16)     =    116.272924    -0.000013    -0.045830   116.227094
	   45 B(17,13,18)     =    116.346146    -0.000029    -0.155407   116.190740
	   46 D(1,2,3,4)      =     -0.260643     0.000003     0.291350     0.030707
	   47 D(1,2,3,9)      =   -179.826835     0.000001     0.041458  -179.785376
	   48 D(1,6,5,4)      =     -1.342788     0.000004     0.232594    -1.110194
	   49 D(1,6,5,11)     =    179.461950     0.000002     0.028098   179.490048
	   50 D(1,7,13,17)    =     11.158375    -0.000005    -0.815336    10.343040
	   51 D(1,7,13,18)    =   -174.730981    -0.000010    -1.529130  -176.260111
	   52 D(1,7,14,15)    =   -177.815290    -0.000001    -0.249273  -178.064562
	   53 D(1,7,14,16)    =      7.989553    -0.000011    -1.080079     6.909474
	   54 D(2,1,6,5)      =      1.736779    -0.000002    -0.127630     1.609150
	   55 D(2,1,6,12)     =   -176.924737    -0.000002    -0.279129  -177.203866
	   56 *D(2,1,7,13)    =    180.000000    -0.000000     0.000000   180.000000
	   57 D(2,1,7,14)     =      2.969328    -0.000012    -0.792820     2.176508
	   58 D(2,3,4,5)      =      0.690169    -0.000003    -0.195285     0.494884
	   59 D(2,3,4,10)     =   -179.694037    -0.000001    -0.077477  -179.771514
	   60 D(3,2,1,6)      =     -0.934289    -0.000001    -0.134500    -1.068788
	   61 D(3,2,1,7)      =   -177.976434     0.000003     0.594868  -177.381566
	   62 D(3,4,5,6)      =      0.108814    -0.000001    -0.064580     0.044234
	   63 D(3,4,5,11)     =    179.300754     0.000001     0.139217   179.439972
	   64 D(4,3,2,8)      =    178.013746     0.000001     0.274248   178.287994
	   65 D(4,5,6,12)     =    177.376605     0.000003     0.374911   177.751516
	   66 D(5,4,3,9)      =   -179.745334    -0.000001     0.055076  -179.690257
	   67 D(5,6,1,7)      =    178.780523    -0.000007    -0.856754   177.923769
	   68 D(6,1,2,8)      =   -179.130837    -0.000000    -0.120795  -179.251632
	   69 D(6,1,7,13)     =      3.039049     0.000002     0.719880     3.758928
	   70 D(6,1,7,14)     =   -173.992148    -0.000010    -0.071812  -174.063960
	   71 D(6,5,4,10)     =   -179.507068    -0.000002    -0.182292  -179.689360
	   72 D(7,1,2,8)      =      3.827018     0.000005     0.608572     4.435590
	   73 D(7,1,6,12)     =      0.119006    -0.000006    -1.008253    -0.889247
	   74 D(8,2,3,9)      =     -1.552446    -0.000001     0.024356    -1.528090
	   75 D(9,3,4,10)     =     -0.129539     0.000001     0.172884     0.043345
	   76 D(10,4,5,11)    =     -0.315128    -0.000000     0.021505    -0.293623
	   77 D(11,5,6,12)    =     -1.818656     0.000001     0.170415    -1.648241
	   78 D(13,7,14,15)   =      5.002374    -0.000005    -0.957563     4.044811
	   79 D(13,7,14,16)   =   -169.192783    -0.000015    -1.788369  -170.981152
	   80 D(14,7,13,17)   =   -171.659783    -0.000001    -0.108284  -171.768068
	   81 D(14,7,13,18)   =      2.450860    -0.000006    -0.822079     1.628781
	 ---------------------------------------------------------------------------
	Successfully symmetrized geometry.

  ==> Convergence Check <==

  Measures of convergence in internal coordinates in au.
  Criteria marked as inactive (o), active & met (*), and active & unmet ( ).
  ---------------------------------------------------------------------------------------------
   Step     Total Energy     Delta E     MAX Force     RMS Force      MAX Disp      RMS Disp   
  ---------------------------------------------------------------------------------------------
    Convergence Criteria    1.00e-06 *    3.00e-04 *             o    1.20e-03 *             o
  ---------------------------------------------------------------------------------------------
      2    -381.46529059   -1.34e-03      1.18e-02      2.20e-03 o    3.12e-02      8.50e-03 o  ~
  ---------------------------------------------------------------------------------------------

	Writing optimization data to binary file.
	Structure for next step:
	Cartesian Geometry (in Angstrom)
	    C    -0.0499164789   0.0007280495  -0.1751967066
	    C    -0.0146979592   1.2130728381   0.5433949043
	    C     0.0161371955   1.2105487394   1.9325080863
	    C     0.0131026093   0.0007430902   2.6309409464
	    C    -0.0105186314  -1.2092445658   1.9329923324
	    C    -0.0301001521  -1.2120076609   0.5437614962
	    C    -0.0247455172  -0.0002068653  -1.6483537549
	    H    -0.0398060685   2.1756874843   0.0426673587
	    H     0.0395096372   2.1526636680   2.4701569044
	    H     0.0334760601   0.0007888929   3.7163452993
	    H    -0.0038090478  -2.1514089857   2.4710315246
	    H    -0.0103974635  -2.1742700191   0.0422463206
	    N    -0.0576847520  -1.1413946043  -2.3364645729
	    N     0.0750664845   1.1387142816  -2.3342003315
	    H     0.0649047425   1.1589694760  -3.3463056390
	    H     0.2391636800   2.0209370871  -1.8719988803
	    H    -0.2545409060  -2.0229961931  -1.8865736006
	    H     0.0148565677  -1.1613237127  -3.3459516874
			--------------------------
			 OPTKING Finished Execution 
			--------------------------

    Structure for next step:
    Molecular point group: c1
    Full point group: C1

    Geometry (in Angstrom), charge = 1, multiplicity = 1:

    C           -0.049916478877     0.000728049506    -0.175196706647
    C           -0.014697959247     1.213072838098     0.543394904332
    C            0.016137195467     1.210548739383     1.932508086291
    C            0.013102609302     0.000743090223     2.630940946351
    C           -0.010518631416    -1.209244565825     1.932992332435
    C           -0.030100152107    -1.212007660914     0.543761496249
    C           -0.024745517163    -0.000206865298    -1.648353754912
    H           -0.039806068523     2.175687484275     0.042667358680
    H            0.039509637172     2.152663667976     2.470156904398
    H            0.033476060093     0.000788892897     3.716345299319
    H           -0.003809047814    -2.151408985711     2.471031524610
    H           -0.010397463544    -2.174270019145     0.042246320613
    N           -0.057684752008    -1.141394604315    -2.336464572885
    N            0.075066484519     1.138714281633    -2.334200331488
    H            0.064904742483     1.158969475989    -3.346305639014
    H            0.239163679985     2.020937087053    -1.871998880261
    H           -0.254540906036    -2.022996193142    -1.886573600625
    H            0.014856567715    -1.161323712682    -3.345951687444

gradient() will perform analytic gradient computation.

*** tstart() called on oliva.prib.upf.edu
*** at Sat Sep 29 20:40:14 2018

   => Loading Basis Set <=

    Name: 6-31G*
    Role: ORBITAL
    Keyword: BASIS
    atoms 1-7         entry C          line   111 file /shared/joao/test_parameterize/miniconda3/share/psi4/basis/6-31gs.gbs 
    atoms 8-12, 15-18 entry H          line    44 file /shared/joao/test_parameterize/miniconda3/share/psi4/basis/6-31gs.gbs 
    atoms 13-14       entry N          line   128 file /shared/joao/test_parameterize/miniconda3/share/psi4/basis/6-31gs.gbs 


         ---------------------------------------------------------
                                   SCF
            by Justin Turney, Rob Parrish, Andy Simmonett
                             and Daniel Smith
                              RKS Reference
                        4 Threads,   2861 MiB Core
         ---------------------------------------------------------

  ==> Geometry <==

    Molecular point group: c1
    Full point group: C1

    Geometry (in Angstrom), charge = 1, multiplicity = 1:

       Center              X                  Y                   Z               Mass       
[...]
	            -0.0000068773        0.0000218532        0.0000207951
	            -0.0000348275       -0.0000069868        0.0000062051
	             0.0000073628        0.0000020067        0.0000003878
	             0.0000052847       -0.0000062841       -0.0000041798
	            -0.0000015750        0.0000079770       -0.0000067841
	             0.0000009359       -0.0000064100       -0.0000013409

	---Fragment 1 Intrafragment Coordinates---
	 - Coordinate -           - BOHR/RAD -       - ANG/DEG -
	 R(1,2)           =         2.663666	       1.409551
	 R(1,6)           =         2.663676	       1.409557
	 R(1,7)           =         2.782946	       1.472671
	 R(2,3)           =         2.626175	       1.389712
	 R(2,8)           =         2.051322	       1.085513
	 R(3,4)           =         2.639979	       1.397017
	 R(3,9)           =         2.050302	       1.084973
	 R(4,5)           =         2.639998	       1.397027
	 R(4,10)          =         2.051365	       1.085535
	 R(5,6)           =         2.626157	       1.389702
	 R(5,11)          =         2.050300	       1.084972
	 R(6,12)          =         2.051324	       1.085514
	 R(7,13)          =         2.516953	       1.331914
	 R(7,14)          =         2.516982	       1.331930
	 R(13,17)         =         1.906214	       1.008725
	 R(13,18)         =         1.912836	       1.012229
	 R(14,15)         =         1.912831	       1.012227
	 R(14,16)         =         1.906220	       1.008728
	 B(1,2,3)         =         2.105250	     120.621962
	 B(1,2,8)         =         2.127717	     121.909223
	 B(1,6,5)         =         2.105256	     120.622286
	 B(1,6,12)        =         2.127700	     121.908235
	 B(1,7,13)        =         2.113318	     121.084177
	 B(1,7,14)        =         2.113335	     121.085156
	 B(2,1,6)         =         2.069421	     118.569105
	 B(2,1,7)         =         2.106902	     120.716590
	 B(2,3,4)         =         2.096464	     120.118516
	 B(2,3,9)         =         2.086897	     119.570414
	 B(3,2,8)         =         2.050218	     117.468816
	 B(3,4,5)         =         2.093520	     119.949859
	 B(3,4,10)        =         2.094841	     120.025537
	 B(4,3,9)         =         2.099824	     120.311070
	 B(4,5,6)         =         2.096459	     120.118272
	 B(4,5,11)        =         2.099810	     120.310248
	 B(5,4,10)        =         2.094825	     120.024604
	 B(5,6,12)        =         2.050229	     117.469478
	 B(6,1,7)         =         2.106862	     120.714303
	 B(6,5,11)        =         2.086916	     119.571479
	 B(7,13,17)       =         2.122650	     121.618878
	 B(7,13,18)       =         2.132689	     122.194097
	 B(7,14,15)       =         2.132657	     122.192265
	 B(7,14,16)       =         2.122643	     121.618464
	 B(13,7,14)       =         2.056533	     117.830664
	 B(15,14,16)      =         2.027884	     116.189188
	 B(17,13,18)      =         2.027846	     116.187023
	 D(1,2,3,4)       =        -0.000143	      -0.008207
	 D(1,2,3,9)       =         3.141543	     179.997176
	 D(1,6,5,4)       =        -0.000069	      -0.003933
	 D(1,6,5,11)      =        -3.141518	    -179.995745
	 D(1,7,13,17)     =         0.000195	       0.011192
	 D(1,7,13,18)     =         3.141511	     179.995293
	 D(1,7,14,15)     =         3.140984	     179.965141
	 D(1,7,14,16)     =         0.001290	       0.073912
	 D(2,1,6,5)       =         0.000034	       0.001949
	 D(2,1,6,12)      =        -3.141511	    -179.995313
	*D(2,1,7,13)      =         3.141593	     180.000000
	 D(2,1,7,14)      =        -0.000387	      -0.022179
	 D(2,3,4,5)       =         0.000108	       0.006187
	 D(2,3,4,10)      =         3.141593	     180.000000
	 D(3,2,1,6)       =         0.000072	       0.004127
	 D(3,2,1,7)       =        -3.141260	    -179.980961
	 D(3,4,5,6)       =        -0.000000	      -0.000000
	 D(3,4,5,11)      =         3.141446	     179.991619
	 D(4,3,2,8)       =         3.141435	     179.990972
	 D(4,5,6,12)      =         3.141478	     179.993448
	 D(5,4,3,9)       =         3.141593	     180.000000
	 D(5,6,1,7)       =         3.141366	     179.987037
	 D(6,1,2,8)       =        -3.141506	    -179.995015
	 D(6,1,7,13)      =         0.000256	       0.014640
	 D(6,1,7,14)      =         3.141471	     179.993055
	 D(6,5,4,10)      =        -3.141473	    -179.993172
	 D(7,1,2,8)       =         0.000347	       0.019897
	 D(7,1,6,12)      =        -0.000178	      -0.010225
	 D(8,2,3,9)       =        -0.000064	      -0.003645
	 D(9,3,4,10)      =        -0.000108	      -0.006195
	 D(10,4,5,11)     =        -0.000025	      -0.001421
	 D(11,5,6,12)     =         0.000029	       0.001636
	 D(13,7,14,15)    =        -0.000973	      -0.055763
	 D(13,7,14,16)    =        -3.140667	    -179.946992
	 D(14,7,13,17)    =        -3.141032	    -179.967904
	 D(14,7,13,18)    =         0.000283	       0.016197

	Current energy   :      -381.4658907725

	Energy change for the previous step:
		Projected    :        -0.0000001894
		Actual       :        -0.0000001133

	Performing BFGS update.
	Previous computed or guess Hessian on step 1.
	Steps to be used in Hessian update: 10 9
	Taking RFO optimization step.
	Going to follow RFO solution 1.
	Using RFO vector 1.
	Norm of target step-size    0.00163
	Projected energy change by RFO approximation:        -0.0000000716

	Back-transformation to cartesian coordinates...
	Could not converge backtransformation.
	Using first guess instead.

	Back-transformation to cartesian coordinates to adjust frozen coordinates...
	Successfully converged to displaced geometry.

	--- Internal Coordinate Step in ANG or DEG, aJ/ANG or AJ/DEG ---
	 ---------------------------------------------------------------------------
	   Coordinate                Previous        Force       Change         New 
	   ----------                --------       ------       ------       ------
	    1 R(1,2)          =      1.409551     0.000023     0.000009     1.409561
	    2 R(1,6)          =      1.409557     0.000029     0.000006     1.409563
	    3 R(1,7)          =      1.472671    -0.000058    -0.000011     1.472660
	    4 R(2,3)          =      1.389712    -0.000057    -0.000009     1.389703
	    5 R(2,8)          =      1.085513     0.000010     0.000000     1.085513
	    6 R(3,4)          =      1.397017     0.000033     0.000004     1.397021
	    7 R(3,9)          =      1.084973     0.000001     0.000000     1.084973
	    8 R(4,5)          =      1.397027    -0.000009    -0.000003     1.397024
	    9 R(4,10)         =      1.085535     0.000001     0.000000     1.085536
	   10 R(5,6)          =      1.389702    -0.000016    -0.000002     1.389701
	   11 R(5,11)         =      1.084972     0.000009     0.000001     1.084973
	   12 R(6,12)         =      1.085514    -0.000004    -0.000002     1.085513
	   13 R(7,13)         =      1.331914     0.000200     0.000025     1.331939
	   14 R(7,14)         =      1.331930     0.000078     0.000007     1.331937
	   15 R(13,17)        =      1.008725     0.000089     0.000005     1.008730
	   16 R(13,18)        =      1.012229    -0.000023    -0.000002     1.012228
	   17 R(14,15)        =      1.012227    -0.000008    -0.000001     1.012226
	   18 R(14,16)        =      1.008728     0.000066     0.000006     1.008735
	   19 B(1,2,3)        =    120.621962    -0.000000    -0.000238   120.621723
	   20 B(1,2,8)        =    121.909223    -0.000000    -0.002051   121.907172
	   21 B(1,6,5)        =    120.622286    -0.000000    -0.000573   120.621714
	   22 B(1,6,12)       =    121.908235    -0.000000    -0.001493   121.906742
	   23 B(1,7,13)       =    121.084177     0.000000    -0.000289   121.083888
	   24 B(1,7,14)       =    121.085156    -0.000001    -0.000554   121.084602
	   25 B(2,1,6)        =    118.569105     0.000000     0.000488   118.569593
	   26 B(2,1,7)        =    120.716590    -0.000001    -0.000875   120.715716
	   27 B(2,3,4)        =    120.118516    -0.000000    -0.000370   120.118146
	   28 B(2,3,9)        =    119.570414     0.000000     0.000946   119.571360
	   29 B(3,2,8)        =    117.468816     0.000001     0.002289   117.471105
	   30 B(3,4,5)        =    119.949859     0.000000     0.000823   119.950682
	   31 B(3,4,10)       =    120.025537    -0.000000    -0.000714   120.024823
	   32 B(4,3,9)        =    120.311070    -0.000000    -0.000576   120.310494
	   33 B(4,5,6)        =    120.118272    -0.000000    -0.000130   120.118142
	   34 B(4,5,11)       =    120.310248    -0.000000    -0.000169   120.310079
	   35 B(5,4,10)       =    120.024604    -0.000000    -0.000109   120.024495
	   36 B(5,6,12)       =    117.469478     0.000000     0.002066   117.471544
	   37 B(6,1,7)        =    120.714303     0.000000     0.000389   120.714692
	   38 B(6,5,11)       =    119.571479     0.000000     0.000300   119.571779
	   39 B(7,13,17)      =    121.618878    -0.000000    -0.000288   121.618590
	   40 B(7,13,18)      =    122.194097    -0.000000    -0.002537   122.191560
	   41 B(7,14,15)      =    122.192265    -0.000000    -0.000555   122.191710
	   42 B(7,14,16)      =    121.618464    -0.000000    -0.000735   121.617729
	   43 B(13,7,14)      =    117.830664     0.000001     0.000846   117.831510
	   44 B(15,14,16)     =    116.189188     0.000000     0.001353   116.190541
	   45 B(17,13,18)     =    116.187023     0.000000     0.002824   116.189848
	   46 D(1,2,3,4)      =     -0.008207     0.000000     0.009889     0.001682
	   47 D(1,2,3,9)      =    179.997176     0.000000     0.004355   180.001531
	   48 D(1,6,5,4)      =     -0.003933     0.000000     0.003933     0.000000
	   49 D(1,6,5,11)     =   -179.995745    -0.000000    -0.005439  -180.001183
	   50 D(1,7,13,17)    =      0.011192     0.000000    -0.029550    -0.018358
	   51 D(1,7,13,18)    =    179.995293     0.000000     0.004707   180.000000
	   52 D(1,7,14,15)    =    179.965141     0.000000     0.008886   179.974027
	   53 D(1,7,14,16)    =      0.073912    -0.000000    -0.047163     0.026749
	   54 D(2,1,6,5)      =      0.001949    -0.000000    -0.003766    -0.001817
	   55 D(2,1,6,12)     =   -179.995313    -0.000000    -0.010466  -180.005780
	   56 *D(2,1,7,13)    =    180.000000    -0.000000     0.000000   180.000000
	   57 D(2,1,7,14)     =     -0.022179     0.000000     0.012283    -0.009896
	   58 D(2,3,4,5)      =      0.006187    -0.000000    -0.009225    -0.003038
	   59 D(2,3,4,10)     =    180.000000     0.000000     0.000000   180.000000
	   60 D(3,2,1,6)      =      0.004127    -0.000000    -0.004127     0.000000
	   61 D(3,2,1,7)      =   -179.980961    -0.000000    -0.019039  -180.000000
	   62 D(3,4,5,6)      =      0.000000     0.000000     0.001957     0.001957
	   63 D(3,4,5,11)     =    179.991619     0.000000     0.012019   180.003638
	   64 D(4,3,2,8)      =    179.990972     0.000000     0.007150   179.998122
	   65 D(4,5,6,12)     =    179.993448     0.000000     0.010829   180.004277
	   66 D(5,4,3,9)      =    180.000000    -0.000000    -0.002885   179.997115
	   67 D(5,6,1,7)      =    179.987037     0.000000     0.011504   179.998540
	   68 D(6,1,2,8)      =   -179.995015     0.000000    -0.000532  -179.995547
	   69 D(6,1,7,13)     =      0.014640    -0.000000    -0.015599    -0.000959
	   70 D(6,1,7,14)     =    179.993055     0.000000    -0.003316   179.989739
	   71 D(6,5,4,10)     =   -179.993172    -0.000000    -0.006828  -180.000000
	   72 D(7,1,2,8)      =      0.019897    -0.000000    -0.015801     0.004096
	   73 D(7,1,6,12)     =     -0.010225     0.000000     0.004803    -0.005422
	   74 D(8,2,3,9)      =     -0.003645    -0.000000     0.001616    -0.002030
	   75 D(9,3,4,10)     =     -0.006195     0.000000     0.006195     0.000000
	   76 D(10,4,5,11)    =     -0.001421     0.000000     0.002474     0.001052
	   77 D(11,5,6,12)    =      0.001636    -0.000000     0.000972     0.002608
	   78 D(13,7,14,15)   =     -0.055763     0.000000     0.020781    -0.034981
	   79 D(13,7,14,16)   =   -179.946992     0.000000    -0.035268  -179.982260
	   80 D(14,7,13,17)   =   -179.967904    -0.000000    -0.041445  -180.009349
	   81 D(14,7,13,18)   =      0.016197    -0.000000    -0.007041     0.009156
	 ---------------------------------------------------------------------------
	Successfully symmetrized geometry.

  ==> Convergence Check <==

  Measures of convergence in internal coordinates in au.
  Criteria marked as inactive (o), active & met (*), and active & unmet ( ).
  ---------------------------------------------------------------------------------------------
   Step     Total Energy     Delta E     MAX Force     RMS Force      MAX Disp      RMS Disp   
  ---------------------------------------------------------------------------------------------
    Convergence Criteria    1.00e-06 *    3.00e-04 *             o    1.20e-03 *             o
  ---------------------------------------------------------------------------------------------
     11    -381.46589077   -1.13e-07 *    2.43e-05 *    5.20e-06 o    8.23e-04 *    1.81e-04 o  ~
  ---------------------------------------------------------------------------------------------


  **** Optimization is complete! (in 11 steps) ****

  ==> Optimization Summary <==

  Measures of convergence in internal coordinates in au.
  --------------------------------------------------------------------------------------------------------------- ~
   Step         Total Energy             Delta E       MAX Force       RMS Force        MAX Disp        RMS Disp  ~
  --------------------------------------------------------------------------------------------------------------- ~
      1    -381.463949868367   -381.463949868367      0.01638733      0.00351926      0.10485680      0.02690431  ~
      2    -381.465290587566     -0.001340719199      0.01177234      0.00220349      0.03121293      0.00850017  ~
      3    -381.465788817244     -0.000498229679      0.00119764      0.00024577      0.02124333      0.00587868  ~
      4    -381.465826773531     -0.000037956287      0.00034393      0.00010113      0.02688807      0.00714485  ~
      5    -381.465849655760     -0.000022882229      0.00059423      0.00012808      0.02379318      0.00604336  ~
      6    -381.465863671475     -0.000014015715      0.00040090      0.00010743      0.03157700      0.00697437  ~
      7    -381.465875756800     -0.000012085325      0.00043375      0.00007571      0.03717503      0.00765871  ~
      8    -381.465884608862     -0.000008852062      0.00052800      0.00007813      0.03506751      0.00687284  ~
      9    -381.465889398868     -0.000004790006      0.00039142      0.00005696      0.01809786      0.00357098  ~
     10    -381.465890659248     -0.000001260379      0.00007873      0.00001714      0.00448424      0.00090467  ~
     11    -381.465890772499     -0.000000113251      0.00002425      0.00000520      0.00082315      0.00018060  ~
  --------------------------------------------------------------------------------------------------------------- ~

	Writing optimization data to binary file.
	Final energy is   -381.4658907724989
	Final (previous) structure:
	Cartesian Geometry (in Angstrom)
	    C    -0.0002062795   0.0000301236  -0.1768058187
	    C     0.0409376093   1.2111336600   0.5431734588
	    C     0.0410615819   1.2088421507   1.9328837250
	    C     0.0000264146  -0.0000174712   2.6319044047
	    C    -0.0410806929  -1.2088640897   1.9328446216
	    C    -0.0412314161  -1.2111013819   0.5431440421
	    C     0.0000004334   0.0000133066  -1.6494772641
	    H     0.0734973566   2.1745401445   0.0440485907
	    H     0.0731143592   2.1510704630   2.4698617590
	    H     0.0001958270  -0.0000472781   3.7174397576
	    H    -0.0729287340  -2.1511054978   2.4698090725
	    H    -0.0738781500  -2.1744843091   0.0439762226
	    N    -0.0387150886  -1.1399982516  -2.3371327567
	    N     0.0384795710   1.1400252889  -2.3371754785
	    H     0.0398005991   1.1595429323  -3.3492130750
	    H     0.0696854305   2.0358878440  -1.8745857964
	    H    -0.0694482988  -2.0358631282  -1.8745234433
	    H    -0.0393105225  -1.1596035060  -3.3491720220
	Saving final (previous) structure.
	Removing binary optimization data file.
			--------------------------
			 OPTKING Finished Execution 
			--------------------------

    Final optimized geometry and variables:
    Molecular point group: c1
    Full point group: C1

    Geometry (in Angstrom), charge = 1, multiplicity = 1:

    C           -0.000206279504     0.000030123557    -0.176805818667
    C            0.040937609327     1.211133660033     0.543173458780
    C            0.041061581886     1.208842150692     1.932883725044
    C            0.000026414605    -0.000017471181     2.631904404747
    C           -0.041080692924    -1.208864089658     1.932844621643
    C           -0.041231416146    -1.211101381934     0.543144042054
    C            0.000000433388     0.000013306615    -1.649477264149
    H            0.073497356556     2.174540144484     0.044048590731
    H            0.073114359227     2.151070463043     2.469861759012
    H            0.000195826969    -0.000047278135     3.717439757625
    H           -0.072928734012    -2.151105497843     2.469809072454
    H           -0.073878150046    -2.174484309062     0.043976222632
    N           -0.038715088607    -1.139998251608    -2.337132756716
    N            0.038479570952     1.140025288915    -2.337175478508
    H            0.039800599052     1.159542932296    -3.349213074988
    H            0.069685430485     2.035887843993    -1.874585796388
    H           -0.069448298751    -2.035863128167    -1.874523443308
    H           -0.039310522457    -1.159603506040    -3.349172021997

	Removing binary optimization data file.
	Cleaning optimization helper files.


Properties will be evaluated at   0.000000,   0.000000,   0.000000 [a0]
OEProp: No title given, name of density matrix used for the following properties is 'SCF density'
  Nuclear Dipole Moment: [e a0]
     X:    -0.0073      Y:     0.0007      Z:     0.2334

  Electronic Dipole Moment: [e a0]
     X:     0.0081      Y:    -0.0007      Z:    -2.3899

  Dipole Moment: [e a0]
     X:     0.0008      Y:    -0.0000      Z:    -2.1565     Total:     2.1565

  Dipole Moment: [D]
     X:     0.0020      Y:    -0.0001      Z:    -5.4813     Total:     5.4813

  Quadrupole Moment: [D A]
    XX:   -55.3750     YY:   -32.4800     ZZ:   -12.4270
    XY:     0.7831     XZ:    -0.0047     YZ:     0.0003

  Traceless Quadrupole Moment: [D A]
    XX:   -21.9476     YY:     0.9474     ZZ:    21.0003
    XY:     0.7831     XZ:    -0.0047     YZ:     0.0003

  Mulliken Charges: (a.u.)
   Center  Symbol    Alpha    Beta     Spin     Total
       1     C     2.92330  2.92330  0.00000  0.15339
       2     C     3.08669  3.08669  0.00000 -0.17339
       3     C     3.06153  3.06153  0.00000 -0.12306
       4     C     3.05119  3.05119  0.00000 -0.10238
       5     C     3.06153  3.06153  0.00000 -0.12306
       6     C     3.08669  3.08669  0.00000 -0.17339
       7     C     2.70472  2.70472  0.00000  0.59055
       8     H     0.42243  0.42243  0.00000  0.15513
       9     H     0.40493  0.40493  0.00000  0.19014
      10     H     0.40263  0.40263  0.00000  0.19475
      11     H     0.40493  0.40493  0.00000  0.19014
      12     H     0.42244  0.42244  0.00000  0.15513
      13     N     3.87877  3.87877  0.00000 -0.75755
      14     N     3.87877  3.87877  0.00000 -0.75755
      15     H     0.30596  0.30596  0.00000  0.38808
      16     H     0.29876  0.29876  0.00000  0.40249
      17     H     0.29876  0.29876  0.00000  0.40249
      18     H     0.30596  0.30596  0.00000  0.38808

   Total alpha = 32.00000, Total beta = 32.00000, Total charge =  1.00000


    Psi4 stopped on: Saturday, 29 September 2018 08:44PM
    Psi4 wall time for execution: 0:05:07.24

*** Psi4 exiting successfully. Buy a developer a beer!
