
    -----------------------------------------------------------------------
          Psi4: An Open-Source Ab Initio Electronic Structure Package
                               Psi4 1.2.1 release

                         Git: Rev {HEAD} 406f4de 


    R. M. Parrish, L. A. Burns, D. G. A. Smith, A. C. Simmonett,
    A. E. DePrince III, E. G. Hohenstein, U. Bozkaya, A. Yu. Sokolov,
    R. Di Remigio, R. M. Richard, J. F. Gonthier, A. M. James,
    H. R. McAlexander, A. Kumar, M. Saitow, X. Wang, B. P. Pritchard,
    P. Verma, H. F. Schaefer III, K. Patkowski, R. A. King, E. F. Valeev,
    F. A. Evangelista, J. M. Turney, T. D. Crawford, and C. D. Sherrill,
    J. Chem. Theory Comput. 13(7) pp 3185--3197 (2017).
    (doi: 10.1021/acs.jctc.7b00174)


                         Additional Contributions by
    P. Kraus, H. Kruse, M. H. Lechner, M. C. Schieber, and R. A. Shaw

    -----------------------------------------------------------------------


    Psi4 started on: Saturday, 29 September 2018 04:50PM

    Process ID: 5350
    Host:       loro.prib.upf.edu
    PSIDATADIR: /shared/joao/test_parameterize/miniconda3/share/psi4
    Memory:     500.0 MiB
    Threads:    1
    
  ==> Input File <==

--------------------------------------------------------------------------
set_num_threads(1)
set_memory('5348 MB')

set { scf_mem_safety_factor 0.7 }

set { reference rks }
set { basis cc-pVDZ }

molecule MOL {
    0 1
    noreorient
    nocom
    symmetry c1
    O    1.141000   0.017000   0.083000
    C    2.558000   0.086000  -0.005000
    C    3.192000  -0.789000   1.067000
    O    4.610000  -0.719000   0.979000
    H    0.789000   0.590000  -0.620000
    H    2.874000   1.128000   0.115000
    H    2.871000  -0.243000  -1.001000
    H    2.876000  -1.830000   0.947000
    H    2.879000  -0.459000   2.064000
    H    4.814549  -0.252197   0.150061
}

set optking { frozen_dihedral = (" 2 3 4 10 ") }

energy, wfn = energy('B3LYP-D3', return_wfn=True)

import os
os.chdir(os.environ['HTMD_PSI4_WORKDIR'])

oeprop(wfn, 'DIPOLE', 'QUADRUPOLE', 'MULLIKEN_CHARGES')

with open('psi4out.xyz', 'w') as f:
    f.write('10 ' )
    f.write('%.12f\n' % energy)
    f.write(MOL.save_string_xyz())
--------------------------------------------------------------------------
  Threads set to 1 by Python driver.

  Memory set to   4.981 GiB by Python driver.

*** tstart() called on loro.prib.upf.edu
*** at Sat Sep 29 16:50:24 2018

   => Loading Basis Set <=

    Name: CC-PVDZ
    Role: ORBITAL
    Keyword: BASIS
    atoms 1, 4 entry O          line   198 file /shared/joao/test_parameterize/miniconda3/share/psi4/basis/cc-pvdz.gbs 
    atoms 2-3  entry C          line   138 file /shared/joao/test_parameterize/miniconda3/share/psi4/basis/cc-pvdz.gbs 
    atoms 5-10 entry H          line    22 file /shared/joao/test_parameterize/miniconda3/share/psi4/basis/cc-pvdz.gbs 


         ---------------------------------------------------------
                                   SCF
            by Justin Turney, Rob Parrish, Andy Simmonett
                             and Daniel Smith
                              RKS Reference
                        1 Threads,   5100 MiB Core
         ---------------------------------------------------------

  ==> Geometry <==

    Molecular point group: c1
    Full point group: C1

    Geometry (in Angstrom), charge = 0, multiplicity = 1:

       Center              X                  Y                   Z               Mass       
    ------------   -----------------  -----------------  -----------------  -----------------
         O            1.141000000000     0.017000000000     0.083000000000    15.994914619560
         C            2.558000000000     0.086000000000    -0.005000000000    12.000000000000
         C            3.192000000000    -0.789000000000     1.067000000000    12.000000000000
         O            4.610000000000    -0.719000000000     0.979000000000    15.994914619560
         H            0.789000000000     0.590000000000    -0.620000000000     1.007825032070
         H            2.874000000000     1.128000000000     0.115000000000     1.007825032070
         H            2.871000000000    -0.243000000000    -1.001000000000     1.007825032070
         H            2.876000000000    -1.830000000000     0.947000000000     1.007825032070
         H            2.879000000000    -0.459000000000     2.064000000000     1.007825032070
         H            4.814549000000    -0.252197000000     0.150061000000     1.007825032070

  Running in c1 symmetry.

  Rotational constants: A =      0.81834  B =      0.02560  C =      0.02507 [cm^-1]
  Rotational constants: A =  24533.36316  B =    767.60524  C =    751.46284 [MHz]
  Nuclear repulsion =  130.137698006179903

  Charge       = 0
  Multiplicity = 1
  Electrons    = 34
  Nalpha       = 17
  Nbeta        = 17

  ==> Algorithm <==

  SCF Algorithm Type is DF.
  DIIS enabled.
  MOM disabled.
  Fractional occupation disabled.
  Guess Type is SAD.
  Energy threshold   = 1.00e-06
  Density threshold  = 1.00e-06
  Integral threshold = 0.00e+00

  ==> Primary Basis <==

  Basis Set: CC-PVDZ
    Blend: CC-PVDZ
    Number of shells: 42
    Number of basis function: 86
    Number of Cartesian functions: 90
    Spherical Harmonics?: true
    Max angular momentum: 2

  ==> DFT Potential <==

   => Composite Functional: B3LYP-D3ZERO <= 

    B3LYP-d3zero Hyb-GGA Exchange-Correlation Functional

    P. J. Stephens, F. J. Devlin, C. F. Chabalowski, and M. J. Frisch, J. Phys. Chem. 98, 11623 (1994)

    Deriv               =              1
    GGA                 =           TRUE
    Meta                =          FALSE

    Exchange Hybrid     =           TRUE
    MP2 Hybrid          =          FALSE

   => Exchange Functionals <=

    0.0800   Slater exchange
    0.7200         Becke 88

   => Exact (HF) Exchange <=

    0.2000               HF 

   => Correlation Functionals <=

    0.1900   Vosko, Wilk & Nusair (VWN5_RPA)
    0.8100   Lee, Yang & Parr

   => Molecular Quadrature <=

    Radial Scheme       =       TREUTLER
    Pruning Scheme      =           FLAT
    Nuclear Scheme      =       TREUTLER

    BS radius alpha     =              1
    Pruning alpha       =              1
    Radial Points       =             75
    Spherical Points    =            302
    Total Points        =         222528
    Total Blocks        =           1750
    Max Points          =            256
    Max Functions       =             86

   => -D3ZERO: Empirical Dispersion <=

    Grimme's -D3 (zero-damping) Dispersion Correction
    Grimme S.; Antony J.; Ehrlich S.; Krieg H. (2010), J. Chem. Phys., 132: 154104

        S6 =   1.000000E+00
        S8 =   1.703000E+00
       SR6 =   1.261000E+00
       SR8 =   1.000000E+00
    ALPHA6 =   1.400000E+01

   => Loading Basis Set <=

    Name: (CC-PVDZ AUX)
    Role: JKFIT
    Keyword: DF_BASIS_SCF
    atoms 1, 4 entry O          line   221 file /shared/joao/test_parameterize/miniconda3/share/psi4/basis/cc-pvdz-jkfit.gbs 
    atoms 2-3  entry C          line   121 file /shared/joao/test_parameterize/miniconda3/share/psi4/basis/cc-pvdz-jkfit.gbs 
    atoms 5-10 entry H          line    51 file /shared/joao/test_parameterize/miniconda3/share/psi4/basis/cc-pvdz-jkfit.gbs 

  ==> Pre-Iterations <==

   -------------------------------------------------------
    Irrep   Nso     Nmo     Nalpha   Nbeta   Ndocc  Nsocc
   -------------------------------------------------------
     A         86      86       0       0       0       0
   -------------------------------------------------------
    Total      86      86      17      17      17       0
   -------------------------------------------------------

  ==> Integral Setup <==

  DFHelper Memory: AOs need 0.030 [GiB]; user supplied 3.486 [GiB]. Using in-core AOs.

  ==> MemDFJK: Density-Fitted J/K Matrices <==

    J tasked:                   Yes
    K tasked:                   Yes
    wK tasked:                   No
    OpenMP threads:               1
    Memory (MB):               3570
    Algorithm:                 Core
    Schwarz Cutoff:           1E-12
    Mask sparsity (%):       0.2704
    Fitting Condition:        1E-12

   => Auxiliary Basis Set <=

  Basis Set: (CC-PVDZ AUX)
    Blend: CC-PVDZ-JKFIT
    Number of shells: 150
    Number of basis function: 418
    Number of Cartesian functions: 474
    Spherical Harmonics?: true
    Max angular momentum: 3

  Minimum eigenvalue in the overlap matrix is 4.9464565648E-03.
  Using Symmetric Orthogonalization.

  SCF Guess: Superposition of Atomic Densities via on-the-fly atomic UHF.

  ==> Iterations <==

                           Total Energy        Delta E     RMS |[F,P]|

   @DF-RKS iter   0:  -231.05716430836233   -2.31057e+02   4.14963e-02 
   @DF-RKS iter   1:  -230.18848530759797    8.68679e-01   4.72870e-03 
   @DF-RKS iter   2:  -230.15608736645302    3.23979e-02   6.08682e-03 DIIS
   @DF-RKS iter   3:  -230.25427457305159   -9.81872e-02   7.03273e-04 DIIS
   @DF-RKS iter   4:  -230.25561391681569   -1.33934e-03   2.10640e-04 DIIS
   @DF-RKS iter   5:  -230.25576951594951   -1.55599e-04   4.79822e-05 DIIS
   @DF-RKS iter   6:  -230.25577754520020   -8.02925e-06   5.50779e-06 DIIS
   @DF-RKS iter   7:  -230.25577760535265   -6.01524e-08   3.49258e-06 DIIS
   @DF-RKS iter   8:  -230.25577763677370   -3.14211e-08   5.70076e-07 DIIS

  ==> Post-Iterations <==

    Orbital Energies [Eh]
    ---------------------

    Doubly Occupied:                                                      

       1A    -19.139659     2A    -19.133274     3A    -10.237478  
       4A    -10.226769     5A     -1.025866     6A     -1.012448  
       7A     -0.733688     8A     -0.626083     9A     -0.518549  
      10A     -0.486630    11A     -0.476889    12A     -0.423435  
      13A     -0.399180    14A     -0.355266    15A     -0.323758  
      16A     -0.273428    17A     -0.265741  

    Virtual:                                                              

      18A      0.039034    19A      0.053722    20A      0.099896  
      21A      0.107524    22A      0.123665    23A      0.164807  
      24A      0.200789    25A      0.231251    26A      0.241990  
      27A      0.432434    28A      0.437378    29A      0.494927  
      30A      0.527872    31A      0.554739    32A      0.583842  
      33A      0.604714    34A      0.619372    35A      0.629119  
      36A      0.649038    37A      0.652537    38A      0.672217  
      39A      0.873595    40A      0.883483    41A      0.912764  
      42A      0.973195    43A      1.026701    44A      1.049986  
      45A      1.053977    46A      1.129837    47A      1.186469  
      48A      1.206905    49A      1.264122    50A      1.297298  
      51A      1.333780    52A      1.363830    53A      1.499357  
      54A      1.563514    55A      1.586816    56A      1.605060  
      57A      1.640757    58A      1.644005    59A      1.662987  
      60A      1.680227    61A      1.716522    62A      1.777485  
      63A      1.787581    64A      1.872753    65A      1.902012  
      66A      1.968983    67A      2.048603    68A      2.054189  
      69A      2.141402    70A      2.149452    71A      2.264129  
      72A      2.281269    73A      2.408051    74A      2.421091  
      75A      2.485027    76A      2.508129    77A      2.921269  
      78A      2.934493    79A      3.020226    80A      3.021946  
      81A      3.056565    82A      3.086686    83A      3.185277  
      84A      3.266215    85A      3.667470    86A      3.693093  

    Final Occupation by Irrep:
              A 
    DOCC [    17 ]

  Energy converged.

  @DF-RKS Final Energy:  -230.25577763677370

   => Energetics <=

    Nuclear Repulsion Energy =            130.1376980061799031
    One-Electron Energy =                -571.8378555414956281
    Two-Electron Energy =                 235.9875235938663423
    DFT Exchange-Correlation Energy =     -24.5385106853243400
    Empirical Dispersion Energy =          -0.0046330100000000
    VV10 Nonlocal Energy =                  0.0000000000000000
    Total Energy =                       -230.2557776367737290



Properties will be evaluated at   0.000000,   0.000000,   0.000000 [a0]

Properties computed using the SCF density matrix

  Nuclear Dipole Moment: [e a0]
     X:   184.4591      Y:   -20.5984      Z:    31.2241

  Electronic Dipole Moment: [e a0]
     X:  -184.6204      Y:    21.2009      Z:   -32.0902

  Dipole Moment: [e a0]
     X:    -0.1613      Y:     0.6025      Z:    -0.8661     Total:     1.0673

  Dipole Moment: [D]
     X:    -0.4101      Y:     1.5314      Z:    -2.2014     Total:     2.7129


*** tstop() called on loro.prib.upf.edu at Sat Sep 29 16:50:40 2018
Module time:
	user time   =      13.01 seconds =       0.22 minutes
	system time =       0.21 seconds =       0.00 minutes
	total time  =         16 seconds =       0.27 minutes
Total time:
	user time   =      13.01 seconds =       0.22 minutes
	system time =       0.21 seconds =       0.00 minutes
	total time  =         16 seconds =       0.27 minutes


Properties will be evaluated at   0.000000,   0.000000,   0.000000 [a0]
OEProp: No title given, name of density matrix used for the following properties is 'SCF density'
  Nuclear Dipole Moment: [e a0]
     X:   184.4591      Y:   -20.5984      Z:    31.2241

  Electronic Dipole Moment: [e a0]
     X:  -184.6204      Y:    21.2009      Z:   -32.0902

  Dipole Moment: [e a0]
     X:    -0.1613      Y:     0.6025      Z:    -0.8661     Total:     1.0673

  Dipole Moment: [D]
     X:    -0.4101      Y:     1.5314      Z:    -2.2014     Total:     2.7129

  Quadrupole Moment: [D A]
    XX:   -29.8980     YY:   -24.8181     ZZ:   -24.9659
    XY:     4.4191     XZ:    -7.2288     YZ:    -0.0957

  Traceless Quadrupole Moment: [D A]
    XX:    -3.3373     YY:     1.7426     ZZ:     1.5947
    XY:     4.4191     XZ:    -7.2288     YZ:    -0.0957

  Mulliken Charges: (a.u.)
   Center  Symbol    Alpha    Beta     Spin     Total
       1     O     4.13651  4.13651  0.00000 -0.27302
       2     C     2.96139  2.96139  0.00000  0.07722
       3     C     2.91981  2.91981  0.00000  0.16037
       4     O     4.13647  4.13647  0.00000 -0.27294
       5     H     0.42796  0.42796  0.00000  0.14409
       6     H     0.49900  0.49900  0.00000  0.00199
       7     H     0.50117  0.50117  0.00000 -0.00234
       8     H     0.49381  0.49381  0.00000  0.01238
       9     H     0.49069  0.49069  0.00000  0.01861
      10     H     0.43318  0.43318  0.00000  0.13365

   Total alpha = 17.00000, Total beta = 17.00000, Total charge =  0.00000


    Psi4 stopped on: Saturday, 29 September 2018 04:50PM
    Psi4 wall time for execution: 0:00:16.01

*** Psi4 exiting successfully. Buy a developer a beer!
