
    -----------------------------------------------------------------------
          Psi4: An Open-Source Ab Initio Electronic Structure Package
                               Psi4 1.2.1 release

                         Git: Rev {HEAD} 406f4de 


    R. M. Parrish, L. A. Burns, D. G. A. Smith, A. C. Simmonett,
    A. E. DePrince III, E. G. Hohenstein, U. Bozkaya, A. Yu. Sokolov,
    R. Di Remigio, R. M. Richard, J. F. Gonthier, A. M. James,
    H. R. McAlexander, A. Kumar, M. Saitow, X. Wang, B. P. Pritchard,
    P. Verma, H. F. Schaefer III, K. Patkowski, R. A. King, E. F. Valeev,
    F. A. Evangelista, J. M. Turney, T. D. Crawford, and C. D. Sherrill,
    J. Chem. Theory Comput. 13(7) pp 3185--3197 (2017).
    (doi: 10.1021/acs.jctc.7b00174)


                         Additional Contributions by
    P. Kraus, H. Kruse, M. H. Lechner, M. C. Schieber, and R. A. Shaw

    -----------------------------------------------------------------------


    Psi4 started on: Saturday, 29 September 2018 08:38PM

    Process ID: 3480
    Host:       rosa.prib.upf.edu
    PSIDATADIR: /shared/joao/test_parameterize/miniconda3/share/psi4
    Memory:     500.0 MiB
    Threads:    1
    
  ==> Input File <==

--------------------------------------------------------------------------
set_num_threads(4)
set_memory('3000 MB')

set { scf_mem_safety_factor 0.7 }

set { reference rks }
set { basis 6-31G* }

molecule MOL {
    1 1
    noreorient
    nocom
    symmetry c1
    C   -0.000000  -0.000000  -0.177864
    C    0.036678   1.219374   0.524165
    C    0.031765   1.213120   1.915444
    C    0.000000   0.000000   2.610107
    C   -0.031765  -1.213120   1.915444
    C   -0.036678  -1.219375   0.524165
    C   -0.000000   0.000000  -1.644734
    H    0.018170   2.164705  -0.010854
    H    0.042402   2.152895   2.457886
    H    0.000000   0.000000   3.695756
    H   -0.042402  -2.152895   2.457886
    H   -0.018170  -2.164705  -0.010853
    N   -0.712590  -0.905950  -2.308461
    N    0.712590   0.905950  -2.308460
    H    0.673432   1.006470  -3.315997
    H    1.377190   1.485970  -1.813316
    H   -0.835873  -0.816342  -3.308488
    H   -1.094181  -1.735514  -1.869168
}

set optking { frozen_dihedral = (" 1 7 13 17 ") }

set optking { dynamic_level = 1 
 geom_maxiter = 250
 print_trajectory_xyz_file = True }

energy, wfn = optimize('B3LYP-D3', return_wfn=True)

import os
os.chdir(os.environ['HTMD_PSI4_WORKDIR'])

oeprop(wfn, 'DIPOLE', 'QUADRUPOLE', 'MULLIKEN_CHARGES')

with open('psi4out.xyz', 'w') as f:
    f.write('18 ' )
    f.write('%.12f\n' % energy)
    f.write(MOL.save_string_xyz())
--------------------------------------------------------------------------
  Threads set to 4 by Python driver.

  Memory set to   2.794 GiB by Python driver.
gradient() will perform analytic gradient computation.

*** tstart() called on rosa.prib.upf.edu
*** at Sat Sep 29 20:38:36 2018

   => Loading Basis Set <=

    Name: 6-31G*
    Role: ORBITAL
    Keyword: BASIS
    atoms 1-7         entry C          line   111 file /shared/joao/test_parameterize/miniconda3/share/psi4/basis/6-31gs.gbs 
    atoms 8-12, 15-18 entry H          line    44 file /shared/joao/test_parameterize/miniconda3/share/psi4/basis/6-31gs.gbs 
    atoms 13-14       entry N          line   128 file /shared/joao/test_parameterize/miniconda3/share/psi4/basis/6-31gs.gbs 


         ---------------------------------------------------------
                                   SCF
            by Justin Turney, Rob Parrish, Andy Simmonett
                             and Daniel Smith
                              RKS Reference
                        4 Threads,   2861 MiB Core
         ---------------------------------------------------------

  ==> Geometry <==

    Molecular point group: c1
    Full point group: C1

    Geometry (in Angstrom), charge = 1, multiplicity = 1:

       Center              X                  Y                   Z               Mass       
    ------------   -----------------  -----------------  -----------------  -----------------
         C            0.000000000000     0.000000000000    -0.177864000000    12.000000000000
         C            0.036678000000     1.219374000000     0.524165000000    12.000000000000
         C            0.031765000000     1.213120000000     1.915444000000    12.000000000000
         C            0.000000000000     0.000000000000     2.610107000000    12.000000000000
         C           -0.031765000000    -1.213120000000     1.915444000000    12.000000000000
         C           -0.036678000000    -1.219375000000     0.524165000000    12.000000000000
         C            0.000000000000     0.000000000000    -1.644734000000    12.000000000000
         H            0.018170000000     2.164705000000    -0.010854000000     1.007825032070
         H            0.042402000000     2.152895000000     2.457886000000     1.007825032070
         H            0.000000000000     0.000000000000     3.695756000000     1.007825032070
         H           -0.042402000000    -2.152895000000     2.457886000000     1.007825032070
         H           -0.018170000000    -2.164705000000    -0.010853000000     1.007825032070
         N           -0.712590000000    -0.905950000000    -2.308461000000    14.003074004780
         N            0.712590000000     0.905950000000    -2.308460000000    14.003074004780
         H            0.673432000000     1.006470000000    -3.315997000000     1.007825032070
         H            1.377190000000     1.485970000000    -1.813316000000     1.007825032070
         H           -0.835873000000    -0.816342000000    -3.308488000000     1.007825032070
         H           -1.094181000000    -1.735514000000    -1.869168000000     1.007825032070

  Running in c1 symmetry.

  Rotational constants: A =      0.12190  B =      0.03959  C =      0.03126 [cm^-1]
  Rotational constants: A =   3654.40590  B =   1186.92206  C =    937.17452 [MHz]
  Nuclear repulsion =  416.913662087016064

  Charge       = 1
  Multiplicity = 1
  Electrons    = 64
  Nalpha       = 32
  Nbeta        = 32

  ==> Algorithm <==

  SCF Algorithm Type is DF.
  DIIS enabled.
  MOM disabled.
  Fractional occupation disabled.
  Guess Type is SAD.
  Energy threshold   = 1.00e-08
  Density threshold  = 1.00e-08
  Integral threshold = 0.00e+00

  ==> Primary Basis <==

  Basis Set: 6-31G*
    Blend: 6-31G*
    Number of shells: 72
    Number of basis function: 153
    Number of Cartesian functions: 153
    Spherical Harmonics?: false
    Max angular momentum: 2

  ==> DFT Potential <==

   => Composite Functional: B3LYP-D3ZERO <= 

    B3LYP-d3zero Hyb-GGA Exchange-Correlation Functional

    P. J. Stephens, F. J. Devlin, C. F. Chabalowski, and M. J. Frisch, J. Phys. Chem. 98, 11623 (1994)

    Deriv               =              1
    GGA                 =           TRUE
    Meta                =          FALSE

    Exchange Hybrid     =           TRUE
    MP2 Hybrid          =          FALSE

   => Exchange Functionals <=

    0.0800   Slater exchange
    0.7200         Becke 88

   => Exact (HF) Exchange <=

    0.2000               HF 

   => Correlation Functionals <=

    0.1900   Vosko, Wilk & Nusair (VWN5_RPA)
    0.8100   Lee, Yang & Parr

   => Molecular Quadrature <=

    Radial Scheme       =       TREUTLER
    Pruning Scheme      =           FLAT
    Nuclear Scheme      =       TREUTLER

    BS radius alpha     =              1
    Pruning alpha       =              1
    Radial Points       =             75
    Spherical Points    =            302
    Total Points        =         396884
    Total Blocks        =           2995
    Max Points          =            256
    Max Functions       =            149

   => -D3ZERO: Empirical Dispersion <=

    Grimme's -D3 (zero-damping) Dispersion Correction
    Grimme S.; Antony J.; Ehrlich S.; Krieg H. (2010), J. Chem. Phys., 132: 154104

        S6 =   1.000000E+00
        S8 =   1.703000E+00
       SR6 =   1.261000E+00
       SR8 =   1.000000E+00
    ALPHA6 =   1.400000E+01

   => Loading Basis Set <=

    Name: (6-31G* AUX)
    Role: JKFIT
    Keyword: DF_BASIS_SCF
    atoms 1-7         entry C          line   121 file /shared/joao/test_parameterize/miniconda3/share/psi4/basis/cc-pvdz-jkfit.gbs 
    atoms 8-12, 15-18 entry H          line    51 file /shared/joao/test_parameterize/miniconda3/share/psi4/basis/cc-pvdz-jkfit.gbs 
    atoms 13-14       entry N          line   171 file /shared/joao/test_parameterize/miniconda3/share/psi4/basis/cc-pvdz-jkfit.gbs 

  ==> Pre-Iterations <==

   -------------------------------------------------------
    Irrep   Nso     Nmo     Nalpha   Nbeta   Ndocc  Nsocc
   -------------------------------------------------------
     A        153     153       0       0       0       0
   -------------------------------------------------------
    Total     153     153      32      32      32       0
   -------------------------------------------------------

  ==> Integral Setup <==

  ==> DiskDFJK: Density-Fitted J/K Matrices <==

    J tasked:                  Yes
    K tasked:                  Yes
    wK tasked:                  No
    OpenMP threads:              4
    Integrals threads:           4
    Memory (MB):              2002
    Algorithm:                Core
    Integral Cache:           NONE
    Schwarz Cutoff:          1E-12
    Fitting Condition:       1E-12

   => Auxiliary Basis Set <=

  Basis Set: (6-31G* AUX)
    Blend: CC-PVDZ-JKFIT
    Number of shells: 297
    Number of basis function: 954
    Number of Cartesian functions: 954
    Spherical Harmonics?: false
    Max angular momentum: 3

  Minimum eigenvalue in the overlap matrix is 4.8672591205E-04.
  Using Symmetric Orthogonalization.

  SCF Guess: Superposition of Atomic Densities via on-the-fly atomic UHF.

  ==> Iterations <==

                           Total Energy        Delta E     RMS |[F,P]|

   @DF-RKS iter   0:  -379.62257357554040   -3.79623e+02   4.79212e-02 
   @DF-RKS iter   1:  -381.03965645987131   -1.41708e+00   1.17712e-02 
   @DF-RKS iter   2:  -380.95844197687802    8.12145e-02   1.29033e-02 DIIS
   @DF-RKS iter   3:  -381.45849123739237   -5.00049e-01   1.13290e-03 DIIS
   @DF-RKS iter   4:  -381.46390542258558   -5.41419e-03   5.56855e-04 DIIS
   @DF-RKS iter   5:  -381.46543122130925   -1.52580e-03   1.66774e-04 DIIS
   @DF-RKS iter   6:  -381.46556549705133   -1.34276e-04   7.97611e-05 DIIS
   @DF-RKS iter   7:  -381.46558267556765   -1.71785e-05   9.93108e-06 DIIS
   @DF-RKS iter   8:  -381.46558313622137   -4.60654e-07   6.54264e-06 DIIS
   @DF-RKS iter   9:  -381.46558326944108   -1.33220e-07   1.41899e-06 DIIS
   @DF-RKS iter  10:  -381.46558328183858   -1.23975e-08   6.35495e-07 DIIS
   @DF-RKS iter  11:  -381.46558328301461   -1.17603e-09   5.66662e-08 DIIS
   @DF-RKS iter  12:  -381.46558328302433   -9.72022e-12   5.91625e-08 DIIS
   @DF-RKS iter  13:  -381.46558328303439   -1.00613e-11   1.33636e-08 DIIS
   @DF-RKS iter  14:  -381.46558328303576   -1.36424e-12   3.85471e-09 DIIS

  ==> Post-Iterations <==

    Orbital Energies [Eh]
    ---------------------

    Doubly Occupied:                                                      

       1A    -14.569369     2A    -14.567158     3A    -10.498818  
       4A    -10.373664     5A    -10.357060     6A    -10.356121  
       7A    -10.342306     8A    -10.340669     9A    -10.340167  
      10A     -1.185050    11A     -1.092406    12A     -1.014401  
      13A     -0.926909    14A     -0.902469    15A     -0.846170  
      16A     -0.787128    17A     -0.773854    18A     -0.740955  
      19A     -0.733364    20A     -0.690283    21A     -0.669522  
      22A     -0.628259    23A     -0.616335    24A     -0.589896  
      25A     -0.577855    26A     -0.574279    27A     -0.517260  
      28A     -0.506152    29A     -0.498429    30A     -0.471176  
      31A     -0.410149    32A     -0.405615  

    Virtual:                                                              

      33A     -0.217442    34A     -0.157161    35A     -0.133258  
      36A     -0.111334    37A     -0.071745    38A     -0.060887  
      39A     -0.039283    40A     -0.033181    41A      0.007211  
      42A      0.020005    43A      0.026295    44A      0.060029  
      45A      0.063830    46A      0.083623    47A      0.123622  
      48A      0.149768    49A      0.157063    50A      0.162875  
      51A      0.203810    52A      0.243349    53A      0.297788  
      54A      0.350170    55A      0.353912    56A      0.379340  
      57A      0.387958    58A      0.397424    59A      0.421356  
      60A      0.423166    61A      0.441451    62A      0.449365  
      63A      0.452665    64A      0.470753    65A      0.471500  
      66A      0.475072    67A      0.485687    68A      0.504086  
      69A      0.518388    70A      0.536626    71A      0.541354  
      72A      0.590228    73A      0.608310    74A      0.651629  
      75A      0.663024    76A      0.679937    77A      0.689512  
      78A      0.705062    79A      0.716743    80A      0.722079  
      81A      0.754872    82A      0.775223    83A      0.778590  
      84A      0.805188    85A      0.814320    86A      0.839979  
      87A      0.848518    88A      0.937312    89A      0.961228  
      90A      0.987705    91A      1.004637    92A      1.023840  
      93A      1.036182    94A      1.070298    95A      1.141530  
      96A      1.171472    97A      1.249333    98A      1.269356  
      99A      1.280995   100A      1.310019   101A      1.320915  
     102A      1.343520   103A      1.358675   104A      1.363709  
     105A      1.406111   106A      1.449977   107A      1.514043  
     108A      1.605038   109A      1.618896   110A      1.652500  
     111A      1.675057   112A      1.736459   113A      1.753472  
     114A      1.796227   115A      1.826012   116A      1.846646  
     117A      1.899273   118A      1.921840   119A      1.960772  
     120A      1.978317   121A      1.996474   122A      2.019626  
     123A      2.034119   124A      2.075466   125A      2.109159  
     126A      2.128957   127A      2.150988   128A      2.196601  
     129A      2.223092   130A      2.270578   131A      2.340172  
     132A      2.374473   133A      2.446472   134A      2.452368  
     135A      2.489295   136A      2.521930   137A      2.546655  
     138A      2.589211   139A      2.604759   140A      2.628877  
     141A      2.739098   142A      2.880346   143A      2.985858  
     144A      3.258715   145A      3.637293   146A      3.658055  
     147A      3.914854   148A      3.948720   149A      3.963551  
     150A      4.053721   151A      4.173425   152A      4.256997  
     153A      4.546325  

    Final Occupation by Irrep:
              A 
    DOCC [    32 ]

  Energy converged.

  @DF-RKS Final Energy:  -381.46558328303576

   => Energetics <=

    Nuclear Repulsion Energy =            416.9136620870160641
    One-Electron Energy =               -1329.0039476867525536
    Two-Electron Energy =                 575.0428970046413042
    DFT Exchange-Correlation Energy =     -44.4063336179405468
    Empirical Dispersion Energy =          -0.0118610700000000
    VV10 Nonlocal Energy =                  0.0000000000000000
    Total Energy =                       -381.4655832830357554



Properties will be evaluated at   0.000000,   0.000000,   0.000000 [a0]

Properties computed using the SCF density matrix

  Nuclear Dipole Moment: [e a0]
     X:     0.2278      Y:    -0.1123      Z:    -0.0666

  Electronic Dipole Moment: [e a0]
     X:    -0.1529      Y:     0.0881      Z:    -2.2162

  Dipole Moment: [e a0]
     X:     0.0750      Y:    -0.0242      Z:    -2.2828     Total:     2.2842

  Dipole Moment: [D]
     X:     0.1906      Y:    -0.0614      Z:    -5.8023     Total:     5.8058


*** tstop() called on rosa.prib.upf.edu at Sat Sep 29 20:39:16 2018
Module time:
	user time   =     113.96 seconds =       1.90 minutes
	system time =       1.84 seconds =       0.03 minutes
	total time  =         40 seconds =       0.67 minutes
Total time:
	user time   =     113.96 seconds =       1.90 minutes
	system time =       1.84 seconds =       0.03 minutes
	total time  =         40 seconds =       0.67 minutes

*** tstart() called on rosa.prib.upf.edu
*** at Sat Sep 29 20:39:16 2018


         ------------------------------------------------------------
                                   SCF GRAD                          
                          Rob Parrish, Justin Turney,                
                       Andy Simmonett, and Alex Sokolov              
         ------------------------------------------------------------

  ==> Geometry <==

    Molecular point group: c1
    Full point group: C1

    Geometry (in Angstrom), charge = 1, multiplicity = 1:

       Center              X                  Y                   Z               Mass       
    ------------   -----------------  -----------------  -----------------  -----------------
         C            0.000000000000     0.000000000000    -0.177864000000    12.000000000000
         C            0.036678000000     1.219374000000     0.524165000000    12.000000000000
         C            0.031765000000     1.213120000000     1.915444000000    12.000000000000
         C            0.000000000000     0.000000000000     2.610107000000    12.000000000000
         C           -0.031765000000    -1.213120000000     1.915444000000    12.000000000000
         C           -0.036678000000    -1.219375000000     0.524165000000    12.000000000000
         C            0.000000000000     0.000000000000    -1.644734000000    12.000000000000
         H            0.018170000000     2.164705000000    -0.010854000000     1.007825032070
         H            0.042402000000     2.152895000000     2.457886000000     1.007825032070
         H            0.000000000000     0.000000000000     3.695756000000     1.007825032070
         H           -0.042402000000    -2.152895000000     2.457886000000     1.007825032070
         H           -0.018170000000    -2.164705000000    -0.010853000000     1.007825032070
         N           -0.712590000000    -0.905950000000    -2.308461000000    14.003074004780
         N            0.712590000000     0.905950000000    -2.308460000000    14.003074004780
         H            0.673432000000     1.006470000000    -3.315997000000     1.007825032070
         H            1.377190000000     1.485970000000    -1.813316000000     1.007825032070
         H           -0.835873000000    -0.816342000000    -3.308488000000     1.007825032070
         H           -1.094181000000    -1.735514000000    -1.869168000000     1.007825032070

  Nuclear repulsion =  416.913662087016064

  ==> Basis Set <==

  Basis Set: 6-31G*
    Blend: 6-31G*
    Number of shells: 72
    Number of basis function: 153
    Number of Cartesian functions: 153
    Spherical Harmonics?: false
    Max angular momentum: 2

  ==> DFJKGrad: Density-Fitted SCF Gradients <==

    Gradient:                    1
    J tasked:                  Yes
    K tasked:                  Yes
    wK tasked:                  No
    OpenMP threads:              4
    Integrals threads:           4
    Memory (MB):              2002
    Schwarz Cutoff:          0E+00
    Fitting Condition:       1E-12

   => Auxiliary Basis Set <=

  Basis Set: (6-31G* AUX)
    Blend: CC-PVDZ-JKFIT
    Number of shells: 297
    Number of basis function: 954
    Number of Cartesian functions: 954
    Spherical Harmonics?: false
    Max angular momentum: 3

  ==> DFT Potential <==

   => Composite Functional: B3LYP-D3ZERO <= 

    B3LYP-d3zero Hyb-GGA Exchange-Correlation Functional

    P. J. Stephens, F. J. Devlin, C. F. Chabalowski, and M. J. Frisch, J. Phys. Chem. 98, 11623 (1994)

    Deriv               =              1
    GGA                 =           TRUE
    Meta                =          FALSE

    Exchange Hybrid     =           TRUE
    MP2 Hybrid          =          FALSE

   => Exchange Functionals <=

    0.0800   Slater exchange
    0.7200         Becke 88

   => Exact (HF) Exchange <=

    0.2000               HF 

   => Correlation Functionals <=

    0.1900   Vosko, Wilk & Nusair (VWN5_RPA)
    0.8100   Lee, Yang & Parr

   => Molecular Quadrature <=

    Radial Scheme       =       TREUTLER
    Pruning Scheme      =           FLAT
    Nuclear Scheme      =       TREUTLER

    BS radius alpha     =              1
    Pruning alpha       =              1
    Radial Points       =             75
    Spherical Points    =            302
    Total Points        =         396884
    Total Blocks        =           2995
    Max Points          =            256
    Max Functions       =            149


  -Total Gradient:
     Atom            X                  Y                   Z
    ------   -----------------  -----------------  -----------------
       1       -0.004591551297     0.003079649298    -0.001696579848
       2       -0.000517008844     0.000384720636     0.001237650424
       3        0.000491912627     0.000781449972    -0.000646523581
       4       -0.000098699055    -0.000607187520     0.000066086574
       5        0.000053820236     0.000630785113     0.000480749277
       6       -0.000051138242    -0.001973802327    -0.000724352770
       7       -0.001985515123     0.004468478912    -0.004350708447
       8       -0.000162925170     0.000034145349    -0.000053799781
       9        0.000052179552    -0.000021141934     0.000055081539
      10       -0.000021429648     0.000046515069     0.000037406899
      11        0.000045287746    -0.000012158663    -0.000040481792
      12       -0.000277190631     0.000777204449    -0.000866707868
      13       -0.001142366116    -0.002997884432     0.007058818706
      14        0.004453761012    -0.002772593678    -0.000086673771
      15       -0.001271028346     0.000617266256     0.000191189708
      16        0.002254555587    -0.001861911098    -0.000422103871
      17       -0.002391122838     0.006387737297     0.002688772961
      18        0.005163300418    -0.006960549317    -0.002941308942


*** tstop() called on rosa.prib.upf.edu at Sat Sep 29 20:39:25 2018
Module time:
	user time   =      28.65 seconds =       0.48 minutes
	system time =       0.67 seconds =       0.01 minutes
	total time  =          9 seconds =       0.15 minutes
Total time:
	user time   =     142.71 seconds =       2.38 minutes
	system time =       2.52 seconds =       0.04 minutes
	total time  =         49 seconds =       0.82 minutes

			-----------------------------------------
			 OPTKING 2.0: for geometry optimizations 
			  - R.A. King,  Bethel University        
			-----------------------------------------
	At level 1: Red. Int., RFO, no backsteps, dynamic trust

	Internal coordinates to be generated automatically.
	Detected frag 1 with atoms:  1 2 3 4 5 6 7 8 9 10 11 12 13 14 15 16 17 18
	---Fragment 1 Bond Connectivity---
	 1 : 2 6 7
	 2 : 1 3 8
	 3 : 2 4 9
	 4 : 3 5 10
	 5 : 4 6 11
	 6 : 1 5 12
	 7 : 1 13 14
	 8 : 2
	 9 : 3
	 10 : 4
	 11 : 5
	 12 : 6
	 13 : 7 17 18
	 14 : 7 15 16
	 15 : 14
	 16 : 14
	 17 : 13
	 18 : 13

	Assuming in current code that numbering for constraints corresponds to unified fragment.
	Frozen dihedral atom list: 
	     1     7    13    17
	---Fragment 1 Geometry and Gradient---
	 C           0.0000000000        0.0000000000       -0.3361142489
	 C           0.0693113751        2.3042829136        0.9905282984
	 C           0.0600271506        2.2924645663        3.6196645829
	 C           0.0000000000        0.0000000000        4.9323874075
	 C          -0.0600271506       -2.2924645663        3.6196645829
	 C          -0.0693113751       -2.3042848033        0.9905282984
	 C           0.0000000000        0.0000000000       -3.1080968214
	 H           0.0343363238        4.0906996085       -0.0205110874
	 H           0.0801281675        4.0683819429        4.6447314059
	 H           0.0000000000        0.0000000000        6.9839666940
	 H          -0.0801281675       -4.0683819429        4.6447314059
	 H          -0.0343363238       -4.0906996085       -0.0205091977
	 N          -1.3465999450       -1.7119973901       -4.3623590784
	 N           1.3465999450        1.7119973901       -4.3623571887
	 H           1.2726020491        1.9019526610       -6.2663261875
	 H           2.6025119329        2.8080763417       -3.4266706324
	 H          -1.5795710519       -1.5426628108       -6.2521362339
	 H          -2.0677024298       -3.2796461598       -3.5322156164
	            -0.0045915513        0.0030796493       -0.0016965798
	            -0.0005170088        0.0003847206        0.0012376504
	             0.0004919126        0.0007814500       -0.0006465236
	            -0.0000986991       -0.0006071875        0.0000660866
	             0.0000538202        0.0006307851        0.0004807493
	            -0.0000511382       -0.0019738023       -0.0007243528
	            -0.0019855151        0.0044684789       -0.0043507084
	            -0.0001629252        0.0000341453       -0.0000537998
	             0.0000521796       -0.0000211419        0.0000550815
	            -0.0000214296        0.0000465151        0.0000374069
	             0.0000452877       -0.0000121587       -0.0000404818
	            -0.0002771906        0.0007772044       -0.0008667079
	            -0.0011423661       -0.0029978844        0.0070588187
	             0.0044537610       -0.0027725937       -0.0000866738
	            -0.0012710283        0.0006172663        0.0001911897
	             0.0022545556       -0.0018619111       -0.0004221039
	            -0.0023911228        0.0063877373        0.0026887730
	             0.0051633004       -0.0069605493       -0.0029413089

	Previous optimization step data not found.  Starting new optimization.

	---Fragment 1 Intrafragment Coordinates---
	 - Coordinate -           - BOHR/RAD -       - ANG/DEG -
	 R(1,2)           =         2.659794	       1.407502
	 R(1,6)           =         2.659796	       1.407503
	 R(1,7)           =         2.771983	       1.466870
	 R(2,3)           =         2.629179	       1.391302
	 R(2,8)           =         2.052976	       1.086388
	 R(3,4)           =         2.642393	       1.398294
	 R(3,9)           =         2.050622	       1.085142
	 R(4,5)           =         2.642393	       1.398294
	 R(4,10)          =         2.051579	       1.085649
	 R(5,6)           =         2.629179	       1.391302
	 R(5,11)          =         2.050622	       1.085142
	 R(6,12)          =         2.052973	       1.086386
	 R(7,13)          =         2.513452	       1.330061
	 R(7,14)          =         2.513451	       1.330061
	 R(13,17)         =         1.911598	       1.011574
	 R(13,18)         =         1.914850	       1.013295
	 R(14,15)         =         1.914852	       1.013296
	 R(14,16)         =         1.911600	       1.011575
	 B(1,2,3)         =         2.088380	     119.655376
	 B(1,2,8)         =         2.103396	     120.515689
	 B(1,6,5)         =         2.088379	     119.655315
	 B(1,6,12)        =         2.103396	     120.515729
	 B(1,7,13)        =         2.093264	     119.935172
	 B(1,7,14)        =         2.093263	     119.935135
	 B(2,1,6)         =         2.097220	     120.161857
	 B(2,1,7)         =         2.092983	     119.919082
	 B(2,3,4)         =         2.095279	     120.050636
	 B(2,3,9)         =         2.089719	     119.732108
	 B(3,2,8)         =         2.090149	     119.756722
	 B(3,4,5)         =         2.101793	     120.423859
	 B(3,4,10)        =         2.090696	     119.788070
	 B(4,3,9)         =         2.098135	     120.214297
	 B(4,5,6)         =         2.095280	     120.050677
	 B(4,5,11)        =         2.098135	     120.214297
	 B(5,4,10)        =         2.090696	     119.788070
	 B(5,6,12)        =         2.090149	     119.756743
	 B(6,1,7)         =         2.092982	     119.919061
	 B(6,5,11)        =         2.089719	     119.732067
	 B(7,13,17)       =         2.092411	     119.886324
	 B(7,13,18)       =         2.144860	     122.891417
	 B(7,14,15)       =         2.144860	     122.891405
	 B(7,14,16)       =         2.092412	     119.886393
	 B(13,7,14)       =         2.096659	     120.129694
	 B(15,14,16)      =         2.043399	     117.078146
	 B(17,13,18)      =         2.043400	     117.078200
	 D(1,2,3,4)       =         0.007799	       0.446825
	 D(1,2,3,9)       =        -3.122896	    -178.928735
	 D(1,6,5,4)       =         0.007799	       0.446822
	 D(1,6,5,11)      =        -3.122896	    -178.928737
	*D(1,7,13,17)     =         2.967060	     169.999990
	 D(1,7,13,18)     =        -0.252950	     -14.492955
	 D(1,7,14,15)     =        -3.032165	    -173.730230
	 D(1,7,14,16)     =         0.187844	      10.762681
	 D(2,1,6,5)       =        -0.003906	      -0.223802
	 D(2,1,6,12)      =        -3.091437	    -177.126283
	 D(2,1,7,13)      =        -2.505167	    -143.535494
	 D(2,1,7,14)      =         0.636426	      36.464506
	 D(2,3,4,5)       =        -0.003942	      -0.225875
	 D(2,3,4,10)      =         3.137650	     179.774125
	 D(3,2,1,6)       =        -0.003906	      -0.223806
	 D(3,2,1,7)       =         3.137687	     179.776196
	 D(3,4,5,6)       =        -0.003942	      -0.225874
	 D(3,4,5,11)      =         3.126699	     179.146646
	 D(4,3,2,8)       =         3.095744	     177.373058
	 D(4,5,6,12)      =         3.095744	     177.373055
	 D(5,4,3,9)       =         3.126699	     179.146646
	 D(5,6,1,7)       =         3.137687	     179.776197
	 D(6,1,2,8)       =        -3.091437	    -177.126287
	 D(6,1,7,13)      =         0.636426	      36.464508
	 D(6,1,7,14)      =        -2.505167	    -143.535492
	 D(6,5,4,10)      =         3.137650	     179.774126
	 D(7,1,2,8)       =         0.050156	       2.873714
	 D(7,1,6,12)      =         0.050156	       2.873716
	 D(8,2,3,9)       =        -0.034950	      -2.002503
	 D(9,3,4,10)      =        -0.014894	      -0.853354
	 D(10,4,5,11)     =        -0.014894	      -0.853354
	 D(11,5,6,12)     =        -0.034950	      -2.002504
	 D(13,7,14,15)    =         0.109428	       6.269770
	 D(13,7,14,16)    =        -2.953748	    -169.237319
	 D(14,7,13,17)    =        -0.174533	     -10.000010
	 D(14,7,13,18)    =         2.888643	     165.507045

	Current energy   :      -381.4655832830

	Generating empirical Hessian (Schlegel '84) for each fragment.
	Taking RFO optimization step.
	Going to follow RFO solution 1.
	Using RFO vector 1.
	Norm of target step-size    0.44720
	Projected energy change by RFO approximation:        -0.0043460308

	Back-transformation to cartesian coordinates...
	Could not converge backtransformation.
	Using first guess instead.

	Back-transformation to cartesian coordinates to adjust frozen coordinates...
	Successfully converged to displaced geometry.

	--- Internal Coordinate Step in ANG or DEG, aJ/ANG or AJ/DEG ---
	 ---------------------------------------------------------------------------
	   Coordinate                Previous        Force       Change         New 
	   ----------                --------       ------       ------       ------
	    1 R(1,2)          =      1.407502    -0.005898    -0.000647     1.406856
	    2 R(1,6)          =      1.407503     0.002000     0.000416     1.407920
	    3 R(1,7)          =      1.466870     0.017657     0.003167     1.470037
	    4 R(2,3)          =      1.391302     0.003880     0.000957     1.392258
	    5 R(2,8)          =      1.086388    -0.000482    -0.000000     1.086388
	    6 R(3,4)          =      1.398294    -0.005924    -0.000693     1.397601
	    7 R(3,9)          =      1.085142    -0.000082     0.000241     1.085383
	    8 R(4,5)          =      1.398294    -0.001336     0.000141     1.398434
	    9 R(4,10)         =      1.085649    -0.000314     0.000222     1.085871
	   10 R(5,6)          =      1.391302    -0.003545    -0.000168     1.391134
	   11 R(5,11)         =      1.085142     0.000080     0.000096     1.085238
	   12 R(6,12)         =      1.086386     0.002097     0.000792     1.087179
	   13 R(7,13)         =      1.330061     0.015145     0.002905     1.332967
	   14 R(7,14)         =      1.330061    -0.002750     0.001201     1.331262
	   15 R(13,17)        =      1.011574     0.014842     0.002394     1.013968
	   16 R(13,18)        =      1.013295    -0.020425     0.020862     1.034157
	   17 R(14,15)        =      1.013296     0.000663     0.000178     1.013474
	   18 R(14,16)        =      1.011575    -0.001708     0.003622     1.015197
	   19 B(1,2,3)        =    119.655376     0.000017     0.057722   119.713098
	   20 B(1,2,8)        =    120.515689    -0.000006    -0.027168   120.488521
	   21 B(1,6,5)        =    119.655315     0.000044     0.132280   119.787595
	   22 B(1,6,12)       =    120.515729     0.000066     0.324672   120.840401
	   23 B(1,7,13)       =    119.935172     0.000223     0.600846   120.536018
	   24 B(1,7,14)       =    119.935135    -0.000173    -0.578138   119.356997
	   25 B(2,1,6)        =    120.161857    -0.000053    -0.161723   120.000133
	   26 B(2,1,7)        =    119.919082    -0.000160    -0.467692   119.451389
	   27 B(2,3,4)        =    120.050636     0.000017     0.053427   120.104063
	   28 B(2,3,9)        =    119.732108    -0.000013    -0.037363   119.694745
	   29 B(3,2,8)        =    119.756722    -0.000011    -0.049881   119.706841
	   30 B(3,4,5)        =    120.423859    -0.000020    -0.076745   120.347114
	   31 B(3,4,10)       =    119.788070     0.000013     0.047073   119.835143
	   32 B(4,3,9)        =    120.214297    -0.000004    -0.014637   120.199659
	   33 B(4,5,6)        =    120.050677    -0.000005    -0.010286   120.040391
	   34 B(4,5,11)       =    120.214297    -0.000001    -0.009920   120.204377
	   35 B(5,4,10)       =    119.788070     0.000006     0.029651   119.817721
	   36 B(5,6,12)       =    119.756743    -0.000110    -0.458966   119.297777
	   37 B(6,1,7)        =    119.919061     0.000214     0.629290   120.548352
	   38 B(6,5,11)       =    119.732067     0.000005     0.020920   119.752987
	   39 B(7,13,17)      =    119.886324     0.000523     2.517496   122.403820
	   40 B(7,13,18)      =    122.891417    -0.000430    -2.049279   120.842138
	   41 B(7,14,15)      =    122.891405     0.000041     0.215581   123.106986
	   42 B(7,14,16)      =    119.886393    -0.000021     0.066437   119.952830
	   43 B(13,7,14)      =    120.129694    -0.000050    -0.333649   119.796045
	   44 B(15,14,16)     =    117.078146    -0.000013    -0.156889   116.921257
	   45 B(17,13,18)     =    117.078200    -0.000066    -0.626303   116.451897
	   46 D(1,2,3,4)      =      0.446825     0.000004     0.508603     0.955428
	   47 D(1,2,3,9)      =   -178.928735     0.000002     0.333642  -178.595093
	   48 D(1,6,5,4)      =      0.446822    -0.000000    -0.019217     0.427605
	   49 D(1,6,5,11)     =   -178.928737    -0.000001    -0.099650  -179.028387
	   50 *D(1,7,13,17)   =    169.999990     0.000000     0.000000   169.999990
	   51 D(1,7,13,18)    =    -14.492955     0.000096    11.031511    -3.461444
	   52 D(1,7,14,15)    =   -173.730230     0.000003     0.788520  -172.941709
	   53 D(1,7,14,16)    =     10.762681    -0.000020    -2.072053     8.690627
	   54 D(2,1,6,5)      =     -0.223802     0.000003     0.411101     0.187300
	   55 D(2,1,6,12)     =   -177.126283     0.000004     0.468516  -176.657767
	   56 D(2,1,7,13)     =   -143.535494     0.000024     3.579008  -139.956486
	   57 D(2,1,7,14)     =     36.464506    -0.000021    -2.837213    33.627293
	   58 D(2,3,4,5)      =     -0.225875    -0.000001    -0.117701    -0.343576
	   59 D(2,3,4,10)     =    179.774125    -0.000001    -0.170850   179.603275
	   60 D(3,2,1,6)      =     -0.223806    -0.000005    -0.655421    -0.879227
	   61 D(3,2,1,7)      =    179.776196    -0.000005    -0.783566   178.992629
	   62 D(3,4,5,6)      =     -0.225874    -0.000001    -0.128545    -0.354420
	   63 D(3,4,5,11)     =    179.146646    -0.000000    -0.047551   179.099095
	   64 D(4,3,2,8)      =    177.373058     0.000001     0.121089   177.494146
	   65 D(4,5,6,12)     =    177.373055     0.000000    -0.051534   177.321521
	   66 D(5,4,3,9)      =    179.146646     0.000000     0.058010   179.204657
	   67 D(5,6,1,7)      =    179.776197     0.000004     0.540670   180.316867
	   68 D(6,1,2,8)      =   -177.126287    -0.000002    -0.264145  -177.390432
	   69 D(6,1,7,13)     =     36.464508     0.000024     3.450145    39.914653
	   70 D(6,1,7,14)     =   -143.535492    -0.000022    -2.966076  -146.501568
	   71 D(6,5,4,10)     =    179.774126    -0.000001    -0.075406   179.698720
	   72 D(7,1,2,8)      =      2.873714    -0.000003    -0.392290     2.481425
	   73 D(7,1,6,12)     =      2.873716     0.000005     0.598085     3.471801
	   74 D(8,2,3,9)      =     -2.002503    -0.000000    -0.053872    -2.056375
	   75 D(9,3,4,10)     =     -0.853354     0.000000     0.004862    -0.848492
	   76 D(10,4,5,11)    =     -0.853354     0.000000     0.005588    -0.847765
	   77 D(11,5,6,12)    =     -2.002504    -0.000001    -0.131967    -2.134471
	   78 D(13,7,14,15)   =      6.269770    -0.000042    -5.579518     0.690252
	   79 D(13,7,14,16)   =   -169.237319    -0.000065    -8.440092  -177.677411
	   80 D(14,7,13,17)   =    -10.000010     0.000045     6.444304    -3.555706
	   81 D(14,7,13,18)   =    165.507045     0.000142    17.475815   182.982860
	 ---------------------------------------------------------------------------
	Successfully symmetrized geometry.

  ==> Convergence Check <==

  Measures of convergence in internal coordinates in au.
  Criteria marked as inactive (o), active & met (*), and active & unmet ( ).
  --------------------------------------------------------------------------------------------- ~
   Step     Total Energy     Delta E     MAX Force     RMS Force      MAX Disp      RMS Disp    ~
  --------------------------------------------------------------------------------------------- ~
    Convergence Criteria    1.00e-06 *    3.00e-04 *             o    1.20e-03 *             o  ~
  --------------------------------------------------------------------------------------------- ~
      1    -381.46558328   -3.81e+02      8.12e-03      1.80e-03 o    3.05e-01      4.90e-02 o  ~
  ---------------------------------------------------------------------------------------------

	Writing optimization data to binary file.
	Structure for next step:
	Cartesian Geometry (in Angstrom)
	    C     0.0376959297  -0.0333540268  -0.1810824412
	    C     0.0572202824   1.1936274630   0.5069424436
	    C     0.0225260216   1.2049931524   1.8987221467
	    C    -0.0113065519   0.0017764945   2.6089435178
	    C    -0.0178198787  -1.2201454170   1.9288823304
	    C     0.0019863683  -1.2432164897   0.5380806575
	    C     0.0520358759  -0.0380644902  -1.6510419378
	    H     0.0421557904   2.1323712289  -0.0396571364
	    H     0.0144943394   2.1521840169   2.4286477801
	    H    -0.0317766763   0.0156383726   3.6945333930
	    H    -0.0293697448  -2.1532512588   2.4828873092
	    H     0.0409655982  -2.1994970386   0.0223624170
	    N    -0.6986524753  -0.9031430758  -2.3328823318
	    N     0.7215059920   0.9119926403  -2.3002405455
	    H     0.6854026013   1.0253672529  -3.3067055767
	    H     1.3216817405   1.5499996030  -1.7870535764
	    H    -0.8267570482  -0.8381039382  -3.3366201620
	    H    -1.2614201643  -1.6185914894  -1.8420602874
			--------------------------
			 OPTKING Finished Execution 
			--------------------------

    Structure for next step:
    Molecular point group: c1
    Full point group: C1

    Geometry (in Angstrom), charge = 1, multiplicity = 1:

    C            0.037695929657    -0.033354026752    -0.181082441249
    C            0.057220282414     1.193627463000     0.506942443558
    C            0.022526021608     1.204993152372     1.898722146656
    C           -0.011306551943     0.001776494509     2.608943517823
    C           -0.017819878669    -1.220145417002     1.928882330364
    C            0.001986368335    -1.243216489662     0.538080657537
    C            0.052035875907    -0.038064490250    -1.651041937795
    H            0.042155790377     2.132371228905    -0.039657136441
    H            0.014494339416     2.152184016860     2.428647780128
    H           -0.031776676280     0.015638372636     3.694533393009
    H           -0.029369744819    -2.153251258796     2.482887309190
    H            0.040965598173    -2.199497038582     0.022362416954
    N           -0.698652475334    -0.903143075785    -2.332882331781
    N            0.721505991953     0.911992640291    -2.300240545486
    H            0.685402601273     1.025367252873    -3.306705576689
    H            1.321681740462     1.549999603006    -1.787053576381
    H           -0.826757048207    -0.838103938220    -3.336620161980
    H           -1.261420164325    -1.618591489404    -1.842060287417

gradient() will perform analytic gradient computation.

*** tstart() called on rosa.prib.upf.edu
*** at Sat Sep 29 20:39:26 2018

   => Loading Basis Set <=

    Name: 6-31G*
    Role: ORBITAL
    Keyword: BASIS
    atoms 1-7         entry C          line   111 file /shared/joao/test_parameterize/miniconda3/share/psi4/basis/6-31gs.gbs 
    atoms 8-12, 15-18 entry H          line    44 file /shared/joao/test_parameterize/miniconda3/share/psi4/basis/6-31gs.gbs 
    atoms 13-14       entry N          line   128 file /shared/joao/test_parameterize/miniconda3/share/psi4/basis/6-31gs.gbs 


         ---------------------------------------------------------
                                   SCF
            by Justin Turney, Rob Parrish, Andy Simmonett
                             and Daniel Smith
                              RKS Reference
                        4 Threads,   2861 MiB Core
         ---------------------------------------------------------

  ==> Geometry <==

    Molecular point group: c1
    Full point group: C1

    Geometry (in Angstrom), charge = 1, multiplicity = 1:

       Center              X                  Y                   Z               Mass       
    ------------   -----------------  -----------------  -----------------  -----------------
         C            0.037695929657    -0.033354026752    -0.181082441249    12.000000000000
         C            0.057220282414     1.193627463000     0.506942443558    12.000000000000
         C            0.022526021608     1.204993152372     1.898722146656    12.000000000000
         C           -0.011306551943     0.001776494509     2.608943517823    12.000000000000
         C           -0.017819878669    -1.220145417002     1.928882330364    12.000000000000
         C            0.001986368335    -1.243216489662     0.538080657537    12.000000000000
         C            0.052035875907    -0.038064490250    -1.651041937795    12.000000000000
         H            0.042155790377     2.132371228905    -0.039657136441     1.007825032070
         H            0.014494339416     2.152184016860     2.428647780128     1.007825032070
         H           -0.031776676280     0.015638372636     3.694533393009     1.007825032070
         H           -0.029369744819    -2.153251258796     2.482887309190     1.007825032070
         H            0.040965598173    -2.199497038582     0.022362416954     1.007825032070
         N           -0.698652475334    -0.903143075785    -2.332882331781    14.003074004780
         N            0.721505991953     0.911992640291    -2.300240545486    14.003074004780
         H            0.685402601273     1.025367252873    -3.306705576689     1.007825032070
         H            1.321681740462     1.549999603006    -1.787053576381     1.007825032070
         H           -0.826757048207    -0.838103938220    -3.336620161980     1.007825032070
         H           -1.261420164325    -1.618591489404    -1.842060287417     1.007825032070

  Running in c1 symmetry.

  Rotational constants: A =      0.12179  B =      0.03946  C =      0.03123 [cm^-1]
  Rotational constants: A =   3651.31502  B =   1182.86316  C =    936.11534 [MHz]
  Nuclear repulsion =  416.507914512067657

  Charge       = 1
  Multiplicity = 1
  Electrons    = 64
  Nalpha       = 32
  Nbeta        = 32

  ==> Algorithm <==

  SCF Algorithm Type is DF.
  DIIS enabled.
  MOM disabled.
  Fractional occupation disabled.
  Guess Type is READ.
  Energy threshold   = 1.00e-08
  Density threshold  = 1.00e-08
  Integral threshold = 0.00e+00

  ==> Primary Basis <==

  Basis Set: 6-31G*
    Blend: 6-31G*
    Number of shells: 72
    Number of basis function: 153
    Number of Cartesian functions: 153
    Spherical Harmonics?: false
    Max angular momentum: 2

  ==> DFT Potential <==

   => Composite Functional: B3LYP-D3ZERO <= 

    B3LYP-d3zero Hyb-GGA Exchange-Correlation Functional

    P. J. Stephens, F. J. Devlin, C. F. Chabalowski, and M. J. Frisch, J. Phys. Chem. 98, 11623 (1994)

    Deriv               =              1
    GGA                 =           TRUE
    Meta                =          FALSE

    Exchange Hybrid     =           TRUE
    MP2 Hybrid          =          FALSE

   => Exchange Functionals <=

    0.0800   Slater exchange
    0.7200         Becke 88

   => Exact (HF) Exchange <=

    0.2000               HF 

   => Correlation Functionals <=

    0.1900   Vosko, Wilk & Nusair (VWN5_RPA)
    0.8100   Lee, Yang & Parr

   => Molecular Quadrature <=

    Radial Scheme       =       TREUTLER
    Pruning Scheme      =           FLAT
    Nuclear Scheme      =       TREUTLER

    BS radius alpha     =              1
    Pruning alpha       =              1
    Radial Points       =             75
    Spherical Points    =            302
    Total Points        =         396896
    Total Blocks        =           2978
    Max Points          =            256
    Max Functions       =            149

   => -D3ZERO: Empirical Dispersion <=

    Grimme's -D3 (zero-damping) Dispersion Correction
    Grimme S.; Antony J.; Ehrlich S.; Krieg H. (2010), J. Chem. Phys., 132: 154104

        S6 =   1.000000E+00
        S8 =   1.703000E+00
       SR6 =   1.261000E+00
       SR8 =   1.000000E+00
    ALPHA6 =   1.400000E+01

   => Loading Basis Set <=

    Name: (6-31G* AUX)
    Role: JKFIT
    Keyword: DF_BASIS_SCF
    atoms 1-7         entry C          line   121 file /shared/joao/test_parameterize/miniconda3/share/psi4/basis/cc-pvdz-jkfit.gbs 
    atoms 8-12, 15-18 entry H          line    51 file /shared/joao/test_parameterize/miniconda3/share/psi4/basis/cc-pvdz-jkfit.gbs 
    atoms 13-14       entry N          line   171 file /shared/joao/test_parameterize/miniconda3/share/psi4/basis/cc-pvdz-jkfit.gbs 

  Reading orbitals from file 180, no projection.

  ==> Pre-Iterations <==

   -------------------------------------------------------
    Irrep   Nso     Nmo     Nalpha   Nbeta   Ndocc  Nsocc
   -------------------------------------------------------
     A        153     153       0       0       0       0
   -------------------------------------------------------
    Total     153     153      32      32      32       0
   -------------------------------------------------------

  ==> Integral Setup <==

  ==> DiskDFJK: Density-Fitted J/K Matrices <==

    J tasked:                  Yes
    K tasked:                  Yes
    wK tasked:                  No
    OpenMP threads:              4
    Integrals threads:           4
    Memory (MB):              2002
    Algorithm:                Core
    Integral Cache:           NONE
    Schwarz Cutoff:          1E-12
    Fitting Condition:       1E-12

   => Auxiliary Basis Set <=

  Basis Set: (6-31G* AUX)
    Blend: CC-PVDZ-JKFIT
    Number of shells: 297
    Number of basis function: 954
    Number of Cartesian functions: 954
    Spherical Harmonics?: false
    Max angular momentum: 3

  Minimum eigenvalue in the overlap matrix is 4.8708669557E-04.
  Using Symmetric Orthogonalization.

  SCF Guess: Orbitals guess was supplied from a previous computation.

  ==> Iterations <==

                           Total Energy        Delta E     RMS |[F,P]|

   @DF-RKS iter   0:  -381.43863163892092   -3.81439e+02   1.18205e-03 
   @DF-RKS iter   1:  -381.46774839161941   -2.91168e-02   2.38355e-04 
   @DF-RKS iter   2:  -381.46770916517801    3.92264e-05   2.03322e-04 DIIS
   @DF-RKS iter   3:  -381.46795956101852   -2.50396e-04   9.62419e-05 DIIS
   @DF-RKS iter   4:  -381.46798795312566   -2.83921e-05   2.58304e-05 DIIS
   @DF-RKS iter   5:  -381.46798968906853   -1.73594e-06   6.39160e-06 DIIS
   @DF-RKS iter   6:  -381.46798989378379   -2.04715e-07   1.85631e-06 DIIS
   @DF-RKS iter   7:  -381.46798991128077   -1.74970e-08   5.99345e-07 DIIS
   @DF-RKS iter   8:  -381.46798991307884   -1.79807e-09   1.96719e-07 DIIS
   @DF-RKS iter   9:  -381.46798991329484   -2.16005e-10   4.15200e-08 DIIS
   @DF-RKS iter  10:  -381.46798991330184   -6.99174e-12   2.08334e-08 DIIS
   @DF-RKS iter  11:  -381.46798991330542   -3.58114e-12   6.25241e-09 DIIS

  ==> Post-Iterations <==

    Orbital Energies [Eh]
    ---------------------

    Doubly Occupied:                                                      

       1A    -14.570193     2A    -14.568642     3A    -10.499004  
       4A    -10.374398     5A    -10.356589     6A    -10.356094  
       7A    -10.342148     8A    -10.340424     9A    -10.340215  
      10A     -1.182797    11A     -1.089827    12A     -1.014141  
      13A     -0.926382    14A     -0.902109    15A     -0.845068  
      16A     -0.784243    17A     -0.773621    18A     -0.740735  
      19A     -0.732981    20A     -0.683653    21A     -0.668590  
      22A     -0.626472    23A     -0.617812    24A     -0.589382  
      25A     -0.578459    26A     -0.573871    27A     -0.517425  
      28A     -0.505935    29A     -0.498165    30A     -0.471513  
      31A     -0.410466    32A     -0.405467  

    Virtual:                                                              

      33A     -0.215723    34A     -0.157751    35A     -0.132401  
      36A     -0.110726    37A     -0.071042    38A     -0.064694  
      39A     -0.039016    40A     -0.037212    41A      0.006920  
      42A      0.021164    43A      0.022115    44A      0.058270  
      45A      0.062493    46A      0.082325    47A      0.124171  
      48A      0.148757    49A      0.157540    50A      0.160379  
      51A      0.202024    52A      0.241374    53A      0.298720  
      54A      0.348858    55A      0.353699    56A      0.380242  
      57A      0.387672    58A      0.397573    59A      0.421004  
      60A      0.422193    61A      0.442445    62A      0.450226  
      63A      0.453446    64A      0.469876    65A      0.471559  
      66A      0.475081    67A      0.485746    68A      0.503975  
      69A      0.522556    70A      0.536850    71A      0.541321  
      72A      0.588969    73A      0.605811    74A      0.652820  
      75A      0.656422    76A      0.678361    77A      0.688165  
      78A      0.703788    79A      0.711107    80A      0.719140  
      81A      0.746202    82A      0.775191    83A      0.778114  
      84A      0.800921    85A      0.813373    86A      0.838777  
      87A      0.848157    88A      0.938312    89A      0.962309  
      90A      0.995393    91A      1.000933    92A      1.026226  
      93A      1.049899    94A      1.070943    95A      1.142866  
      96A      1.177127    97A      1.231295    98A      1.269001  
      99A      1.280280   100A      1.308963   101A      1.318477  
     102A      1.343861   103A      1.359610   104A      1.363602  
     105A      1.432031   106A      1.455205   107A      1.487687  
     108A      1.594827   109A      1.618206   110A      1.654173  
     111A      1.675616   112A      1.736050   113A      1.752238  
     114A      1.794444   115A      1.825578   116A      1.849898  
     117A      1.898869   118A      1.909987   119A      1.956282  
     120A      1.976759   121A      1.996384   122A      2.019923  
     123A      2.032543   124A      2.075923   125A      2.107351  
     126A      2.129126   127A      2.151030   128A      2.206433  
     129A      2.219033   130A      2.259624   131A      2.335228  
     132A      2.367582   133A      2.443119   134A      2.452987  
     135A      2.488902   136A      2.518521   137A      2.547341  
     138A      2.588389   139A      2.606735   140A      2.628636  
     141A      2.737064   142A      2.882126   143A      2.981364  
     144A      3.258031   145A      3.630240   146A      3.655206  
     147A      3.913170   148A      3.948977   149A      3.963221  
     150A      4.055748   151A      4.173670   152A      4.256568  
     153A      4.545115  

    Final Occupation by Irrep:
              A 
    DOCC [    32 ]

  Energy converged.

  @DF-RKS Final Energy:  -381.46798991330542

   => Energetics <=

    Nuclear Repulsion Energy =            416.5079145120676571
    One-Electron Energy =               -1328.2390507829732087
    Two-Electron Energy =                 574.6684095848618199
    DFT Exchange-Correlation Energy =     -44.3933964772615752
    Empirical Dispersion Energy =          -0.0118667500000000
    VV10 Nonlocal Energy =                  0.0000000000000000
    Total Energy =                       -381.4679899133054164



Properties will be evaluated at   0.000000,   0.000000,   0.000000 [a0]

Properties computed using the SCF density matrix

  Nuclear Dipole Moment: [e a0]
     X:     1.8319      Y:    -1.2817      Z:    -0.4136

  Electronic Dipole Moment: [e a0]
     X:    -1.8794      Y:     1.3132      Z:    -1.8620

  Dipole Moment: [e a0]
     X:    -0.0476      Y:     0.0315      Z:    -2.2755     Total:     2.2762

  Dipole Moment: [D]
     X:    -0.1209      Y:     0.0800      Z:    -5.7838     Total:     5.7856


*** tstop() called on rosa.prib.upf.edu at Sat Sep 29 20:39:55 2018
Module time:
	user time   =      83.35 seconds =       1.39 minutes
	system time =       0.93 seconds =       0.02 minutes
	total time  =         29 seconds =       0.48 minutes
Total time:
	user time   =     226.76 seconds =       3.78 minutes
	system time =       3.50 seconds =       0.06 minutes
	total time  =         79 seconds =       1.32 minutes

*** tstart() called on rosa.prib.upf.edu
*** at Sat Sep 29 20:39:55 2018


         ------------------------------------------------------------
                                   SCF GRAD                          
                          Rob Parrish, Justin Turney,                
                       Andy Simmonett, and Alex Sokolov              
         ------------------------------------------------------------

  ==> Geometry <==

    Molecular point group: c1
    Full point group: C1

    Geometry (in Angstrom), charge = 1, multiplicity = 1:

       Center              X                  Y                   Z               Mass       
    ------------   -----------------  -----------------  -----------------  -----------------
         C            0.037695929657    -0.033354026752    -0.181082441249    12.000000000000
         C            0.057220282414     1.193627463000     0.506942443558    12.000000000000
         C            0.022526021608     1.204993152372     1.898722146656    12.000000000000
         C           -0.011306551943     0.001776494509     2.608943517823    12.000000000000
         C           -0.017819878669    -1.220145417002     1.928882330364    12.000000000000
         C            0.001986368335    -1.243216489662     0.538080657537    12.000000000000
         C            0.052035875907    -0.038064490250    -1.651041937795    12.000000000000
         H            0.042155790377     2.132371228905    -0.039657136441     1.007825032070
         H            0.014494339416     2.152184016860     2.428647780128     1.007825032070
         H           -0.031776676280     0.015638372636     3.694533393009     1.007825032070
         H           -0.029369744819    -2.153251258796     2.482887309190     1.007825032070
         H            0.040965598173    -2.199497038582     0.022362416954     1.007825032070
         N           -0.698652475334    -0.903143075785    -2.332882331781    14.003074004780
         N            0.721505991953     0.911992640291    -2.300240545486    14.003074004780
         H            0.685402601273     1.025367252873    -3.306705576689     1.007825032070
         H            1.321681740462     1.549999603006    -1.787053576381     1.007825032070
         H           -0.826757048207    -0.838103938220    -3.336620161980     1.007825032070
         H           -1.261420164325    -1.618591489404    -1.842060287417     1.007825032070

  Nuclear repulsion =  416.507914512067657

  ==> Basis Set <==

  Basis Set: 6-31G*
    Blend: 6-31G*
    Number of shells: 72
    Number of basis function: 153
    Number of Cartesian functions: 153
    Spherical Harmonics?: false
    Max angular momentum: 2

  ==> DFJKGrad: Density-Fitted SCF Gradients <==

    Gradient:                    1
    J tasked:                  Yes
    K tasked:                  Yes
    wK tasked:                  No
    OpenMP threads:              4
    Integrals threads:           4
    Memory (MB):              2002
    Schwarz Cutoff:          0E+00
    Fitting Condition:       1E-12

   => Auxiliary Basis Set <=

  Basis Set: (6-31G* AUX)
    Blend: CC-PVDZ-JKFIT
    Number of shells: 297
    Number of basis function: 954
    Number of Cartesian functions: 954
    Spherical Harmonics?: false
    Max angular momentum: 3

  ==> DFT Potential <==

   => Composite Functional: B3LYP-D3ZERO <= 

    B3LYP-d3zero Hyb-GGA Exchange-Correlation Functional

    P. J. Stephens, F. J. Devlin, C. F. Chabalowski, and M. J. Frisch, J. Phys. Chem. 98, 11623 (1994)

    Deriv               =              1
    GGA                 =           TRUE
    Meta                =          FALSE

    Exchange Hybrid     =           TRUE
    MP2 Hybrid          =          FALSE

   => Exchange Functionals <=

    0.0800   Slater exchange
    0.7200         Becke 88

   => Exact (HF) Exchange <=

    0.2000               HF 

   => Correlation Functionals <=

    0.1900   Vosko, Wilk & Nusair (VWN5_RPA)
    0.8100   Lee, Yang & Parr

   => Molecular Quadrature <=

    Radial Scheme       =       TREUTLER
    Pruning Scheme      =           FLAT
    Nuclear Scheme      =       TREUTLER

    BS radius alpha     =              1
    Pruning alpha       =              1
    Radial Points       =             75
    Spherical Points    =            302
    Total Points        =         396896
    Total Blocks        =           2978
    Max Points          =            256
    Max Functions       =            149


  -Total Gradient:
     Atom            X                  Y                   Z
    ------   -----------------  -----------------  -----------------
       1       -0.004688682916     0.005094656147    -0.000837874350
       2        0.000462425051     0.000034664676    -0.000277450498
       3       -0.000167188987    -0.000077668496     0.000239075492
       4       -0.000008082248     0.000176912332    -0.000104866741
       5        0.000148258059    -0.000469849004    -0.000251675404
       6       -0.000040742827     0.000132114315     0.001007434113
       7        0.010785426836    -0.007524603005     0.001995349869
       8        0.000297835716    -0.000213176257    -0.000697006144
       9       -0.000023226530     0.000081782263     0.000176853797
      10        0.000032745921    -0.000026651573     0.000188752403
      11       -0.000032797025    -0.000034389042     0.000105191970
      12        0.000180856214    -0.000453221064     0.000554561994
      13        0.005848255224     0.012809348576    -0.009493124140
      14       -0.001698977891    -0.000436149581    -0.001638757103
      15       -0.000073229013     0.000221474718    -0.000184638052
      16        0.000965259229     0.003136297849     0.001925170621
      17       -0.003120095087     0.002857269606    -0.000067282581
      18       -0.008863704447    -0.015314884924     0.007342980770


*** tstop() called on rosa.prib.upf.edu at Sat Sep 29 20:40:04 2018
Module time:
	user time   =      29.62 seconds =       0.49 minutes
	system time =       0.47 seconds =       0.01 minutes
	total time  =          9 seconds =       0.15 minutes
Total time:
	user time   =     256.45 seconds =       4.27 minutes
	system time =       3.98 seconds =       0.07 minutes
	total time  =         88 seconds =       1.47 minutes

			-----------------------------------------
			 OPTKING 2.0: for geometry optimizations 
			  - R.A. King,  Bethel University        
			-----------------------------------------
	At level 1: Red. Int., RFO, no backsteps, dynamic trust

	Previous internal coordinate definitions found.
	---Fragment 1 Geometry and Gradient---
	 C           0.0712349834       -0.0630299760       -0.3421962214
	 C           0.1081306630        2.2556290098        0.9579823835
	 C           0.0425680117        2.2771070500        3.5880648596
	 C          -0.0213662867        0.0033570881        4.9301887449
	 C          -0.0336746904       -2.3057406804        3.6450593470
	 C           0.0037536922       -2.3493386893        1.0168250801
	 C           0.0983335545       -0.0719314620       -3.1200170963
	 H           0.0796628987        4.0295976363       -0.0749411271
	 H           0.0273903320        4.0670383794        4.5894791777
	 H          -0.0600492156        0.0295522414        6.9816563016
	 H          -0.0555007743       -4.0690551744        4.6919770332
	 H           0.0774137614       -4.1564470330        0.0422588437
	 N          -1.3202618404       -1.7066930720       -4.4085087073
	 N           1.3634487280        1.7234163254       -4.3468246707
	 H           1.2952232072        1.9376632936       -6.2487679420
	 H           2.4976165243        2.9290747558       -3.3770418442
	 H          -1.5623443995       -1.5837869141       -6.3052983156
	 H          -2.3837386491       -3.0586946360       -3.4809894635
	            -0.0046886829        0.0050946561       -0.0008378743
	             0.0004624251        0.0000346647       -0.0002774505
	            -0.0001671890       -0.0000776685        0.0002390755
	            -0.0000080822        0.0001769123       -0.0001048667
	             0.0001482581       -0.0004698490       -0.0002516754
	            -0.0000407428        0.0001321143        0.0010074341
	             0.0107854268       -0.0075246030        0.0019953499
	             0.0002978357       -0.0002131763       -0.0006970061
	            -0.0000232265        0.0000817823        0.0001768538
	             0.0000327459       -0.0000266516        0.0001887524
	            -0.0000327970       -0.0000343890        0.0001051920
	             0.0001808562       -0.0004532211        0.0005545620
	             0.0058482552        0.0128093486       -0.0094931241
	            -0.0016989779       -0.0004361496       -0.0016387571
	            -0.0000732290        0.0002214747       -0.0001846381
	             0.0009652592        0.0031362978        0.0019251706
	            -0.0031200951        0.0028572696       -0.0000672826
	            -0.0088637044       -0.0153148849        0.0073429808

	---Fragment 1 Intrafragment Coordinates---
	 - Coordinate -           - BOHR/RAD -       - ANG/DEG -
	 R(1,2)           =         2.658572	       1.406856
	 R(1,6)           =         2.660583	       1.407920
	 R(1,7)           =         2.777967	       1.470037
	 R(2,3)           =         2.630987	       1.392258
	 R(2,8)           =         2.052975	       1.086388
	 R(3,4)           =         2.641084	       1.397601
	 R(3,9)           =         2.051077	       1.085383
	 R(4,5)           =         2.642658	       1.398434
	 R(4,10)          =         2.051999	       1.085871
	 R(5,6)           =         2.628862	       1.391134
	 R(5,11)          =         2.050803	       1.085238
	 R(6,12)          =         2.054470	       1.087179
	 R(7,13)          =         2.518942	       1.332967
	 R(7,14)          =         2.515720	       1.331262
	 R(13,17)         =         1.916121	       1.013968
	 R(13,18)         =         1.954273	       1.034157
	 R(14,15)         =         1.915188	       1.013474
	 R(14,16)         =         1.918444	       1.015197
	 B(1,2,3)         =         2.089388	     119.713098
	 B(1,2,8)         =         2.102921	     120.488521
	 B(1,6,5)         =         2.090688	     119.787595
	 B(1,6,12)        =         2.109063	     120.840401
	 B(1,7,13)        =         2.103750	     120.536018
	 B(1,7,14)        =         2.083173	     119.356997
	 B(2,1,6)         =         2.094397	     120.000133
	 B(2,1,7)         =         2.084820	     119.451389
	 B(2,3,4)         =         2.096211	     120.104063
	 B(2,3,9)         =         2.089067	     119.694745
	 B(3,2,8)         =         2.089279	     119.706841
	 B(3,4,5)         =         2.100453	     120.347114
	 B(3,4,10)        =         2.091518	     119.835143
	 B(4,3,9)         =         2.097880	     120.199659
	 B(4,5,6)         =         2.095100	     120.040391
	 B(4,5,11)        =         2.097962	     120.204377
	 B(5,4,10)        =         2.091214	     119.817721
	 B(5,6,12)        =         2.082139	     119.297777
	 B(6,1,7)         =         2.103966	     120.548352
	 B(6,5,11)        =         2.090084	     119.752987
	 B(7,13,17)       =         2.136350	     122.403820
	 B(7,13,18)       =         2.109093	     120.842138
	 B(7,14,15)       =         2.148622	     123.106986
	 B(7,14,16)       =         2.093572	     119.952830
	 B(13,7,14)       =         2.090835	     119.796045
	 B(15,14,16)      =         2.040661	     116.921257
	 B(17,13,18)      =         2.032469	     116.451897
	 D(1,2,3,4)       =         0.016675	       0.955428
	 D(1,2,3,9)       =        -3.117072	    -178.595093
	 D(1,6,5,4)       =         0.007463	       0.427605
	 D(1,6,5,11)      =        -3.124635	    -179.028387
	*D(1,7,13,17)     =         2.967060	     169.999990
	 D(1,7,13,18)     =        -0.060414	      -3.461444
	 D(1,7,14,15)     =        -3.018402	    -172.941709
	 D(1,7,14,16)     =         0.151680	       8.690627
	 D(2,1,6,5)       =         0.003269	       0.187300
	 D(2,1,6,12)      =        -3.083260	    -176.657767
	 D(2,1,7,13)      =        -2.442701	    -139.956486
	 D(2,1,7,14)      =         0.586907	      33.627293
	 D(2,3,4,5)       =        -0.005997	      -0.343576
	 D(2,3,4,10)      =         3.134668	     179.603275
	 D(3,2,1,6)       =        -0.015345	      -0.879227
	 D(3,2,1,7)       =         3.124011	     178.992629
	 D(3,4,5,6)       =        -0.006186	      -0.354420
	 D(3,4,5,11)      =         3.125869	     179.099095
	 D(4,3,2,8)       =         3.097857	     177.494146
	 D(4,5,6,12)      =         3.094844	     177.321521
	 D(5,4,3,9)       =         3.127711	     179.204657
	 D(5,6,1,7)       =        -3.136062	    -179.683133
	 D(6,1,2,8)       =        -3.096047	    -177.390432
	 D(6,1,7,13)      =         0.696642	      39.914653
	 D(6,1,7,14)      =        -2.556935	    -146.501568
	 D(6,5,4,10)      =         3.136334	     179.698720
	 D(7,1,2,8)       =         0.043309	       2.481425
	 D(7,1,6,12)      =         0.060594	       3.471801
	 D(8,2,3,9)       =        -0.035891	      -2.056375
	 D(9,3,4,10)      =        -0.014809	      -0.848492
	 D(10,4,5,11)     =        -0.014796	      -0.847765
	 D(11,5,6,12)     =        -0.037254	      -2.134471
	 D(13,7,14,15)    =         0.012047	       0.690252
	 D(13,7,14,16)    =        -3.101056	    -177.677411
	 D(14,7,13,17)    =        -0.062059	      -3.555706
	 D(14,7,13,18)    =        -3.089532	    -177.017140

	Current energy   :      -381.4679899133

	Energy change for the previous step:
		Projected    :        -0.0043460308
		Actual       :        -0.0024066303

	Performing BFGS update.
	Previous computed or guess Hessian on step 1.
	Steps to be used in Hessian update: 1
	Taking RFO optimization step.
	Going to follow RFO solution 1.
	Using RFO vector 1.
	Norm of target step-size    0.25545
	Projected energy change by RFO approximation:        -0.0017635767

	Back-transformation to cartesian coordinates...
	Could not converge backtransformation.
	Using first guess instead.

	Back-transformation to cartesian coordinates to adjust frozen coordinates...
	Successfully converged to displaced geometry.

	--- Internal Coordinate Step in ANG or DEG, aJ/ANG or AJ/DEG ---
	 ---------------------------------------------------------------------------
	   Coordinate                Previous        Force       Change         New 
	   ----------                --------       ------       ------       ------
	    1 R(1,2)          =      1.406856     0.003602     0.000502     1.407358
	    2 R(1,6)          =      1.407920    -0.010809    -0.001144     1.406776
	    3 R(1,7)          =      1.470037    -0.001356     0.000491     1.470528
	    4 R(2,3)          =      1.392258    -0.003526    -0.000190     1.392069
	    5 R(2,8)          =      1.086388    -0.001335     0.000091     1.086478
	    6 R(3,4)          =      1.397601    -0.000238     0.000018     1.397619
	    7 R(3,9)          =      1.085383    -0.001306    -0.000035     1.085348
	    8 R(4,5)          =      1.398434    -0.001620    -0.000070     1.398365
	    9 R(4,10)         =      1.085871    -0.001555    -0.000192     1.085679
	   10 R(5,6)          =      1.391134     0.000598     0.000031     1.391165
	   11 R(5,11)         =      1.085238    -0.000692     0.000023     1.085261
	   12 R(6,12)         =      1.087179    -0.001165     0.000037     1.087216
	   13 R(7,13)         =      1.332967    -0.035920    -0.002292     1.330674
	   14 R(7,14)         =      1.331262    -0.013416    -0.000387     1.330874
	   15 R(13,17)        =      1.013968    -0.005299     0.000251     1.014219
	   16 R(13,18)        =      1.034157    -0.155746    -0.009739     1.024418
	   17 R(14,15)        =      1.013474    -0.001730     0.000691     1.014165
	   18 R(14,16)        =      1.015197    -0.028961    -0.002832     1.012364
	   19 B(1,2,3)        =    119.713098    -0.000022    -0.054390   119.658708
	   20 B(1,2,8)        =    120.488521     0.000066     0.253642   120.742164
	   21 B(1,6,5)        =    119.787595    -0.000003     0.014657   119.802252
	   22 B(1,6,12)       =    120.840401    -0.000053    -0.136137   120.704265
	   23 B(1,7,13)       =    120.536018    -0.000265    -0.443525   120.092493
	   24 B(1,7,14)       =    119.356997     0.000242     0.615596   119.972592
	   25 B(2,1,6)        =    120.000133     0.000026     0.036194   120.036328
	   26 B(2,1,7)        =    119.451389     0.000194     0.385606   119.836995
	   27 B(2,3,4)        =    120.104063     0.000004     0.032586   120.136648
	   28 B(2,3,9)        =    119.694745    -0.000011    -0.062707   119.632038
	   29 B(3,2,8)        =    119.706841    -0.000045    -0.209433   119.497408
	   30 B(3,4,5)        =    120.347114    -0.000005    -0.017888   120.329226
	   31 B(3,4,10)       =    119.835143     0.000000     0.002434   119.837577
	   32 B(4,3,9)        =    120.199659     0.000007     0.028780   120.228439
	   33 B(4,5,6)        =    120.040391    -0.000000    -0.007859   120.032532
	   34 B(4,5,11)       =    120.204377     0.000006     0.027015   120.231392
	   35 B(5,4,10)       =    119.817721     0.000005     0.015324   119.833045
	   36 B(5,6,12)       =    119.297777     0.000056     0.128527   119.426304
	   37 B(6,1,7)        =    120.548352    -0.000219    -0.428052   120.120300
	   38 B(6,5,11)       =    119.752987    -0.000006    -0.019187   119.733800
	   39 B(7,13,17)      =    122.403820     0.000124     0.698341   123.102161
	   40 B(7,13,18)      =    120.842138    -0.000203    -1.996760   118.845378
	   41 B(7,14,15)      =    123.106986    -0.000010     0.022950   123.129936
	   42 B(7,14,16)      =    119.952830     0.000001     0.010122   119.962952
	   43 B(13,7,14)      =    119.796045     0.000041     0.109044   119.905089
	   44 B(15,14,16)     =    116.921257     0.000006    -0.120233   116.801023
	   45 B(17,13,18)     =    116.451897     0.000054    -0.366285   116.085612
	   46 D(1,2,3,4)      =      0.955428    -0.000002    -0.225523     0.729905
	   47 D(1,2,3,9)      =   -178.595093    -0.000001    -0.059670  -178.654763
	   48 D(1,6,5,4)      =      0.427605     0.000000     0.029540     0.457145
	   49 D(1,6,5,11)     =   -179.028387     0.000000     0.033095  -178.995292
	   50 *D(1,7,13,17)   =    169.999990    -0.000000    -0.000000   169.999990
	   51 D(1,7,13,18)    =     -3.461444     0.000061    10.057307     6.595863
	   52 D(1,7,14,15)    =   -172.941709    -0.000021    -3.024622  -175.966332
	   53 D(1,7,14,16)    =      8.690627     0.000003    -0.789793     7.900834
	   54 D(2,1,6,5)      =      0.187300    -0.000002    -0.325544    -0.138244
	   55 D(2,1,6,12)     =   -176.657767    -0.000004    -0.482845  -177.140613
	   56 D(2,1,7,13)     =   -139.956486    -0.000014    -0.803313  -140.759799
	   57 D(2,1,7,14)     =     33.627293     0.000027     3.624778    37.252071
	   58 D(2,3,4,5)      =     -0.343576    -0.000000    -0.070980    -0.414557
	   59 D(2,3,4,10)     =    179.603275     0.000001     0.124238   179.727513
	   60 D(3,2,1,6)      =     -0.879227     0.000004     0.423551    -0.455676
	   61 D(3,2,1,7)      =    178.992629    -0.000001    -0.365749   178.626880
	   62 D(3,4,5,6)      =     -0.354420     0.000001     0.169603    -0.184816
	   63 D(3,4,5,11)     =    179.099095     0.000001     0.165776   179.264871
	   64 D(4,3,2,8)      =    177.494146    -0.000003    -0.403343   177.090804
	   65 D(4,5,6,12)     =    177.321521     0.000001     0.176484   177.498005
	   66 D(5,4,3,9)      =    179.204657    -0.000002    -0.238244   178.966413
	   67 D(5,6,1,7)      =   -179.683133     0.000002     0.464953  -179.218179
	   68 D(6,1,2,8)      =   -177.390432     0.000005     0.620079  -176.770353
	   69 D(6,1,7,13)     =     39.914653    -0.000019    -1.592675    38.321978
	   70 D(6,1,7,14)     =   -146.501568     0.000022     2.835416  -143.666152
	   71 D(6,5,4,10)     =    179.698720    -0.000000    -0.025599   179.673120
	   72 D(7,1,2,8)      =      2.481425     0.000000    -0.169221     2.312203
	   73 D(7,1,6,12)     =      3.471801     0.000000     0.307652     3.779452
	   74 D(8,2,3,9)      =     -2.056375    -0.000001    -0.237490    -2.293865
	   75 D(9,3,4,10)     =     -0.848492    -0.000000    -0.043025    -0.891517
	   76 D(10,4,5,11)    =     -0.847765    -0.000000    -0.029427    -0.877193
	   77 D(11,5,6,12)    =     -2.134471     0.000001     0.180039    -1.954432
	   78 D(13,7,14,15)   =      0.690252     0.000016     1.359038     2.049290
	   79 D(13,7,14,16)   =   -177.677411     0.000039     3.593867  -174.083544
	   80 D(14,7,13,17)   =     -3.555706    -0.000044    -4.457523    -8.013229
	   81 D(14,7,13,18)   =   -177.017140     0.000016     5.599784  -171.417356
	 ---------------------------------------------------------------------------
	Successfully symmetrized geometry.

  ==> Convergence Check <==

  Measures of convergence in internal coordinates in au.
  Criteria marked as inactive (o), active & met (*), and active & unmet ( ).
  ---------------------------------------------------------------------------------------------
   Step     Total Energy     Delta E     MAX Force     RMS Force      MAX Disp      RMS Disp   
  ---------------------------------------------------------------------------------------------
    Convergence Criteria    1.00e-06 *    3.00e-04 *             o    1.20e-03 *             o
  ---------------------------------------------------------------------------------------------
      2    -381.46798991   -2.41e-03      1.89e-02      2.43e-03 o    1.76e-01      2.81e-02 o  ~
  ---------------------------------------------------------------------------------------------

	Writing optimization data to binary file.
	Structure for next step:
	Cartesian Geometry (in Angstrom)
	    C     0.0375340701  -0.0175766781  -0.1813235573
	    C     0.0350793609   1.2044192297   0.5167991468
	    C     0.0032047982   1.2026091077   1.9085019540
	    C    -0.0108020399  -0.0070041901   2.6084867488
	    C    -0.0016763167  -1.2227683131   1.9176479384
	    C     0.0175655378  -1.2330550900   0.5266540690
	    C     0.0405876288  -0.0200835493  -1.6518462045
	    H    -0.0022630180   2.1494603988  -0.0179324306
	    H    -0.0208191565   2.1452428904   2.4459455930
	    H    -0.0311925909  -0.0027467487   3.6939659875
	    H    -0.0005477747  -2.1610967366   2.4629267133
	    H     0.0658547933  -2.1830431472   0.0001286767
	    N    -0.6855894028  -0.9135189672  -2.3190300793
	    N     0.7390843433   0.8970327408  -2.3168473711
	    H     0.7280118747   0.9767603606  -3.3278126363
	    H     1.3613425714   1.5195177273  -1.8166585450
	    H    -0.8355912738  -0.8682816278  -3.3210741265
	    H    -1.3192154052  -1.5252844072  -1.7958738770
			--------------------------
			 OPTKING Finished Execution 
			--------------------------

    Structure for next step:
    Molecular point group: c1
    Full point group: C1

    Geometry (in Angstrom), charge = 1, multiplicity = 1:

    C            0.037534070108    -0.017576678121    -0.181323557297
    C            0.035079360901     1.204419229655     0.516799146846
    C            0.003204798193     1.202609107702     1.908501953975
    C           -0.010802039854    -0.007004190135     2.608486748810
    C           -0.001676316675    -1.222768313073     1.917647938442
    C            0.017565537776    -1.233055090019     0.526654069044
    C            0.040587628759    -0.020083549300    -1.651846204486
    H           -0.002263017981     2.149460398764    -0.017932430625
    H           -0.020819156505     2.145242890424     2.445945592998
    H           -0.031192590890    -0.002746748690     3.693965987458
    H           -0.000547774664    -2.161096736615     2.462926713347
    H            0.065854793259    -2.183043147196     0.000128676670
    N           -0.685589402816    -0.913518967178    -2.319030079335
    N            0.739084343256     0.897032740807    -2.316847371109
    H            0.728011874740     0.976760360613    -3.327812636289
    H            1.361342571421     1.519517727324    -1.816658544998
    H           -0.835591273849    -0.868281627764    -3.321074126458
    H           -1.319215405179    -1.525284407198    -1.795873876995

gradient() will perform analytic gradient computation.

*** tstart() called on rosa.prib.upf.edu
*** at Sat Sep 29 20:40:05 2018

   => Loading Basis Set <=

    Name: 6-31G*
    Role: ORBITAL
    Keyword: BASIS
    atoms 1-7         entry C          line   111 file /shared/joao/test_parameterize/miniconda3/share/psi4/basis/6-31gs.gbs 
    atoms 8-12, 15-18 entry H          line    44 file /shared/joao/test_parameterize/miniconda3/share/psi4/basis/6-31gs.gbs 
    atoms 13-14       entry N          line   128 file /shared/joao/test_parameterize/miniconda3/share/psi4/basis/6-31gs.gbs 


         ---------------------------------------------------------
                                   SCF
            by Justin Turney, Rob Parrish, Andy Simmonett
                             and Daniel Smith
                              RKS Reference
                        4 Threads,   2861 MiB Core
         ---------------------------------------------------------

  ==> Geometry <==

    Molecular point group: c1
    Full point group: C1

    Geometry (in Angstrom), charge = 1, multiplicity = 1:

       Center              X                  Y                   Z               Mass       
[...]
	             0.0021235334       -0.0017075791        0.0002008612
	             0.0000091638       -0.0000045707       -0.0000046851
	             0.0000022597       -0.0000029151       -0.0000016911
	             0.0000027026        0.0000007326       -0.0000009129
	             0.0000058128       -0.0000022859       -0.0000013763
	             0.0000111465        0.0000061914       -0.0000009532
	             0.0037907952       -0.0021878537       -0.0008622730
	            -0.0000037048       -0.0000573676       -0.0000008845
	            -0.0000163055        0.0000145202        0.0000004849
	            -0.0000075845       -0.0000064087        0.0000078838
	            -0.0035579982        0.0022418698        0.0006061298
	            -0.0000326828       -0.0000139471        0.0000121434

	---Fragment 1 Intrafragment Coordinates---
	 - Coordinate -           - BOHR/RAD -       - ANG/DEG -
	 R(1,2)           =         2.659139	       1.407156
	 R(1,6)           =         2.659654	       1.407428
	 R(1,7)           =         2.774135	       1.468009
	 R(2,3)           =         2.629783	       1.391621
	 R(2,8)           =         2.052873	       1.086334
	 R(3,4)           =         2.641818	       1.397990
	 R(3,9)           =         2.050644	       1.085154
	 R(4,5)           =         2.642387	       1.398291
	 R(4,10)          =         2.051542	       1.085629
	 R(5,6)           =         2.629135	       1.391279
	 R(5,11)          =         2.050640	       1.085152
	 R(6,12)          =         2.053189	       1.086501
	 R(7,13)          =         2.518210	       1.332579
	 R(7,14)          =         2.511332	       1.328940
	 R(13,17)         =         1.915849	       1.013824
	 R(13,18)         =         1.912992	       1.012312
	 R(14,15)         =         1.915050	       1.013401
	 R(14,16)         =         1.911812	       1.011687
	 B(1,2,3)         =         2.087713	     119.617149
	 B(1,2,8)         =         2.105196	     120.618853
	 B(1,6,5)         =         2.088361	     119.654267
	 B(1,6,12)        =         2.103595	     120.527128
	 B(1,7,13)        =         2.091106	     119.811521
	 B(1,7,14)        =         2.093224	     119.932874
	 B(2,1,6)         =         2.097551	     120.180819
	 B(2,1,7)         =         2.091543	     119.836561
	 B(2,3,4)         =         2.095995	     120.091677
	 B(2,3,9)         =         2.088895	     119.684882
	 B(3,2,8)         =         2.088907	     119.685542
	 B(3,4,5)         =         2.101292	     120.395183
	 B(3,4,10)        =         2.090889	     119.799132
	 B(4,3,9)         =         2.098251	     120.220921
	 B(4,5,6)         =         2.095402	     120.057710
	 B(4,5,11)        =         2.098246	     120.220637
	 B(5,4,10)        =         2.091004	     119.805682
	 B(5,6,12)        =         2.089970	     119.746434
	 B(6,1,7)         =         2.094080	     119.981944
	 B(6,5,11)        =         2.089482	     119.718490
	 B(7,13,17)       =         2.132647	     122.191700
	 B(7,13,18)       =         2.072065	     118.720580
	 B(7,14,15)       =         2.145537	     122.930243
	 B(7,14,16)       =         2.091522	     119.835402
	 B(13,7,14)       =         2.098717	     120.247621
	 B(15,14,16)      =         2.040509	     116.912533
	 B(17,13,18)      =         2.018824	     115.670076
	 D(1,2,3,4)       =         0.010388	       0.595184
	 D(1,2,3,9)       =        -3.121149	    -178.828640
	 D(1,6,5,4)       =         0.007437	       0.426130
	 D(1,6,5,11)      =        -3.122890	    -178.928411
	*D(1,7,13,17)     =         2.967060	     169.999990
	 D(1,7,13,18)     =         0.205531	      11.776062
	 D(1,7,14,15)     =        -3.061975	    -175.438252
	 D(1,7,14,16)     =         0.196896	      11.281284
	 D(2,1,6,5)       =        -0.001504	      -0.086180
	 D(2,1,6,12)      =        -3.089045	    -176.989232
	 D(2,1,7,13)      =        -2.503885	    -143.462057
	 D(2,1,7,14)      =         0.619814	      35.512724
	 D(2,3,4,5)       =        -0.004508	      -0.258266
	 D(2,3,4,10)      =         3.136786	     179.724589
	 D(3,2,1,6)       =        -0.007419	      -0.425076
	 D(3,2,1,7)       =         3.128954	     179.275868
	 D(3,4,5,6)       =        -0.004505	      -0.258112
	 D(3,4,5,11)      =         3.125765	     179.093159
	 D(4,3,2,8)       =         3.096123	     177.394757
	 D(4,5,6,12)      =         3.095404	     177.353608
	 D(5,4,3,9)       =         3.126975	     179.162443
	 D(5,6,1,7)       =        -3.137870	    -179.786687
	 D(6,1,2,8)       =        -3.092622	    -177.194189
	 D(6,1,7,13)      =         0.632498	      36.239488
	 D(6,1,7,14)      =        -2.526988	    -144.785732
	 D(6,5,4,10)      =         3.137387	     179.759034
	 D(7,1,2,8)       =         0.043751	       2.506755
	 D(7,1,6,12)      =         0.057775	       3.310261
	 D(8,2,3,9)       =        -0.035414	      -2.029067
	 D(9,3,4,10)      =        -0.014917	      -0.854702
	 D(10,4,5,11)     =        -0.015528	      -0.889695
	 D(11,5,6,12)     =        -0.034923	      -2.000934
	 D(13,7,14,15)    =         0.061645	       3.532008
	 D(13,7,14,16)    =        -2.962669	    -169.748456
	 D(14,7,13,17)    =        -0.156583	      -8.971522
	 D(14,7,13,18)    =        -2.918111	    -167.195450

	Current energy   :      -381.4695484042

	Energy change for the previous step:
		Projected    :        -0.0000020668
		Actual       :        -0.0000005043
	Energy ratio indicates iffy step: Trust radius decreased to 2.500e-01.


	Performing BFGS update.
	Previous computed or guess Hessian on step 1.
	Steps to be used in Hessian update: 6 5
	Taking RFO optimization step.
	Going to follow RFO solution 1.
	Using RFO vector 1.
	Norm of target step-size    0.00282
	Projected energy change by RFO approximation:        -0.0000002406

	Back-transformation to cartesian coordinates...
	Successfully converged to displaced geometry.

	Back-transformation to cartesian coordinates to adjust frozen coordinates...
	Successfully converged to displaced geometry.

	--- Internal Coordinate Step in ANG or DEG, aJ/ANG or AJ/DEG ---
	 ---------------------------------------------------------------------------
	   Coordinate                Previous        Force       Change         New 
	   ----------                --------       ------       ------       ------
	    1 R(1,2)          =      1.407156     0.000144     0.000029     1.407184
	    2 R(1,6)          =      1.407428     0.000008     0.000013     1.407441
	    3 R(1,7)          =      1.468009    -0.000359    -0.000098     1.467911
	    4 R(2,3)          =      1.391621    -0.000009    -0.000006     1.391615
	    5 R(2,8)          =      1.086334     0.000020     0.000003     1.086337
	    6 R(3,4)          =      1.397990     0.000003    -0.000002     1.397987
	    7 R(3,9)          =      1.085154     0.000022     0.000003     1.085157
	    8 R(4,5)          =      1.398291     0.000056     0.000012     1.398303
	    9 R(4,10)         =      1.085629    -0.000003    -0.000000     1.085629
	   10 R(5,6)          =      1.391279    -0.000006    -0.000011     1.391267
	   11 R(5,11)         =      1.085152    -0.000016    -0.000004     1.085148
	   12 R(6,12)         =      1.086501     0.000043     0.000008     1.086508
	   13 R(7,13)         =      1.332579     0.000108     0.000022     1.332601
	   14 R(7,14)         =      1.328940     0.000439     0.000075     1.329014
	   15 R(13,17)        =      1.013824    -0.000055    -0.000009     1.013815
	   16 R(13,18)        =      1.012312    -0.000293    -0.000028     1.012283
	   17 R(14,15)        =      1.013401     0.000004    -0.000001     1.013400
	   18 R(14,16)        =      1.011687     0.000031     0.000000     1.011687
	   19 B(1,2,3)        =    119.617149     0.000000     0.002908   119.620057
	   20 B(1,2,8)        =    120.618853     0.000000    -0.000681   120.618172
	   21 B(1,6,5)        =    119.654267     0.000001     0.004284   119.658552
	   22 B(1,6,12)       =    120.527128    -0.000000     0.001648   120.528776
	   23 B(1,7,13)       =    119.811521     0.000000     0.006663   119.818184
	   24 B(1,7,14)       =    119.932874    -0.000001    -0.002043   119.930831
	   25 B(2,1,6)        =    120.180819    -0.000001    -0.006157   120.174662
	   26 B(2,1,7)        =    119.836561     0.000002     0.003051   119.839612
	   27 B(2,3,4)        =    120.091677     0.000000     0.000916   120.092593
	   28 B(2,3,9)        =    119.684882    -0.000000    -0.000503   119.684379
	   29 B(3,2,8)        =    119.685542    -0.000001    -0.003372   119.682170
	   30 B(3,4,5)        =    120.395183    -0.000000    -0.001811   120.393373
	   31 B(3,4,10)       =    119.799132     0.000000     0.001162   119.800294
	   32 B(4,3,9)        =    120.220921    -0.000000    -0.000466   120.220454
	   33 B(4,5,6)        =    120.057710     0.000000    -0.000160   120.057549
	   34 B(4,5,11)       =    120.220637    -0.000000    -0.000949   120.219689
	   35 B(5,4,10)       =    119.805682     0.000000     0.000651   119.806333
	   36 B(5,6,12)       =    119.746434    -0.000001    -0.005056   119.741378
	   37 B(6,1,7)        =    119.981944    -0.000000     0.003089   119.985034
	   38 B(6,5,11)       =    119.718490     0.000000     0.001202   119.719692
	   39 B(7,13,17)      =    122.191700     0.000001     0.016362   122.208061
	   40 B(7,13,18)      =    118.720580    -0.000001     0.007570   118.728150
	   41 B(7,14,15)      =    122.930243    -0.000001    -0.007997   122.922247
	   42 B(7,14,16)      =    119.835402     0.000001     0.004947   119.840350
	   43 B(13,7,14)      =    120.247621     0.000000    -0.004440   120.243181
	   44 B(15,14,16)     =    116.912533    -0.000001    -0.008232   116.904301
	   45 B(17,13,18)     =    115.670076    -0.000000    -0.009985   115.660091
	   46 D(1,2,3,4)      =      0.595184     0.000000     0.007087     0.602271
	   47 D(1,2,3,9)      =   -178.828640     0.000000     0.013134  -178.815506
	   48 D(1,6,5,4)      =      0.426130    -0.000000    -0.008473     0.417657
	   49 D(1,6,5,11)     =   -178.928411    -0.000000    -0.017952  -178.946363
	   50 *D(1,7,13,17)   =    169.999990     0.000000    -0.000000   169.999990
	   51 D(1,7,13,18)    =     11.776062    -0.000000    -0.040545    11.735517
	   52 D(1,7,14,15)    =   -175.438252    -0.000000    -0.083736  -175.521988
	   53 D(1,7,14,16)    =     11.281284     0.000000     0.033106    11.314390
	   54 D(2,1,6,5)      =     -0.086180     0.000000     0.010712    -0.075468
	   55 D(2,1,6,12)     =   -176.989232    -0.000000    -0.007972  -176.997204
	   56 D(2,1,7,13)     =   -143.462057    -0.000000    -0.029297  -143.491354
	   57 D(2,1,7,14)     =     35.512724    -0.000000    -0.017725    35.494999
	   58 D(2,3,4,5)      =     -0.258266    -0.000000    -0.004882    -0.263148
	   59 D(2,3,4,10)     =    179.724589     0.000000     0.010043   179.734631
	   60 D(3,2,1,6)      =     -0.425076    -0.000000    -0.010012    -0.435088
	   61 D(3,2,1,7)      =    179.275868    -0.000000    -0.013578   179.262290
	   62 D(3,4,5,6)      =     -0.258112     0.000000     0.005602    -0.252510
	   63 D(3,4,5,11)     =    179.093159     0.000000     0.015143   179.108302
	   64 D(4,3,2,8)      =    177.394757    -0.000000    -0.016189   177.378568
	   65 D(4,5,6,12)     =    177.353608     0.000000     0.010269   177.363877
	   66 D(5,4,3,9)      =    179.162443    -0.000000    -0.010961   179.151481
	   67 D(5,6,1,7)      =   -179.786687     0.000000     0.014283  -179.772404
	   68 D(6,1,2,8)      =   -177.194189     0.000000     0.013573  -177.180616
	   69 D(6,1,7,13)     =     36.239488    -0.000000    -0.032884    36.206603
	   70 D(6,1,7,14)     =   -144.785732    -0.000000    -0.021312  -144.807044
	   71 D(6,5,4,10)     =    179.759034    -0.000000    -0.009323   179.749711
	   72 D(7,1,2,8)      =      2.506755     0.000000     0.010007     2.516762
	   73 D(7,1,6,12)     =      3.310261    -0.000000    -0.004401     3.305860
	   74 D(8,2,3,9)      =     -2.029067    -0.000000    -0.010143    -2.039209
	   75 D(9,3,4,10)     =     -0.854702     0.000000     0.003963    -0.850739
	   76 D(10,4,5,11)    =     -0.889695     0.000000     0.000218    -0.889477
	   77 D(11,5,6,12)    =     -2.000934     0.000000     0.000790    -2.000144
	   78 D(13,7,14,15)   =      3.532008    -0.000000    -0.071999     3.460009
	   79 D(13,7,14,16)   =   -169.748456     0.000000     0.044843  -169.703613
	   80 D(14,7,13,17)   =     -8.971522    -0.000000    -0.011635    -8.983156
	   81 D(14,7,13,18)   =   -167.195450    -0.000000    -0.052180  -167.247629
	 ---------------------------------------------------------------------------
	Successfully symmetrized geometry.

  ==> Convergence Check <==

  Measures of convergence in internal coordinates in au.
  Criteria marked as inactive (o), active & met (*), and active & unmet ( ).
  ---------------------------------------------------------------------------------------------
   Step     Total Energy     Delta E     MAX Force     RMS Force      MAX Disp      RMS Disp   
  ---------------------------------------------------------------------------------------------
    Convergence Criteria    1.00e-06 *    3.00e-04 *             o    1.20e-03 *             o
  ---------------------------------------------------------------------------------------------
      7    -381.46954840   -5.04e-07 *    5.33e-05 *    1.13e-05 o    1.46e-03      3.14e-04 o  ~
  ---------------------------------------------------------------------------------------------


  **** Optimization is complete! (in 7 steps) ****

  ==> Optimization Summary <==

  Measures of convergence in internal coordinates in au.
  --------------------------------------------------------------------------------------------------------------- ~
   Step         Total Energy             Delta E       MAX Force       RMS Force        MAX Disp        RMS Disp  ~
  --------------------------------------------------------------------------------------------------------------- ~
      1    -381.465583283036   -381.465583283036      0.00811727      0.00179651      0.30501052      0.04900830  ~
      2    -381.467989913305     -0.002406630270      0.01890412      0.00242608      0.17553313      0.02811055  ~
      3    -381.469231323327     -0.001241410021      0.01053295      0.00129129      0.09340060      0.01758411  ~
      4    -381.469511106729     -0.000279783402      0.00146263      0.00039619      0.02078403      0.00468731  ~
      5    -381.469543088635     -0.000031981906      0.00058851      0.00011221      0.01103840      0.00270151  ~
      6    -381.469547899954     -0.000004811319      0.00018357      0.00003806      0.00315195      0.00074578  ~
      7    -381.469548404219     -0.000000504265      0.00005329      0.00001131      0.00146147      0.00031373  ~
  --------------------------------------------------------------------------------------------------------------- ~

	Writing optimization data to binary file.
	Final energy is   -381.4695484042188
	Final (previous) structure:
	Cartesian Geometry (in Angstrom)
	    C     0.0268252586  -0.0151501793  -0.1813384035
	    C     0.0340026589   1.2067330857   0.5165421136
	    C     0.0101917604   1.2041875566   1.9079571187
	    C    -0.0081009392  -0.0066504961   2.6064638156
	    C    -0.0080883561  -1.2221896686   1.9153183844
	    C     0.0047674642  -1.2327985986   0.5241397309
	    C     0.0357636399  -0.0178848287  -1.6493174046
	    H     0.0052268597   2.1507113968  -0.0202983001
	    H    -0.0035722634   2.1459327413   2.4469242093
	    H    -0.0221193346  -0.0031224881   3.6919967094
	    H    -0.0074725732  -2.1604668223   2.4604699151
	    H     0.0482725291  -2.1794243638  -0.0073590019
	    N    -0.6572354370  -0.9416228365  -2.3143192699
	    N     0.7175337054   0.9120211995  -2.3100329399
	    H     0.7009623431   0.9938813347  -3.3199860582
	    H     1.3627284126   1.5117870517  -1.8125233368
	    H    -0.7992905822  -0.8924363433  -3.3169355445
	    H    -1.3198271462  -1.5129247412  -1.8050437379
	Saving final (previous) structure.
	Removing binary optimization data file.
			--------------------------
			 OPTKING Finished Execution 
			--------------------------

    Final optimized geometry and variables:
    Molecular point group: c1
    Full point group: C1

    Geometry (in Angstrom), charge = 1, multiplicity = 1:

    C            0.026825258575    -0.015150179256    -0.181338403462
    C            0.034002658850     1.206733085685     0.516542113644
    C            0.010191760370     1.204187556613     1.907957118735
    C           -0.008100939217    -0.006650496127     2.606463815632
    C           -0.008088356085    -1.222189668644     1.915318384427
    C            0.004767464177    -1.232798598556     0.524139730898
    C            0.035763639950    -0.017884828654    -1.649317404614
    H            0.005226859737     2.150711396805    -0.020298300057
    H           -0.003572263448     2.145932741305     2.446924209309
    H           -0.022119334649    -0.003122488080     3.691996709448
    H           -0.007472573210    -2.160466822293     2.460469915118
    H            0.048272529067    -2.179424363774    -0.007359001946
    N           -0.657235436950    -0.941622836504    -2.314319269870
    N            0.717533705448     0.912021199499    -2.310032939872
    H            0.700962343120     0.993881334734    -3.319986058241
    H            1.362728412646     1.511787051684    -1.812523336767
    H           -0.799290582187    -0.892436343251    -3.316935544464
    H           -1.319827146196    -1.512924741186    -1.805043737920

	Removing binary optimization data file.
	Cleaning optimization helper files.


Properties will be evaluated at   0.000000,   0.000000,   0.000000 [a0]
OEProp: No title given, name of density matrix used for the following properties is 'SCF density'
  Nuclear Dipole Moment: [e a0]
     X:     1.8126      Y:    -1.2393      Z:    -0.4056

  Electronic Dipole Moment: [e a0]
     X:    -1.8752      Y:     1.3281      Z:    -1.8560

  Dipole Moment: [e a0]
     X:    -0.0627      Y:     0.0889      Z:    -2.2616     Total:     2.2642

  Dipole Moment: [D]
     X:    -0.1593      Y:     0.2258      Z:    -5.7485     Total:     5.7551

  Quadrupole Moment: [D A]
    XX:   -49.1585     YY:   -38.3865     ZZ:   -13.3122
    XY:     6.3500     XZ:     0.5841     YZ:    -0.9374

  Traceless Quadrupole Moment: [D A]
    XX:   -15.5394     YY:    -4.7674     ZZ:    20.3068
    XY:     6.3500     XZ:     0.5841     YZ:    -0.9374

  Mulliken Charges: (a.u.)
   Center  Symbol    Alpha    Beta     Spin     Total
       1     C     2.95714  2.95714  0.00000  0.08572
       2     C     3.08255  3.08255  0.00000 -0.16510
       3     C     3.06250  3.06250  0.00000 -0.12500
       4     C     3.05161  3.05161  0.00000 -0.10322
       5     C     3.06243  3.06243  0.00000 -0.12485
       6     C     3.08333  3.08333  0.00000 -0.16667
       7     C     2.72482  2.72482  0.00000  0.55037
       8     H     0.41466  0.41466  0.00000  0.17069
       9     H     0.40550  0.40550  0.00000  0.18901
      10     H     0.40396  0.40396  0.00000  0.19209
      11     H     0.40536  0.40536  0.00000  0.18928
      12     H     0.41276  0.41276  0.00000  0.17448
      13     N     3.86012  3.86012  0.00000 -0.72025
      14     N     3.86196  3.86196  0.00000 -0.72392
      15     H     0.30538  0.30538  0.00000  0.38925
      16     H     0.29918  0.29918  0.00000  0.40163
      17     H     0.30618  0.30618  0.00000  0.38764
      18     H     0.30057  0.30057  0.00000  0.39886

   Total alpha = 32.00000, Total beta = 32.00000, Total charge =  1.00000


    Psi4 stopped on: Saturday, 29 September 2018 08:43PM
    Psi4 wall time for execution: 0:04:25.55

*** Psi4 exiting successfully. Buy a developer a beer!
