
    -----------------------------------------------------------------------
          Psi4: An Open-Source Ab Initio Electronic Structure Package
                               Psi4 1.2.1 release

                         Git: Rev {HEAD} 406f4de 


    R. M. Parrish, L. A. Burns, D. G. A. Smith, A. C. Simmonett,
    A. E. DePrince III, E. G. Hohenstein, U. Bozkaya, A. Yu. Sokolov,
    R. Di Remigio, R. M. Richard, J. F. Gonthier, A. M. James,
    H. R. McAlexander, A. Kumar, M. Saitow, X. Wang, B. P. Pritchard,
    P. Verma, H. F. Schaefer III, K. Patkowski, R. A. King, E. F. Valeev,
    F. A. Evangelista, J. M. Turney, T. D. Crawford, and C. D. Sherrill,
    J. Chem. Theory Comput. 13(7) pp 3185--3197 (2017).
    (doi: 10.1021/acs.jctc.7b00174)


                         Additional Contributions by
    P. Kraus, H. Kruse, M. H. Lechner, M. C. Schieber, and R. A. Shaw

    -----------------------------------------------------------------------


    Psi4 started on: Saturday, 29 September 2018 04:49PM

    Process ID: 4461
    Host:       loro.prib.upf.edu
    PSIDATADIR: /shared/joao/test_parameterize/miniconda3/share/psi4
    Memory:     500.0 MiB
    Threads:    1
    
  ==> Input File <==

--------------------------------------------------------------------------
set_num_threads(1)
set_memory('5348 MB')

set { scf_mem_safety_factor 0.7 }

set { reference rks }
set { basis cc-pVDZ }

molecule MOL {
    0 1
    noreorient
    nocom
    symmetry c1
    O    1.141000   0.017000   0.083000
    C    2.558000   0.086000  -0.005000
    C    3.192000  -0.789000   1.067000
    O    2.180889  -1.419955   1.843478
    H    0.789000   0.590000  -0.620000
    H    2.874000   1.128000   0.115000
    H    2.871000  -0.243000  -1.001000
    H    3.826944  -0.187640   1.725141
    H    3.822845  -1.558683   0.608197
    H    2.639039  -1.962711   2.508610
}

set optking { frozen_dihedral = (" 1 2 3 4 ") }

energy, wfn = energy('B3LYP-D3', return_wfn=True)

import os
os.chdir(os.environ['HTMD_PSI4_WORKDIR'])

oeprop(wfn, 'DIPOLE', 'QUADRUPOLE', 'MULLIKEN_CHARGES')

with open('psi4out.xyz', 'w') as f:
    f.write('10 ' )
    f.write('%.12f\n' % energy)
    f.write(MOL.save_string_xyz())
--------------------------------------------------------------------------
  Threads set to 1 by Python driver.

  Memory set to   4.981 GiB by Python driver.

*** tstart() called on loro.prib.upf.edu
*** at Sat Sep 29 16:49:34 2018

   => Loading Basis Set <=

    Name: CC-PVDZ
    Role: ORBITAL
    Keyword: BASIS
    atoms 1, 4 entry O          line   198 file /shared/joao/test_parameterize/miniconda3/share/psi4/basis/cc-pvdz.gbs 
    atoms 2-3  entry C          line   138 file /shared/joao/test_parameterize/miniconda3/share/psi4/basis/cc-pvdz.gbs 
    atoms 5-10 entry H          line    22 file /shared/joao/test_parameterize/miniconda3/share/psi4/basis/cc-pvdz.gbs 


         ---------------------------------------------------------
                                   SCF
            by Justin Turney, Rob Parrish, Andy Simmonett
                             and Daniel Smith
                              RKS Reference
                        1 Threads,   5100 MiB Core
         ---------------------------------------------------------

  ==> Geometry <==

    Molecular point group: c1
    Full point group: C1

    Geometry (in Angstrom), charge = 0, multiplicity = 1:

       Center              X                  Y                   Z               Mass       
    ------------   -----------------  -----------------  -----------------  -----------------
         O            1.141000000000     0.017000000000     0.083000000000    15.994914619560
         C            2.558000000000     0.086000000000    -0.005000000000    12.000000000000
         C            3.192000000000    -0.789000000000     1.067000000000    12.000000000000
         O            2.180889000000    -1.419955000000     1.843478000000    15.994914619560
         H            0.789000000000     0.590000000000    -0.620000000000     1.007825032070
         H            2.874000000000     1.128000000000     0.115000000000     1.007825032070
         H            2.871000000000    -0.243000000000    -1.001000000000     1.007825032070
         H            3.826944000000    -0.187640000000     1.725141000000     1.007825032070
         H            3.822845000000    -1.558683000000     0.608197000000     1.007825032070
         H            2.639039000000    -1.962711000000     2.508610000000     1.007825032070

  Running in c1 symmetry.

  Rotational constants: A =      0.30530  B =      0.03952  C =      0.03546 [cm^-1]
  Rotational constants: A =   9152.51521  B =   1184.82484  C =   1063.05913 [MHz]
  Nuclear repulsion =  133.292494439275544

  Charge       = 0
  Multiplicity = 1
  Electrons    = 34
  Nalpha       = 17
  Nbeta        = 17

  ==> Algorithm <==

  SCF Algorithm Type is DF.
  DIIS enabled.
  MOM disabled.
  Fractional occupation disabled.
  Guess Type is SAD.
  Energy threshold   = 1.00e-06
  Density threshold  = 1.00e-06
  Integral threshold = 0.00e+00

  ==> Primary Basis <==

  Basis Set: CC-PVDZ
    Blend: CC-PVDZ
    Number of shells: 42
    Number of basis function: 86
    Number of Cartesian functions: 90
    Spherical Harmonics?: true
    Max angular momentum: 2

  ==> DFT Potential <==

   => Composite Functional: B3LYP-D3ZERO <= 

    B3LYP-d3zero Hyb-GGA Exchange-Correlation Functional

    P. J. Stephens, F. J. Devlin, C. F. Chabalowski, and M. J. Frisch, J. Phys. Chem. 98, 11623 (1994)

    Deriv               =              1
    GGA                 =           TRUE
    Meta                =          FALSE

    Exchange Hybrid     =           TRUE
    MP2 Hybrid          =          FALSE

   => Exchange Functionals <=

    0.0800   Slater exchange
    0.7200         Becke 88

   => Exact (HF) Exchange <=

    0.2000               HF 

   => Correlation Functionals <=

    0.1900   Vosko, Wilk & Nusair (VWN5_RPA)
    0.8100   Lee, Yang & Parr

   => Molecular Quadrature <=

    Radial Scheme       =       TREUTLER
    Pruning Scheme      =           FLAT
    Nuclear Scheme      =       TREUTLER

    BS radius alpha     =              1
    Pruning alpha       =              1
    Radial Points       =             75
    Spherical Points    =            302
    Total Points        =         222554
    Total Blocks        =           1740
    Max Points          =            256
    Max Functions       =             86

   => -D3ZERO: Empirical Dispersion <=

    Grimme's -D3 (zero-damping) Dispersion Correction
    Grimme S.; Antony J.; Ehrlich S.; Krieg H. (2010), J. Chem. Phys., 132: 154104

        S6 =   1.000000E+00
        S8 =   1.703000E+00
       SR6 =   1.261000E+00
       SR8 =   1.000000E+00
    ALPHA6 =   1.400000E+01

   => Loading Basis Set <=

    Name: (CC-PVDZ AUX)
    Role: JKFIT
    Keyword: DF_BASIS_SCF
    atoms 1, 4 entry O          line   221 file /shared/joao/test_parameterize/miniconda3/share/psi4/basis/cc-pvdz-jkfit.gbs 
    atoms 2-3  entry C          line   121 file /shared/joao/test_parameterize/miniconda3/share/psi4/basis/cc-pvdz-jkfit.gbs 
    atoms 5-10 entry H          line    51 file /shared/joao/test_parameterize/miniconda3/share/psi4/basis/cc-pvdz-jkfit.gbs 

  ==> Pre-Iterations <==

   -------------------------------------------------------
    Irrep   Nso     Nmo     Nalpha   Nbeta   Ndocc  Nsocc
   -------------------------------------------------------
     A         86      86       0       0       0       0
   -------------------------------------------------------
    Total      86      86      17      17      17       0
   -------------------------------------------------------

  ==> Integral Setup <==

  DFHelper Memory: AOs need 0.030 [GiB]; user supplied 3.486 [GiB]. Using in-core AOs.

  ==> MemDFJK: Density-Fitted J/K Matrices <==

    J tasked:                   Yes
    K tasked:                   Yes
    wK tasked:                   No
    OpenMP threads:               1
    Memory (MB):               3570
    Algorithm:                 Core
    Schwarz Cutoff:           1E-12
    Mask sparsity (%):       0.0000
    Fitting Condition:        1E-12

   => Auxiliary Basis Set <=

  Basis Set: (CC-PVDZ AUX)
    Blend: CC-PVDZ-JKFIT
    Number of shells: 150
    Number of basis function: 418
    Number of Cartesian functions: 474
    Spherical Harmonics?: true
    Max angular momentum: 3

  Minimum eigenvalue in the overlap matrix is 4.8181262456E-03.
  Using Symmetric Orthogonalization.

  SCF Guess: Superposition of Atomic Densities via on-the-fly atomic UHF.

  ==> Iterations <==

                           Total Energy        Delta E     RMS |[F,P]|

   @DF-RKS iter   0:  -230.95968999970708   -2.30960e+02   4.04984e-02 
   @DF-RKS iter   1:  -230.15822198579249    8.01468e-01   5.25786e-03 
   @DF-RKS iter   2:  -230.08874722641369    6.94748e-02   7.43167e-03 DIIS
   @DF-RKS iter   3:  -230.24226732235653   -1.53520e-01   6.68496e-04 DIIS
   @DF-RKS iter   4:  -230.24341571131694   -1.14839e-03   2.76661e-04 DIIS
   @DF-RKS iter   5:  -230.24367832244374   -2.62611e-04   5.71710e-05 DIIS
   @DF-RKS iter   6:  -230.24368942242126   -1.11000e-05   4.73406e-06 DIIS
   @DF-RKS iter   7:  -230.24368949274213   -7.03209e-08   1.78685e-06 DIIS
   @DF-RKS iter   8:  -230.24368950213261   -9.39048e-09   7.14849e-07 DIIS

  ==> Post-Iterations <==

    Orbital Energies [Eh]
    ---------------------

    Doubly Occupied:                                                      

       1A    -19.121921     2A    -19.121869     3A    -10.225544  
       4A    -10.225360     5A     -1.016419     6A     -0.993471  
       7A     -0.733955     8A     -0.598985     9A     -0.527413  
      10A     -0.477015    11A     -0.460471    12A     -0.413574  
      13A     -0.392937    14A     -0.325149    15A     -0.324083  
      16A     -0.268745    17A     -0.241864  

    Virtual:                                                              

      18A      0.038684    19A      0.077489    20A      0.089320  
      21A      0.097912    22A      0.139856    23A      0.161735  
      24A      0.181400    25A      0.242085    26A      0.289072  
      27A      0.441408    28A      0.460069    29A      0.493313  
      30A      0.535572    31A      0.549602    32A      0.557477  
      33A      0.622281    34A      0.628803    35A      0.634318  
      36A      0.644390    37A      0.698736    38A      0.717789  
      39A      0.791481    40A      0.849319    41A      0.912883  
      42A      0.985944    43A      1.017007    44A      1.040283  
      45A      1.082613    46A      1.141758    47A      1.235325  
      48A      1.239897    49A      1.335695    50A      1.351413  
      51A      1.375787    52A      1.437855    53A      1.467670  
      54A      1.522797    55A      1.583399    56A      1.600207  
      57A      1.602112    58A      1.617195    59A      1.634800  
      60A      1.739453    61A      1.743819    62A      1.813473  
      63A      1.836382    64A      1.901483    65A      1.922292  
      66A      2.013961    67A      2.014208    68A      2.034484  
      69A      2.085884    70A      2.154056    71A      2.215690  
      72A      2.351297    73A      2.396041    74A      2.403614  
      75A      2.538122    76A      2.551810    77A      2.896177  
      78A      2.970405    79A      2.988563    80A      3.002459  
      81A      3.080743    82A      3.167691    83A      3.183225  
      84A      3.229541    85A      3.702775    86A      3.709953  

    Final Occupation by Irrep:
              A 
    DOCC [    17 ]

  Energy converged.

  @DF-RKS Final Energy:  -230.24368950213261

   => Energetics <=

    Nuclear Repulsion Energy =            133.2924944392755435
    One-Electron Energy =                -578.5012131949689547
    Two-Electron Energy =                 239.5105073955406283
    DFT Exchange-Correlation Energy =     -24.5415051819797903
    Empirical Dispersion Energy =          -0.0039729600000000
    VV10 Nonlocal Energy =                  0.0000000000000000
    Total Energy =                       -230.2436895021326109



Properties will be evaluated at   0.000000,   0.000000,   0.000000 [a0]

Properties computed using the SCF density matrix

  Nuclear Dipole Moment: [e a0]
     X:   147.2058      Y:   -33.4022      Z:    47.4695

  Electronic Dipole Moment: [e a0]
     X:  -146.4235      Y:    33.6280      Z:   -47.7485

  Dipole Moment: [e a0]
     X:     0.7822      Y:     0.2259      Z:    -0.2790     Total:     0.8607

  Dipole Moment: [D]
     X:     1.9883      Y:     0.5741      Z:    -0.7092     Total:     2.1876


*** tstop() called on loro.prib.upf.edu at Sat Sep 29 16:49:50 2018
Module time:
	user time   =      13.02 seconds =       0.22 minutes
	system time =       0.20 seconds =       0.00 minutes
	total time  =         16 seconds =       0.27 minutes
Total time:
	user time   =      13.02 seconds =       0.22 minutes
	system time =       0.20 seconds =       0.00 minutes
	total time  =         16 seconds =       0.27 minutes


Properties will be evaluated at   0.000000,   0.000000,   0.000000 [a0]
OEProp: No title given, name of density matrix used for the following properties is 'SCF density'
  Nuclear Dipole Moment: [e a0]
     X:   147.2058      Y:   -33.4022      Z:    47.4695

  Electronic Dipole Moment: [e a0]
     X:  -146.4235      Y:    33.6280      Z:   -47.7485

  Dipole Moment: [e a0]
     X:     0.7822      Y:     0.2259      Z:    -0.2790     Total:     0.8607

  Dipole Moment: [D]
     X:     1.9883      Y:     0.5741      Z:    -0.7092     Total:     2.1876

  Quadrupole Moment: [D A]
    XX:   -15.4314     YY:   -22.6299     ZZ:   -21.5454
    XY:    -2.3206     XZ:     3.0420     YZ:    -2.9477

  Traceless Quadrupole Moment: [D A]
    XX:     4.4375     YY:    -2.7610     ZZ:    -1.6765
    XY:    -2.3206     XZ:     3.0420     YZ:    -2.9477

  Mulliken Charges: (a.u.)
   Center  Symbol    Alpha    Beta     Spin     Total
       1     O     4.12838  4.12838  0.00000 -0.25676
       2     C     2.93522  2.93522  0.00000  0.12955
       3     C     2.93536  2.93536  0.00000  0.12929
       4     O     4.12860  4.12860  0.00000 -0.25721
       5     H     0.43216  0.43216  0.00000  0.13568
       6     H     0.50210  0.50210  0.00000 -0.00419
       7     H     0.50211  0.50211  0.00000 -0.00421
       8     H     0.50198  0.50198  0.00000 -0.00397
       9     H     0.50197  0.50197  0.00000 -0.00395
      10     H     0.43211  0.43211  0.00000  0.13577

   Total alpha = 17.00000, Total beta = 17.00000, Total charge =  0.00000


    Psi4 stopped on: Saturday, 29 September 2018 04:49PM
    Psi4 wall time for execution: 0:00:16.23

*** Psi4 exiting successfully. Buy a developer a beer!
