
    -----------------------------------------------------------------------
          Psi4: An Open-Source Ab Initio Electronic Structure Package
                               Psi4 1.2.1 release

                         Git: Rev {HEAD} 406f4de 


    R. M. Parrish, L. A. Burns, D. G. A. Smith, A. C. Simmonett,
    A. E. DePrince III, E. G. Hohenstein, U. Bozkaya, A. Yu. Sokolov,
    R. Di Remigio, R. M. Richard, J. F. Gonthier, A. M. James,
    H. R. McAlexander, A. Kumar, M. Saitow, X. Wang, B. P. Pritchard,
    P. Verma, H. F. Schaefer III, K. Patkowski, R. A. King, E. F. Valeev,
    F. A. Evangelista, J. M. Turney, T. D. Crawford, and C. D. Sherrill,
    J. Chem. Theory Comput. 13(7) pp 3185--3197 (2017).
    (doi: 10.1021/acs.jctc.7b00174)


                         Additional Contributions by
    P. Kraus, H. Kruse, M. H. Lechner, M. C. Schieber, and R. A. Shaw

    -----------------------------------------------------------------------


    Psi4 started on: Saturday, 29 September 2018 05:08PM

    Process ID: 12754
    Host:       loro.prib.upf.edu
    PSIDATADIR: /shared/joao/test_parameterize/miniconda3/share/psi4
    Memory:     500.0 MiB
    Threads:    1
    
  ==> Input File <==

--------------------------------------------------------------------------
set_num_threads(1)
set_memory('5348 MB')

set { scf_mem_safety_factor 0.7 }

set { reference rks }
set { basis cc-pVDZ }

molecule MOL {
    0 1
    noreorient
    nocom
    symmetry c1
    O    1.050400   0.042900  -0.048100
    C    2.474100   0.047400  -0.029000
    C    3.002600  -1.068900  -0.932000
    N    2.212158  -2.293221  -0.814784
    H    0.760400   0.728400   0.578000
    H    2.809900  -0.097900   1.003200
    H    2.817400   1.026800  -0.378600
    H    4.050035  -1.280080  -0.687009
    H    2.994175  -0.726802  -1.973131
    H    2.319020  -2.675376   0.124375
    H    2.598039  -2.994586  -1.446791
}

set optking { frozen_dihedral = (" 1 2 3 4 ") }

energy, wfn = energy('B3LYP-D3', return_wfn=True)

import os
os.chdir(os.environ['HTMD_PSI4_WORKDIR'])

oeprop(wfn, 'DIPOLE', 'QUADRUPOLE', 'MULLIKEN_CHARGES')

with open('psi4out.xyz', 'w') as f:
    f.write('11 ' )
    f.write('%.12f\n' % energy)
    f.write(MOL.save_string_xyz())
--------------------------------------------------------------------------
  Threads set to 1 by Python driver.

  Memory set to   4.981 GiB by Python driver.

*** tstart() called on loro.prib.upf.edu
*** at Sat Sep 29 17:08:50 2018

   => Loading Basis Set <=

    Name: CC-PVDZ
    Role: ORBITAL
    Keyword: BASIS
    atoms 1    entry O          line   198 file /shared/joao/test_parameterize/miniconda3/share/psi4/basis/cc-pvdz.gbs 
    atoms 2-3  entry C          line   138 file /shared/joao/test_parameterize/miniconda3/share/psi4/basis/cc-pvdz.gbs 
    atoms 4    entry N          line   168 file /shared/joao/test_parameterize/miniconda3/share/psi4/basis/cc-pvdz.gbs 
    atoms 5-11 entry H          line    22 file /shared/joao/test_parameterize/miniconda3/share/psi4/basis/cc-pvdz.gbs 


         ---------------------------------------------------------
                                   SCF
            by Justin Turney, Rob Parrish, Andy Simmonett
                             and Daniel Smith
                              RKS Reference
                        1 Threads,   5100 MiB Core
         ---------------------------------------------------------

  ==> Geometry <==

    Molecular point group: c1
    Full point group: C1

    Geometry (in Angstrom), charge = 0, multiplicity = 1:

       Center              X                  Y                   Z               Mass       
    ------------   -----------------  -----------------  -----------------  -----------------
         O            1.050400000000     0.042900000000    -0.048100000000    15.994914619560
         C            2.474100000000     0.047400000000    -0.029000000000    12.000000000000
         C            3.002600000000    -1.068900000000    -0.932000000000    12.000000000000
         N            2.212158000000    -2.293221000000    -0.814784000000    14.003074004780
         H            0.760400000000     0.728400000000     0.578000000000     1.007825032070
         H            2.809900000000    -0.097900000000     1.003200000000     1.007825032070
         H            2.817400000000     1.026800000000    -0.378600000000     1.007825032070
         H            4.050035000000    -1.280080000000    -0.687009000000     1.007825032070
         H            2.994175000000    -0.726802000000    -1.973131000000     1.007825032070
         H            2.319020000000    -2.675376000000     0.124375000000     1.007825032070
         H            2.598039000000    -2.994586000000    -1.446791000000     1.007825032070

  Running in c1 symmetry.

  Rotational constants: A =      0.28659  B =      0.04159  C =      0.03741 [cm^-1]
  Rotational constants: A =   8591.61782  B =   1246.78186  C =   1121.59062 [MHz]
  Nuclear repulsion =  133.304705317339256

  Charge       = 0
  Multiplicity = 1
  Electrons    = 34
  Nalpha       = 17
  Nbeta        = 17

  ==> Algorithm <==

  SCF Algorithm Type is DF.
  DIIS enabled.
  MOM disabled.
  Fractional occupation disabled.
  Guess Type is SAD.
  Energy threshold   = 1.00e-06
  Density threshold  = 1.00e-06
  Integral threshold = 0.00e+00

  ==> Primary Basis <==

  Basis Set: CC-PVDZ
    Blend: CC-PVDZ
    Number of shells: 45
    Number of basis function: 91
    Number of Cartesian functions: 95
    Spherical Harmonics?: true
    Max angular momentum: 2

  ==> DFT Potential <==

   => Composite Functional: B3LYP-D3ZERO <= 

    B3LYP-d3zero Hyb-GGA Exchange-Correlation Functional

    P. J. Stephens, F. J. Devlin, C. F. Chabalowski, and M. J. Frisch, J. Phys. Chem. 98, 11623 (1994)

    Deriv               =              1
    GGA                 =           TRUE
    Meta                =          FALSE

    Exchange Hybrid     =           TRUE
    MP2 Hybrid          =          FALSE

   => Exchange Functionals <=

    0.0800   Slater exchange
    0.7200         Becke 88

   => Exact (HF) Exchange <=

    0.2000               HF 

   => Correlation Functionals <=

    0.1900   Vosko, Wilk & Nusair (VWN5_RPA)
    0.8100   Lee, Yang & Parr

   => Molecular Quadrature <=

    Radial Scheme       =       TREUTLER
    Pruning Scheme      =           FLAT
    Nuclear Scheme      =       TREUTLER

    BS radius alpha     =              1
    Pruning alpha       =              1
    Radial Points       =             75
    Spherical Points    =            302
    Total Points        =         245121
    Total Blocks        =           1908
    Max Points          =            256
    Max Functions       =             91

   => -D3ZERO: Empirical Dispersion <=

    Grimme's -D3 (zero-damping) Dispersion Correction
    Grimme S.; Antony J.; Ehrlich S.; Krieg H. (2010), J. Chem. Phys., 132: 154104

        S6 =   1.000000E+00
        S8 =   1.703000E+00
       SR6 =   1.261000E+00
       SR8 =   1.000000E+00
    ALPHA6 =   1.400000E+01

   => Loading Basis Set <=

    Name: (CC-PVDZ AUX)
    Role: JKFIT
    Keyword: DF_BASIS_SCF
    atoms 1    entry O          line   221 file /shared/joao/test_parameterize/miniconda3/share/psi4/basis/cc-pvdz-jkfit.gbs 
    atoms 2-3  entry C          line   121 file /shared/joao/test_parameterize/miniconda3/share/psi4/basis/cc-pvdz-jkfit.gbs 
    atoms 4    entry N          line   171 file /shared/joao/test_parameterize/miniconda3/share/psi4/basis/cc-pvdz-jkfit.gbs 
    atoms 5-11 entry H          line    51 file /shared/joao/test_parameterize/miniconda3/share/psi4/basis/cc-pvdz-jkfit.gbs 

  ==> Pre-Iterations <==

   -------------------------------------------------------
    Irrep   Nso     Nmo     Nalpha   Nbeta   Ndocc  Nsocc
   -------------------------------------------------------
     A         91      91       0       0       0       0
   -------------------------------------------------------
    Total      91      91      17      17      17       0
   -------------------------------------------------------

  ==> Integral Setup <==

  DFHelper Memory: AOs need 0.036 [GiB]; user supplied 3.486 [GiB]. Using in-core AOs.

  ==> MemDFJK: Density-Fitted J/K Matrices <==

    J tasked:                   Yes
    K tasked:                   Yes
    wK tasked:                   No
    OpenMP threads:               1
    Memory (MB):               3570
    Algorithm:                 Core
    Schwarz Cutoff:           1E-12
    Mask sparsity (%):       0.0000
    Fitting Condition:        1E-12

   => Auxiliary Basis Set <=

  Basis Set: (CC-PVDZ AUX)
    Blend: CC-PVDZ-JKFIT
    Number of shells: 159
    Number of basis function: 441
    Number of Cartesian functions: 499
    Spherical Harmonics?: true
    Max angular momentum: 3

  Minimum eigenvalue in the overlap matrix is 4.7555595874E-03.
  Using Symmetric Orthogonalization.

  SCF Guess: Superposition of Atomic Densities via on-the-fly atomic UHF.

  ==> Iterations <==

                           Total Energy        Delta E     RMS |[F,P]|

   @DF-RKS iter   0:  -210.92255351859487   -2.10923e+02   3.74393e-02 
   @DF-RKS iter   1:  -210.23737903934702    6.85174e-01   6.43993e-03 
   @DF-RKS iter   2:  -210.09284956562814    1.44529e-01   9.31775e-03 DIIS
   @DF-RKS iter   3:  -210.38387153286806   -2.91022e-01   6.53185e-04 DIIS
   @DF-RKS iter   4:  -210.38504136978918   -1.16984e-03   3.42161e-04 DIIS
   @DF-RKS iter   5:  -210.38546794563950   -4.26576e-04   6.20387e-05 DIIS
   @DF-RKS iter   6:  -210.38548176154106   -1.38159e-05   1.42095e-05 DIIS
   @DF-RKS iter   7:  -210.38548243433081   -6.72790e-07   4.41177e-06 DIIS
   @DF-RKS iter   8:  -210.38548250390249   -6.95717e-08   5.81688e-07 DIIS

  ==> Post-Iterations <==

    Orbital Energies [Eh]
    ---------------------

    Doubly Occupied:                                                      

       1A    -19.119983     2A    -14.296375     3A    -10.223837  
       4A    -10.202444     5A     -1.003788     6A     -0.869462  
       7A     -0.713892     8A     -0.592720     9A     -0.506453  
      10A     -0.484949    11A     -0.440569    12A     -0.415925  
      13A     -0.387023    14A     -0.363640    15A     -0.317062  
      16A     -0.254944    17A     -0.221912  

    Virtual:                                                              

      18A      0.045758    19A      0.080429    20A      0.096959  
      21A      0.103309    22A      0.130481    23A      0.154515  
      24A      0.162824    25A      0.194813    26A      0.240532  
      27A      0.264611    28A      0.434524    29A      0.465163  
      30A      0.496108    31A      0.505978    32A      0.553873  
      33A      0.558686    34A      0.607832    35A      0.623644  
      36A      0.644800    37A      0.651459    38A      0.662469  
      39A      0.684403    40A      0.702547    41A      0.813253  
      42A      0.818788    43A      0.858616    44A      0.916975  
      45A      0.967347    46A      0.998763    47A      1.014264  
      48A      1.060679    49A      1.160707    50A      1.208424  
      51A      1.262447    52A      1.276018    53A      1.320224  
      54A      1.390616    55A      1.455113    56A      1.476044  
      57A      1.526678    58A      1.575097    59A      1.606802  
      60A      1.613760    61A      1.621416    62A      1.681357  
      63A      1.707235    64A      1.728245    65A      1.755229  
      66A      1.780119    67A      1.854519    68A      1.886495  
      69A      1.925773    70A      1.957447    71A      1.982686  
      72A      1.992445    73A      2.055422    74A      2.143067  
      75A      2.168260    76A      2.226493    77A      2.252524  
      78A      2.377067    79A      2.398873    80A      2.452589  
      81A      2.457896    82A      2.563981    83A      2.614425  
      84A      2.686269    85A      2.829645    86A      2.969922  
      87A      3.017353    88A      3.047826    89A      3.126228  
      90A      3.206824    91A      3.709708  

    Final Occupation by Irrep:
              A 
    DOCC [    17 ]

  Energy converged.

  @DF-RKS Final Energy:  -210.38548250390249

   => Energetics <=

    Nuclear Repulsion Energy =            133.3047053173392555
    One-Electron Energy =                -549.6686554820989841
    Two-Electron Energy =                 229.4694729950575720
    DFT Exchange-Correlation Energy =     -23.4860750042003374
    Empirical Dispersion Energy =          -0.0049303300000000
    VV10 Nonlocal Energy =                  0.0000000000000000
    Total Energy =                       -210.3854825039024945



Properties will be evaluated at   0.000000,   0.000000,   0.000000 [a0]

Properties computed using the SCF density matrix

  Nuclear Dipole Moment: [e a0]
     X:   141.9137      Y:   -52.6438      Z:   -27.6547

  Electronic Dipole Moment: [e a0]
     X:  -141.1945      Y:    52.8294      Z:    28.0864

  Dipole Moment: [e a0]
     X:     0.7192      Y:     0.1856      Z:     0.4317     Total:     0.8591

  Dipole Moment: [D]
     X:     1.8280      Y:     0.4717      Z:     1.0973     Total:     2.1836


*** tstop() called on loro.prib.upf.edu at Sat Sep 29 17:09:08 2018
Module time:
	user time   =      15.09 seconds =       0.25 minutes
	system time =       0.24 seconds =       0.00 minutes
	total time  =         18 seconds =       0.30 minutes
Total time:
	user time   =      15.09 seconds =       0.25 minutes
	system time =       0.24 seconds =       0.00 minutes
	total time  =         18 seconds =       0.30 minutes


Properties will be evaluated at   0.000000,   0.000000,   0.000000 [a0]
OEProp: No title given, name of density matrix used for the following properties is 'SCF density'
  Nuclear Dipole Moment: [e a0]
     X:   141.9137      Y:   -52.6438      Z:   -27.6547

  Electronic Dipole Moment: [e a0]
     X:  -141.1945      Y:    52.8294      Z:    28.0864

  Dipole Moment: [e a0]
     X:     0.7192      Y:     0.1856      Z:     0.4317     Total:     0.8591

  Dipole Moment: [D]
     X:     1.8280      Y:     0.4717      Z:     1.0973     Total:     2.1836

  Quadrupole Moment: [D A]
    XX:   -19.0070     YY:   -21.4549     ZZ:   -24.1555
    XY:    -3.4933     XZ:    -0.5577     YZ:     0.6156

  Traceless Quadrupole Moment: [D A]
    XX:     2.5321     YY:     0.0843     ZZ:    -2.6164
    XY:    -3.4933     XZ:    -0.5577     YZ:     0.6156

  Mulliken Charges: (a.u.)
   Center  Symbol    Alpha    Beta     Spin     Total
       1     O     4.13120  4.13120  0.00000 -0.26240
       2     C     2.93324  2.93324  0.00000  0.13351
       3     C     2.98332  2.98332  0.00000  0.03335
       4     N     3.58047  3.58047  0.00000 -0.16094
       5     H     0.43269  0.43269  0.00000  0.13461
       6     H     0.50465  0.50465  0.00000 -0.00929
       7     H     0.50174  0.50174  0.00000 -0.00348
       8     H     0.50652  0.50652  0.00000 -0.01304
       9     H     0.49139  0.49139  0.00000  0.01722
      10     H     0.46791  0.46791  0.00000  0.06418
      11     H     0.46687  0.46687  0.00000  0.06626

   Total alpha = 17.00000, Total beta = 17.00000, Total charge = -0.00000


    Psi4 stopped on: Saturday, 29 September 2018 05:09PM
    Psi4 wall time for execution: 0:00:18.64

*** Psi4 exiting successfully. Buy a developer a beer!
