
    -----------------------------------------------------------------------
          Psi4: An Open-Source Ab Initio Electronic Structure Package
                               Psi4 1.2.1 release

                         Git: Rev {HEAD} 406f4de 


    R. M. Parrish, L. A. Burns, D. G. A. Smith, A. C. Simmonett,
    A. E. DePrince III, E. G. Hohenstein, U. Bozkaya, A. Yu. Sokolov,
    R. Di Remigio, R. M. Richard, J. F. Gonthier, A. M. James,
    H. R. McAlexander, A. Kumar, M. Saitow, X. Wang, B. P. Pritchard,
    P. Verma, H. F. Schaefer III, K. Patkowski, R. A. King, E. F. Valeev,
    F. A. Evangelista, J. M. Turney, T. D. Crawford, and C. D. Sherrill,
    J. Chem. Theory Comput. 13(7) pp 3185--3197 (2017).
    (doi: 10.1021/acs.jctc.7b00174)


                         Additional Contributions by
    P. Kraus, H. Kruse, M. H. Lechner, M. C. Schieber, and R. A. Shaw

    -----------------------------------------------------------------------


    Psi4 started on: Saturday, 29 September 2018 04:37PM

    Process ID: 30412
    Host:       loro.prib.upf.edu
    PSIDATADIR: /shared/joao/test_parameterize/miniconda3/share/psi4
    Memory:     500.0 MiB
    Threads:    1
    
  ==> Input File <==

--------------------------------------------------------------------------
set_num_threads(1)
set_memory('5348 MB')

set { scf_mem_safety_factor 0.7 }

set { reference rks }
set { basis cc-pVDZ }

molecule MOL {
    0 1
    noreorient
    nocom
    symmetry c1
    O    1.014300  -0.002300   0.060500
    O    2.462400  -0.107500  -0.002400
    H    0.821200  -0.823600  -0.430600
    H    2.496860  -0.724675  -0.757876
}

set optking { frozen_dihedral = (" 3 1 2 4 ") }

set optking { dynamic_level = 1 
 geom_maxiter = 250
 print_trajectory_xyz_file = True }

energy, wfn = optimize('B3LYP-D3', return_wfn=True)

import os
os.chdir(os.environ['HTMD_PSI4_WORKDIR'])

oeprop(wfn, 'DIPOLE', 'QUADRUPOLE', 'MULLIKEN_CHARGES')

with open('psi4out.xyz', 'w') as f:
    f.write('4 ' )
    f.write('%.12f\n' % energy)
    f.write(MOL.save_string_xyz())
--------------------------------------------------------------------------
  Threads set to 1 by Python driver.

  Memory set to   4.981 GiB by Python driver.
gradient() will perform analytic gradient computation.

*** tstart() called on loro.prib.upf.edu
*** at Sat Sep 29 16:37:43 2018

   => Loading Basis Set <=

    Name: CC-PVDZ
    Role: ORBITAL
    Keyword: BASIS
    atoms 1-2 entry O          line   198 file /shared/joao/test_parameterize/miniconda3/share/psi4/basis/cc-pvdz.gbs 
    atoms 3-4 entry H          line    22 file /shared/joao/test_parameterize/miniconda3/share/psi4/basis/cc-pvdz.gbs 


         ---------------------------------------------------------
                                   SCF
            by Justin Turney, Rob Parrish, Andy Simmonett
                             and Daniel Smith
                              RKS Reference
                        1 Threads,   5100 MiB Core
         ---------------------------------------------------------

  ==> Geometry <==

    Molecular point group: c1
    Full point group: C1

    Geometry (in Angstrom), charge = 0, multiplicity = 1:

       Center              X                  Y                   Z               Mass       
    ------------   -----------------  -----------------  -----------------  -----------------
         O            1.014300000000    -0.002300000000     0.060500000000    15.994914619560
         O            2.462400000000    -0.107500000000    -0.002400000000    15.994914619560
         H            0.821200000000    -0.823600000000    -0.430600000000     1.007825032070
         H            2.496860000000    -0.724675000000    -0.757876000000     1.007825032070

  Running in c1 symmetry.

  Rotational constants: A =      9.25935  B =      0.13946  C =      0.13755 [cm^-1]
  Rotational constants: A = 277588.24953  B =   4181.02511  C =   4123.73594 [MHz]
  Nuclear repulsion =   36.885818385750170

  Charge       = 0
  Multiplicity = 1
  Electrons    = 18
  Nalpha       = 9
  Nbeta        = 9

  ==> Algorithm <==

  SCF Algorithm Type is DF.
  DIIS enabled.
  MOM disabled.
  Fractional occupation disabled.
  Guess Type is SAD.
  Energy threshold   = 1.00e-08
  Density threshold  = 1.00e-08
  Integral threshold = 0.00e+00

  ==> Primary Basis <==

  Basis Set: CC-PVDZ
    Blend: CC-PVDZ
    Number of shells: 18
    Number of basis function: 38
    Number of Cartesian functions: 40
    Spherical Harmonics?: true
    Max angular momentum: 2

  ==> DFT Potential <==

   => Composite Functional: B3LYP-D3ZERO <= 

    B3LYP-d3zero Hyb-GGA Exchange-Correlation Functional

    P. J. Stephens, F. J. Devlin, C. F. Chabalowski, and M. J. Frisch, J. Phys. Chem. 98, 11623 (1994)

    Deriv               =              1
    GGA                 =           TRUE
    Meta                =          FALSE

    Exchange Hybrid     =           TRUE
    MP2 Hybrid          =          FALSE

   => Exchange Functionals <=

    0.0800   Slater exchange
    0.7200         Becke 88

   => Exact (HF) Exchange <=

    0.2000               HF 

   => Correlation Functionals <=

    0.1900   Vosko, Wilk & Nusair (VWN5_RPA)
    0.8100   Lee, Yang & Parr

   => Molecular Quadrature <=

    Radial Scheme       =       TREUTLER
    Pruning Scheme      =           FLAT
    Nuclear Scheme      =       TREUTLER

    BS radius alpha     =              1
    Pruning alpha       =              1
    Radial Points       =             75
    Spherical Points    =            302
    Total Points        =          88272
    Total Blocks        =            717
    Max Points          =            256
    Max Functions       =             38

   => -D3ZERO: Empirical Dispersion <=

    Grimme's -D3 (zero-damping) Dispersion Correction
    Grimme S.; Antony J.; Ehrlich S.; Krieg H. (2010), J. Chem. Phys., 132: 154104

        S6 =   1.000000E+00
        S8 =   1.703000E+00
       SR6 =   1.261000E+00
       SR8 =   1.000000E+00
    ALPHA6 =   1.400000E+01

   => Loading Basis Set <=

    Name: (CC-PVDZ AUX)
    Role: JKFIT
    Keyword: DF_BASIS_SCF
    atoms 1-2 entry O          line   221 file /shared/joao/test_parameterize/miniconda3/share/psi4/basis/cc-pvdz-jkfit.gbs 
    atoms 3-4 entry H          line    51 file /shared/joao/test_parameterize/miniconda3/share/psi4/basis/cc-pvdz-jkfit.gbs 

  ==> Pre-Iterations <==

   -------------------------------------------------------
    Irrep   Nso     Nmo     Nalpha   Nbeta   Ndocc  Nsocc
   -------------------------------------------------------
     A         38      38       0       0       0       0
   -------------------------------------------------------
    Total      38      38       9       9       9       0
   -------------------------------------------------------

  ==> Integral Setup <==

  DFHelper Memory: AOs need 0.003 [GiB]; user supplied 3.486 [GiB]. Using in-core AOs.

  ==> MemDFJK: Density-Fitted J/K Matrices <==

    J tasked:                   Yes
    K tasked:                   Yes
    wK tasked:                   No
    OpenMP threads:               1
    Memory (MB):               3570
    Algorithm:                 Core
    Schwarz Cutoff:           1E-12
    Mask sparsity (%):       0.0000
    Fitting Condition:        1E-12

   => Auxiliary Basis Set <=

  Basis Set: (CC-PVDZ AUX)
    Blend: CC-PVDZ-JKFIT
    Number of shells: 66
    Number of basis function: 186
    Number of Cartesian functions: 212
    Spherical Harmonics?: true
    Max angular momentum: 3

  Minimum eigenvalue in the overlap matrix is 2.3912945884E-02.
  Using Symmetric Orthogonalization.

  SCF Guess: Superposition of Atomic Densities via on-the-fly atomic UHF.

  ==> Iterations <==

                           Total Energy        Delta E     RMS |[F,P]|

   @DF-RKS iter   0:  -151.63026571384617   -1.51630e+02   4.94191e-02 
   @DF-RKS iter   1:  -151.49471888876045    1.35547e-01   8.21947e-03 
   @DF-RKS iter   2:  -151.49257941925083    2.13947e-03   8.82119e-03 DIIS
   @DF-RKS iter   3:  -151.53463411047136   -4.20547e-02   9.73383e-04 DIIS
   @DF-RKS iter   4:  -151.53506576063731   -4.31650e-04   3.07938e-04 DIIS
   @DF-RKS iter   5:  -151.53509475599765   -2.89954e-05   2.04057e-04 DIIS
   @DF-RKS iter   6:  -151.53511673545344   -2.19795e-05   5.40032e-06 DIIS
   @DF-RKS iter   7:  -151.53511676856107   -3.31076e-08   1.30952e-06 DIIS
   @DF-RKS iter   8:  -151.53511677006148   -1.50041e-09   1.97952e-07 DIIS
   @DF-RKS iter   9:  -151.53511677010113   -3.96483e-11   3.67147e-08 DIIS
   @DF-RKS iter  10:  -151.53511677010249   -1.36424e-12   4.88200e-09 DIIS

  ==> Post-Iterations <==

    Orbital Energies [Eh]
    ---------------------

    Doubly Occupied:                                                      

       1A    -19.191996     2A    -19.191966     3A     -1.121862  
       4A     -0.887495     5A     -0.560440     6A     -0.428222  
       7A     -0.411079     8A     -0.365357     9A     -0.249276  

    Virtual:                                                              

      10A      0.010407    11A      0.020501    12A      0.132467  
      13A      0.547858    14A      0.573190    15A      0.862634  
      16A      0.864187    17A      0.919220    18A      0.929578  
      19A      0.993600    20A      1.057029    21A      1.157024  
      22A      1.250549    23A      1.322597    24A      1.537930  
      25A      1.627851    26A      1.796844    27A      2.014239  
      28A      2.102468    29A      2.312846    30A      2.375247  
      31A      2.628372    32A      2.862377    33A      2.916253  
      34A      2.995921    35A      3.185773    36A      3.483051  
      37A      3.550904    38A      3.822937  

    Final Occupation by Irrep:
              A 
    DOCC [     9 ]

  Energy converged.

  @DF-RKS Final Energy:  -151.53511677010249

   => Energetics <=

    Nuclear Repulsion Energy =             36.8858183857501700
    One-Electron Energy =                -281.6417995465412218
    Two-Electron Energy =                 107.6840610063508450
    DFT Exchange-Correlation Energy =     -14.4630172156622478
    Empirical Dispersion Energy =          -0.0001794000000000
    VV10 Nonlocal Energy =                  0.0000000000000000
    Total Energy =                       -151.5351167701024622



Properties will be evaluated at   0.000000,   0.000000,   0.000000 [a0]

Properties computed using the SCF density matrix

  Nuclear Dipole Moment: [e a0]
     X:    58.8303      Y:    -4.5858      Z:    -1.3675

  Electronic Dipole Moment: [e a0]
     X:   -58.9314      Y:     3.6690      Z:     0.5731

  Dipole Moment: [e a0]
     X:    -0.1011      Y:    -0.9167      Z:    -0.7945     Total:     1.2173

  Dipole Moment: [D]
     X:    -0.2570      Y:    -2.3301      Z:    -2.0193     Total:     3.0940


*** tstop() called on loro.prib.upf.edu at Sat Sep 29 16:37:47 2018
Module time:
	user time   =       3.17 seconds =       0.05 minutes
	system time =       0.09 seconds =       0.00 minutes
	total time  =          4 seconds =       0.07 minutes
Total time:
	user time   =       3.17 seconds =       0.05 minutes
	system time =       0.09 seconds =       0.00 minutes
	total time  =          4 seconds =       0.07 minutes

*** tstart() called on loro.prib.upf.edu
*** at Sat Sep 29 16:37:47 2018


         ------------------------------------------------------------
                                   SCF GRAD                          
                          Rob Parrish, Justin Turney,                
                       Andy Simmonett, and Alex Sokolov              
         ------------------------------------------------------------

  ==> Geometry <==

    Molecular point group: c1
    Full point group: C1

    Geometry (in Angstrom), charge = 0, multiplicity = 1:

       Center              X                  Y                   Z               Mass       
    ------------   -----------------  -----------------  -----------------  -----------------
         O            1.014300000000    -0.002300000000     0.060500000000    15.994914619560
         O            2.462400000000    -0.107500000000    -0.002400000000    15.994914619560
         H            0.821200000000    -0.823600000000    -0.430600000000     1.007825032070
         H            2.496860000000    -0.724675000000    -0.757876000000     1.007825032070

  Nuclear repulsion =   36.885818385750170

  ==> Basis Set <==

  Basis Set: CC-PVDZ
    Blend: CC-PVDZ
    Number of shells: 18
    Number of basis function: 38
    Number of Cartesian functions: 40
    Spherical Harmonics?: true
    Max angular momentum: 2

  ==> DFJKGrad: Density-Fitted SCF Gradients <==

    Gradient:                    1
    J tasked:                  Yes
    K tasked:                  Yes
    wK tasked:                  No
    OpenMP threads:              1
    Integrals threads:           1
    Memory (MB):              3570
    Schwarz Cutoff:          0E+00
    Fitting Condition:       1E-12

   => Auxiliary Basis Set <=

  Basis Set: (CC-PVDZ AUX)
    Blend: CC-PVDZ-JKFIT
    Number of shells: 66
    Number of basis function: 186
    Number of Cartesian functions: 212
    Spherical Harmonics?: true
    Max angular momentum: 3

  ==> DFT Potential <==

   => Composite Functional: B3LYP-D3ZERO <= 

    B3LYP-d3zero Hyb-GGA Exchange-Correlation Functional

    P. J. Stephens, F. J. Devlin, C. F. Chabalowski, and M. J. Frisch, J. Phys. Chem. 98, 11623 (1994)

    Deriv               =              1
    GGA                 =           TRUE
    Meta                =          FALSE

    Exchange Hybrid     =           TRUE
    MP2 Hybrid          =          FALSE

   => Exchange Functionals <=

    0.0800   Slater exchange
    0.7200         Becke 88

   => Exact (HF) Exchange <=

    0.2000               HF 

   => Correlation Functionals <=

    0.1900   Vosko, Wilk & Nusair (VWN5_RPA)
    0.8100   Lee, Yang & Parr

   => Molecular Quadrature <=

    Radial Scheme       =       TREUTLER
    Pruning Scheme      =           FLAT
    Nuclear Scheme      =       TREUTLER

    BS radius alpha     =              1
    Pruning alpha       =              1
    Radial Points       =             75
    Spherical Points    =            302
    Total Points        =          88272
    Total Blocks        =            717
    Max Points          =            256
    Max Functions       =             38


  -Total Gradient:
     Atom            X                  Y                   Z
    ------   -----------------  -----------------  -----------------
       1        0.007020708901     0.005608521902     0.005011970964
       2       -0.005678239640     0.006508421010     0.005471170702
       3        0.017292888455    -0.005010416577    -0.008797757853
       4       -0.018635857080    -0.007111053635    -0.001689309972


*** tstop() called on loro.prib.upf.edu at Sat Sep 29 16:37:48 2018
Module time:
	user time   =       0.66 seconds =       0.01 minutes
	system time =       0.02 seconds =       0.00 minutes
	total time  =          1 seconds =       0.02 minutes
Total time:
	user time   =       3.84 seconds =       0.06 minutes
	system time =       0.11 seconds =       0.00 minutes
	total time  =          5 seconds =       0.08 minutes

			-----------------------------------------
			 OPTKING 2.0: for geometry optimizations 
			  - R.A. King,  Bethel University        
			-----------------------------------------
	At level 1: Red. Int., RFO, no backsteps, dynamic trust

	Internal coordinates to be generated automatically.
	Detected frag 1 with atoms:  1 2 3 4
	---Fragment 1 Bond Connectivity---
	 1 : 2 3
	 2 : 1 4
	 3 : 1
	 4 : 2

	Assuming in current code that numbering for constraints corresponds to unified fragment.
	Frozen dihedral atom list: 
	     3     1     2     4
	---Fragment 1 Geometry and Gradient---
	 O           1.9167492166       -0.0043463701        0.1143284310
	 O           4.6532616296       -0.2031455593       -0.0045353427
	 H           1.5518431003       -1.5563784430       -0.8137160728
	 H           4.7183815922       -1.3694372853       -1.4321780827
	             0.0070207089        0.0056085219        0.0050119710
	            -0.0056782396        0.0065084210        0.0054711707
	             0.0172928885       -0.0050104166       -0.0087977579
	            -0.0186358571       -0.0071110536       -0.0016893100

	Previous optimization step data not found.  Starting new optimization.

	---Fragment 1 Intrafragment Coordinates---
	 - Coordinate -           - BOHR/RAD -       - ANG/DEG -
	 R(1,2)           =         2.746297	       1.453278
	 R(1,3)           =         1.844784	       0.976217
	 R(2,4)           =         1.844625	       0.976133
	 B(1,2,4)         =         1.685490	      96.571487
	 B(2,1,3)         =         1.685473	      96.570488
	*D(3,1,2,4)       =         0.349066	      19.999981

	Current energy   :      -151.5351167701

	Generating empirical Hessian (Schlegel '84) for each fragment.
	Taking RFO optimization step.
	Going to follow RFO solution 1.
	Using RFO vector 1.
	Norm of target step-size    0.28552
	Projected energy change by RFO approximation:        -0.0194823672

	Back-transformation to cartesian coordinates...
	Successfully converged to displaced geometry.

	Back-transformation to cartesian coordinates to adjust frozen coordinates...
	Successfully converged to displaced geometry.

	--- Internal Coordinate Step in ANG or DEG, aJ/ANG or AJ/DEG ---
	 ---------------------------------------------------------------------------
	   Coordinate                Previous        Force       Change         New 
	   ----------                --------       ------       ------       ------
	    1 R(1,2)          =      1.453278     0.200596     0.032754     1.486032
	    2 R(1,3)          =      0.976217    -0.043001    -0.005149     0.971069
	    3 R(2,4)          =      0.976133    -0.042383    -0.005073     0.971060
	    4 B(1,2,4)        =     96.571487     0.002624    11.263543   107.835030
	    5 B(2,1,3)        =     96.570488     0.002624    11.265503   107.835991
	    6 *D(3,1,2,4)     =     19.999981     0.000000     0.000000    19.999981
	 ---------------------------------------------------------------------------
	Successfully symmetrized geometry.

  ==> Convergence Check <==

  Measures of convergence in internal coordinates in au.
  Criteria marked as inactive (o), active & met (*), and active & unmet ( ).
  --------------------------------------------------------------------------------------------- ~
   Step     Total Energy     Delta E     MAX Force     RMS Force      MAX Disp      RMS Disp    ~
  --------------------------------------------------------------------------------------------- ~
    Convergence Criteria    1.00e-06 *    3.00e-04 *             o    1.20e-03 *             o  ~
  --------------------------------------------------------------------------------------------- ~
      1    -151.53511677   -1.52e+02      3.45e-02      2.25e-02 o    1.97e-01      1.16e-01 o  ~
  ---------------------------------------------------------------------------------------------

	Writing optimization data to binary file.
	Structure for next step:
	Cartesian Geometry (in Angstrom)
	    O     0.9961057434  -0.0316492482   0.0624234370
	    O     2.4768720613  -0.1118017658  -0.0334769848
	    H     0.6262896308  -0.8064456351  -0.3913400763
	    H     2.6954925645  -0.7081783508  -0.7679823759
			--------------------------
			 OPTKING Finished Execution 
			--------------------------

    Structure for next step:
    Molecular point group: c1
    Full point group: C1

    Geometry (in Angstrom), charge = 0, multiplicity = 1:

    O            0.996105743411    -0.031649248242     0.062423437014
    O            2.476872061329    -0.111801765825    -0.033476984760
    H            0.626289630775    -0.806445635141    -0.391340076310
    H            2.695492564485    -0.708178350792    -0.767982375943

gradient() will perform analytic gradient computation.

*** tstart() called on loro.prib.upf.edu
*** at Sat Sep 29 16:37:48 2018

   => Loading Basis Set <=

    Name: CC-PVDZ
    Role: ORBITAL
    Keyword: BASIS
    atoms 1-2 entry O          line   198 file /shared/joao/test_parameterize/miniconda3/share/psi4/basis/cc-pvdz.gbs 
    atoms 3-4 entry H          line    22 file /shared/joao/test_parameterize/miniconda3/share/psi4/basis/cc-pvdz.gbs 


         ---------------------------------------------------------
                                   SCF
            by Justin Turney, Rob Parrish, Andy Simmonett
                             and Daniel Smith
                              RKS Reference
                        1 Threads,   5100 MiB Core
         ---------------------------------------------------------

  ==> Geometry <==

    Molecular point group: c1
    Full point group: C1

    Geometry (in Angstrom), charge = 0, multiplicity = 1:

       Center              X                  Y                   Z               Mass       
    ------------   -----------------  -----------------  -----------------  -----------------
         O            0.996105743411    -0.031649248242     0.062423437014    15.994914619560
         O            2.476872061329    -0.111801765825    -0.033476984760    15.994914619560
         H            0.626289630775    -0.806445635141    -0.391340076310     1.007825032070
         H            2.695492564485    -0.708178350792    -0.767982375943     1.007825032070

  Running in c1 symmetry.

  Rotational constants: A =      9.94023  B =      0.13779  C =      0.13616 [cm^-1]
  Rotational constants: A = 298000.68044  B =   4130.98124  C =   4081.95231 [MHz]
  Nuclear repulsion =   35.975819298553382

  Charge       = 0
  Multiplicity = 1
  Electrons    = 18
  Nalpha       = 9
  Nbeta        = 9

  ==> Algorithm <==

  SCF Algorithm Type is DF.
  DIIS enabled.
  MOM disabled.
  Fractional occupation disabled.
  Guess Type is READ.
  Energy threshold   = 1.00e-08
  Density threshold  = 1.00e-08
  Integral threshold = 0.00e+00

  ==> Primary Basis <==

  Basis Set: CC-PVDZ
    Blend: CC-PVDZ
    Number of shells: 18
    Number of basis function: 38
    Number of Cartesian functions: 40
    Spherical Harmonics?: true
    Max angular momentum: 2

  ==> DFT Potential <==

   => Composite Functional: B3LYP-D3ZERO <= 

    B3LYP-d3zero Hyb-GGA Exchange-Correlation Functional

    P. J. Stephens, F. J. Devlin, C. F. Chabalowski, and M. J. Frisch, J. Phys. Chem. 98, 11623 (1994)

    Deriv               =              1
    GGA                 =           TRUE
    Meta                =          FALSE

    Exchange Hybrid     =           TRUE
    MP2 Hybrid          =          FALSE

   => Exchange Functionals <=

    0.0800   Slater exchange
    0.7200         Becke 88

   => Exact (HF) Exchange <=

    0.2000               HF 

   => Correlation Functionals <=

    0.1900   Vosko, Wilk & Nusair (VWN5_RPA)
    0.8100   Lee, Yang & Parr

   => Molecular Quadrature <=

    Radial Scheme       =       TREUTLER
    Pruning Scheme      =           FLAT
    Nuclear Scheme      =       TREUTLER

    BS radius alpha     =              1
    Pruning alpha       =              1
    Radial Points       =             75
    Spherical Points    =            302
    Total Points        =          88310
    Total Blocks        =            727
    Max Points          =            256
    Max Functions       =             38

   => -D3ZERO: Empirical Dispersion <=

    Grimme's -D3 (zero-damping) Dispersion Correction
    Grimme S.; Antony J.; Ehrlich S.; Krieg H. (2010), J. Chem. Phys., 132: 154104

        S6 =   1.000000E+00
        S8 =   1.703000E+00
       SR6 =   1.261000E+00
       SR8 =   1.000000E+00
    ALPHA6 =   1.400000E+01

   => Loading Basis Set <=

    Name: (CC-PVDZ AUX)
    Role: JKFIT
    Keyword: DF_BASIS_SCF
    atoms 1-2 entry O          line   221 file /shared/joao/test_parameterize/miniconda3/share/psi4/basis/cc-pvdz-jkfit.gbs 
    atoms 3-4 entry H          line    51 file /shared/joao/test_parameterize/miniconda3/share/psi4/basis/cc-pvdz-jkfit.gbs 

  Reading orbitals from file 180, no projection.

  ==> Pre-Iterations <==

   -------------------------------------------------------
    Irrep   Nso     Nmo     Nalpha   Nbeta   Ndocc  Nsocc
   -------------------------------------------------------
     A         38      38       0       0       0       0
   -------------------------------------------------------
    Total      38      38       9       9       9       0
   -------------------------------------------------------

  ==> Integral Setup <==

  DFHelper Memory: AOs need 0.003 [GiB]; user supplied 3.486 [GiB]. Using in-core AOs.

  ==> MemDFJK: Density-Fitted J/K Matrices <==

    J tasked:                   Yes
    K tasked:                   Yes
    wK tasked:                   No
    OpenMP threads:               1
    Memory (MB):               3570
    Algorithm:                 Core
    Schwarz Cutoff:           1E-12
    Mask sparsity (%):       0.0000
    Fitting Condition:        1E-12

   => Auxiliary Basis Set <=

  Basis Set: (CC-PVDZ AUX)
    Blend: CC-PVDZ-JKFIT
    Number of shells: 66
    Number of basis function: 186
    Number of Cartesian functions: 212
    Spherical Harmonics?: true
    Max angular momentum: 3

  Minimum eigenvalue in the overlap matrix is 2.6820277591E-02.
  Using Symmetric Orthogonalization.

  SCF Guess: Orbitals guess was supplied from a previous computation.

  ==> Iterations <==

                           Total Energy        Delta E     RMS |[F,P]|

   @DF-RKS iter   0:  -151.52868101927990   -1.51529e+02   3.52492e-03 
   @DF-RKS iter   1:  -151.53752277191063   -8.84175e-03   1.16352e-03 
   @DF-RKS iter   2:  -151.53793527905370   -4.12507e-04   7.23694e-04 DIIS
   @DF-RKS iter   3:  -151.53819290583215   -2.57627e-04   2.07821e-04 DIIS
   @DF-RKS iter   4:  -151.53821614720547   -2.32414e-05   2.24236e-05 DIIS
   @DF-RKS iter   5:  -151.53821649611024   -3.48905e-07   2.33158e-06 DIIS
   @DF-RKS iter   6:  -151.53821649496942    1.14082e-09   3.34334e-06 DIIS
   @DF-RKS iter   7:  -151.53821650094685   -5.97743e-09   1.01495e-07 DIIS
   @DF-RKS iter   8:  -151.53821650095784   -1.09992e-11   1.43064e-08 DIIS
   @DF-RKS iter   9:  -151.53821650095807   -2.27374e-13   1.79699e-09 DIIS

  ==> Post-Iterations <==

    Orbital Energies [Eh]
    ---------------------

    Doubly Occupied:                                                      

       1A    -19.190796     2A    -19.190769     3A     -1.094225  
       4A     -0.901286     5A     -0.559512     6A     -0.411036  
       7A     -0.399516     8A     -0.361059     9A     -0.252119  

    Virtual:                                                              

      10A     -0.006524    11A      0.028104    12A      0.122700  
      13A      0.548827    14A      0.582497    15A      0.856072  
      16A      0.868900    17A      0.953153    18A      0.955673  
      19A      0.983423    20A      1.067149    21A      1.265437  
      22A      1.285683    23A      1.346402    24A      1.456463  
      25A      1.539644    26A      1.814852    27A      2.033843  
      28A      2.098483    29A      2.346408    30A      2.366139  
      31A      2.642938    32A      2.865659    33A      2.911941  
      34A      2.961097    35A      3.140975    36A      3.546175  
      37A      3.549097    38A      3.748412  

    Final Occupation by Irrep:
              A 
    DOCC [     9 ]

  Energy converged.

  @DF-RKS Final Energy:  -151.53821650095807

   => Energetics <=

    Nuclear Repulsion Energy =             35.9758192985533825
    One-Electron Energy =                -279.9322055455814962
    Two-Electron Energy =                 106.8663128767465906
    DFT Exchange-Correlation Energy =     -14.4477436306765359
    Empirical Dispersion Energy =          -0.0003995000000000
    VV10 Nonlocal Energy =                  0.0000000000000000
    Total Energy =                       -151.5382165009580433



Properties will be evaluated at   0.000000,   0.000000,   0.000000 [a0]

Properties computed using the SCF density matrix

  Nuclear Dipole Moment: [e a0]
     X:    58.7811      Y:    -5.0309      Z:    -1.7532

  Electronic Dipole Moment: [e a0]
     X:   -58.8826      Y:     4.1097      Z:     0.9549

  Dipole Moment: [e a0]
     X:    -0.1016      Y:    -0.9212      Z:    -0.7983     Total:     1.2232

  Dipole Moment: [D]
     X:    -0.2582      Y:    -2.3414      Z:    -2.0291     Total:     3.1090


*** tstop() called on loro.prib.upf.edu at Sat Sep 29 16:37:51 2018
Module time:
	user time   =       2.33 seconds =       0.04 minutes
	system time =       0.07 seconds =       0.00 minutes
	total time  =          3 seconds =       0.05 minutes
Total time:
	user time   =       6.19 seconds =       0.10 minutes
	system time =       0.18 seconds =       0.00 minutes
	total time  =          8 seconds =       0.13 minutes

*** tstart() called on loro.prib.upf.edu
*** at Sat Sep 29 16:37:51 2018


         ------------------------------------------------------------
                                   SCF GRAD                          
                          Rob Parrish, Justin Turney,                
                       Andy Simmonett, and Alex Sokolov              
         ------------------------------------------------------------

  ==> Geometry <==

    Molecular point group: c1
    Full point group: C1

    Geometry (in Angstrom), charge = 0, multiplicity = 1:

       Center              X                  Y                   Z               Mass       
    ------------   -----------------  -----------------  -----------------  -----------------
         O            0.996105743411    -0.031649248242     0.062423437014    15.994914619560
         O            2.476872061329    -0.111801765825    -0.033476984760    15.994914619560
         H            0.626289630775    -0.806445635141    -0.391340076310     1.007825032070
         H            2.695492564485    -0.708178350792    -0.767982375943     1.007825032070

  Nuclear repulsion =   35.975819298553382

  ==> Basis Set <==

  Basis Set: CC-PVDZ
    Blend: CC-PVDZ
    Number of shells: 18
    Number of basis function: 38
    Number of Cartesian functions: 40
    Spherical Harmonics?: true
    Max angular momentum: 2

  ==> DFJKGrad: Density-Fitted SCF Gradients <==

    Gradient:                    1
    J tasked:                  Yes
    K tasked:                  Yes
    wK tasked:                  No
    OpenMP threads:              1
    Integrals threads:           1
    Memory (MB):              3570
    Schwarz Cutoff:          0E+00
    Fitting Condition:       1E-12

   => Auxiliary Basis Set <=

  Basis Set: (CC-PVDZ AUX)
    Blend: CC-PVDZ-JKFIT
    Number of shells: 66
    Number of basis function: 186
    Number of Cartesian functions: 212
    Spherical Harmonics?: true
    Max angular momentum: 3

  ==> DFT Potential <==

   => Composite Functional: B3LYP-D3ZERO <= 

    B3LYP-d3zero Hyb-GGA Exchange-Correlation Functional

    P. J. Stephens, F. J. Devlin, C. F. Chabalowski, and M. J. Frisch, J. Phys. Chem. 98, 11623 (1994)

    Deriv               =              1
    GGA                 =           TRUE
    Meta                =          FALSE

    Exchange Hybrid     =           TRUE
    MP2 Hybrid          =          FALSE

   => Exchange Functionals <=

    0.0800   Slater exchange
    0.7200         Becke 88

   => Exact (HF) Exchange <=

    0.2000               HF 

   => Correlation Functionals <=

    0.1900   Vosko, Wilk & Nusair (VWN5_RPA)
    0.8100   Lee, Yang & Parr

   => Molecular Quadrature <=

    Radial Scheme       =       TREUTLER
    Pruning Scheme      =           FLAT
    Nuclear Scheme      =       TREUTLER

    BS radius alpha     =              1
    Pruning alpha       =              1
    Radial Points       =             75
    Spherical Points    =            302
    Total Points        =          88310
    Total Blocks        =            727
    Max Points          =            256
    Max Functions       =             38


  -Total Gradient:
     Atom            X                  Y                   Z
    ------   -----------------  -----------------  -----------------
       1       -0.014025649073    -0.008413033814     0.002155710972
       2        0.013017361981    -0.000767802553    -0.010113572579
       3       -0.005925711660     0.007538468195     0.001382866792
       4        0.006933228611     0.001635415329     0.006568966285


*** tstop() called on loro.prib.upf.edu at Sat Sep 29 16:37:52 2018
Module time:
	user time   =       0.67 seconds =       0.01 minutes
	system time =       0.01 seconds =       0.00 minutes
	total time  =          1 seconds =       0.02 minutes
Total time:
	user time   =       6.86 seconds =       0.11 minutes
	system time =       0.19 seconds =       0.00 minutes
	total time  =          9 seconds =       0.15 minutes

			-----------------------------------------
			 OPTKING 2.0: for geometry optimizations 
			  - R.A. King,  Bethel University        
			-----------------------------------------
	At level 1: Red. Int., RFO, no backsteps, dynamic trust

	Previous internal coordinate definitions found.
	---Fragment 1 Geometry and Gradient---
	 O           1.8823670544       -0.0598084115        0.1179632002
	 O           4.6806098621       -0.2112747186       -0.0632623330
	 H           1.1835158820       -1.5239613915       -0.7395255690
	 H           5.0937427401       -1.3382631362       -1.4512763654
	            -0.0140256491       -0.0084130338        0.0021557110
	             0.0130173620       -0.0007678026       -0.0101135726
	            -0.0059257117        0.0075384682        0.0013828668
	             0.0069332286        0.0016354153        0.0065689663

	---Fragment 1 Intrafragment Coordinates---
	 - Coordinate -           - BOHR/RAD -       - ANG/DEG -
	 R(1,2)           =         2.808193	       1.486032
	 R(1,3)           =         1.835054	       0.971069
	 R(2,4)           =         1.835038	       0.971060
	 B(1,2,4)         =         1.882076	     107.835030
	 B(2,1,3)         =         1.882093	     107.835991
	*D(3,1,2,4)       =         0.349066	      19.999981

	Current energy   :      -151.5382165010

	Energy change for the previous step:
		Projected    :        -0.0194823672
		Actual       :        -0.0030997309
	Energy ratio indicates iffy step: Trust radius decreased to 1.250e-01.


	Performing BFGS update.
	Previous computed or guess Hessian on step 1.
	Steps to be used in Hessian update: 1
	Taking RFO optimization step.
	Going to follow RFO solution 1.
	Using RFO vector 1.
	Norm of target step-size    0.08628
	Projected energy change by RFO approximation:        -0.0011443371

	Back-transformation to cartesian coordinates...
	Successfully converged to displaced geometry.

	Back-transformation to cartesian coordinates to adjust frozen coordinates...
	Successfully converged to displaced geometry.

	--- Internal Coordinate Step in ANG or DEG, aJ/ANG or AJ/DEG ---
	 ---------------------------------------------------------------------------
	   Coordinate                Previous        Force       Change         New 
	   ----------                --------       ------       ------       ------
	    1 R(1,2)          =      1.486032    -0.165285    -0.018387     1.467645
	    2 R(1,3)          =      0.971069     0.036304     0.002954     0.974023
	    3 R(2,4)          =      0.971060     0.036370     0.002960     0.974020
	    4 B(1,2,4)        =    107.835030    -0.001137    -3.184346   104.650684
	    5 B(2,1,3)        =    107.835991    -0.001137    -3.185106   104.650884
	    6 *D(3,1,2,4)     =     19.999981     0.000000    -0.000000    19.999981
	 ---------------------------------------------------------------------------
	Successfully symmetrized geometry.

  ==> Convergence Check <==

  Measures of convergence in internal coordinates in au.
  Criteria marked as inactive (o), active & met (*), and active & unmet ( ).
  ---------------------------------------------------------------------------------------------
   Step     Total Energy     Delta E     MAX Force     RMS Force      MAX Disp      RMS Disp   
  ---------------------------------------------------------------------------------------------
    Convergence Criteria    1.00e-06 *    3.00e-04 *             o    1.20e-03 *             o
  ---------------------------------------------------------------------------------------------
      2    -151.53821650   -3.10e-03      2.01e-02      1.22e-02 o    5.56e-02      3.52e-02 o  ~
  ---------------------------------------------------------------------------------------------

	Writing optimization data to binary file.
	Structure for next step:
	Cartesian Geometry (in Angstrom)
	    O     1.0059421408  -0.0215812760   0.0631040211
	    O     2.4684983515  -0.1085519188  -0.0226152733
	    H     0.6842484217  -0.8131079361  -0.4045712279
	    H     2.6360710860  -0.7148338691  -0.7662935200
			--------------------------
			 OPTKING Finished Execution 
			--------------------------

    Structure for next step:
    Molecular point group: c1
    Full point group: C1

    Geometry (in Angstrom), charge = 0, multiplicity = 1:

    O            1.005942140757    -0.021581275984     0.063104021098
    O            2.468498351546    -0.108551918841    -0.022615273261
    H            0.684248421696    -0.813107936101    -0.404571227862
    H            2.636071086001    -0.714833869074    -0.766293519975

gradient() will perform analytic gradient computation.

*** tstart() called on loro.prib.upf.edu
*** at Sat Sep 29 16:37:52 2018

   => Loading Basis Set <=

    Name: CC-PVDZ
    Role: ORBITAL
    Keyword: BASIS
    atoms 1-2 entry O          line   198 file /shared/joao/test_parameterize/miniconda3/share/psi4/basis/cc-pvdz.gbs 
    atoms 3-4 entry H          line    22 file /shared/joao/test_parameterize/miniconda3/share/psi4/basis/cc-pvdz.gbs 


         ---------------------------------------------------------
                                   SCF
            by Justin Turney, Rob Parrish, Andy Simmonett
                             and Daniel Smith
                              RKS Reference
                        1 Threads,   5100 MiB Core
         ---------------------------------------------------------

  ==> Geometry <==

    Molecular point group: c1
    Full point group: C1

    Geometry (in Angstrom), charge = 0, multiplicity = 1:

       Center              X                  Y                   Z               Mass       
    ------------   -----------------  -----------------  -----------------  -----------------
         O            1.005942140757    -0.021581275984     0.063104021098    15.994914619560
         O            2.468498351546    -0.108551918841    -0.022615273261    15.994914619560
         H            0.684248421696    -0.813107936101    -0.404571227862     1.007825032070
         H            2.636071086001    -0.714833869074    -0.766293519975     1.007825032070

  Running in c1 symmetry.

  Rotational constants: A =      9.65739  B =      0.13854  C =      0.13679 [cm^-1]
  Rotational constants: A = 289521.25361  B =   4153.22347  C =   4100.98838 [MHz]
  Nuclear repulsion =   36.363590726586636

  Charge       = 0
  Multiplicity = 1
  Electrons    = 18
  Nalpha       = 9
  Nbeta        = 9

  ==> Algorithm <==

  SCF Algorithm Type is DF.
  DIIS enabled.
  MOM disabled.
  Fractional occupation disabled.
  Guess Type is READ.
  Energy threshold   = 1.00e-08
  Density threshold  = 1.00e-08
  Integral threshold = 0.00e+00

  ==> Primary Basis <==

  Basis Set: CC-PVDZ
    Blend: CC-PVDZ
    Number of shells: 18
    Number of basis function: 38
    Number of Cartesian functions: 40
    Spherical Harmonics?: true
    Max angular momentum: 2

  ==> DFT Potential <==

   => Composite Functional: B3LYP-D3ZERO <= 

    B3LYP-d3zero Hyb-GGA Exchange-Correlation Functional

    P. J. Stephens, F. J. Devlin, C. F. Chabalowski, and M. J. Frisch, J. Phys. Chem. 98, 11623 (1994)

    Deriv               =              1
    GGA                 =           TRUE
    Meta                =          FALSE

    Exchange Hybrid     =           TRUE
    MP2 Hybrid          =          FALSE

   => Exchange Functionals <=

    0.0800   Slater exchange
    0.7200         Becke 88

   => Exact (HF) Exchange <=

    0.2000               HF 

   => Correlation Functionals <=

    0.1900   Vosko, Wilk & Nusair (VWN5_RPA)
    0.8100   Lee, Yang & Parr

   => Molecular Quadrature <=

    Radial Scheme       =       TREUTLER
    Pruning Scheme      =           FLAT
    Nuclear Scheme      =       TREUTLER

    BS radius alpha     =              1
    Pruning alpha       =              1
    Radial Points       =             75
    Spherical Points    =            302
    Total Points        =          88296
    Total Blocks        =            721
    Max Points          =            256
    Max Functions       =             38

   => -D3ZERO: Empirical Dispersion <=

    Grimme's -D3 (zero-damping) Dispersion Correction
    Grimme S.; Antony J.; Ehrlich S.; Krieg H. (2010), J. Chem. Phys., 132: 154104

        S6 =   1.000000E+00
        S8 =   1.703000E+00
       SR6 =   1.261000E+00
       SR8 =   1.000000E+00
    ALPHA6 =   1.400000E+01

   => Loading Basis Set <=

    Name: (CC-PVDZ AUX)
    Role: JKFIT
    Keyword: DF_BASIS_SCF
    atoms 1-2 entry O          line   221 file /shared/joao/test_parameterize/miniconda3/share/psi4/basis/cc-pvdz-jkfit.gbs 
    atoms 3-4 entry H          line    51 file /shared/joao/test_parameterize/miniconda3/share/psi4/basis/cc-pvdz-jkfit.gbs 

  Reading orbitals from file 180, no projection.

  ==> Pre-Iterations <==

   -------------------------------------------------------
    Irrep   Nso     Nmo     Nalpha   Nbeta   Ndocc  Nsocc
   -------------------------------------------------------
     A         38      38       0       0       0       0
   -------------------------------------------------------
    Total      38      38       9       9       9       0
   -------------------------------------------------------

  ==> Integral Setup <==

  DFHelper Memory: AOs need 0.003 [GiB]; user supplied 3.486 [GiB]. Using in-core AOs.

  ==> MemDFJK: Density-Fitted J/K Matrices <==

    J tasked:                   Yes
    K tasked:                   Yes
    wK tasked:                   No
    OpenMP threads:               1
    Memory (MB):               3570
    Algorithm:                 Core
    Schwarz Cutoff:           1E-12
    Mask sparsity (%):       0.0000
    Fitting Condition:        1E-12

   => Auxiliary Basis Set <=

  Basis Set: (CC-PVDZ AUX)
    Blend: CC-PVDZ-JKFIT
    Number of shells: 66
    Number of basis function: 186
    Number of Cartesian functions: 212
    Spherical Harmonics?: true
    Max angular momentum: 3

  Minimum eigenvalue in the overlap matrix is 2.5430320067E-02.
  Using Symmetric Orthogonalization.

  SCF Guess: Orbitals guess was supplied from a previous computation.

  ==> Iterations <==

                           Total Energy        Delta E     RMS |[F,P]|

   @DF-RKS iter   0:  -151.54214701163724   -1.51542e+02   1.28164e-03 
   @DF-RKS iter   1:  -151.53956581135679    2.58120e-03   4.38218e-04 
   @DF-RKS iter   2:  -151.53963433151253   -6.85202e-05   2.11527e-04 DIIS
   @DF-RKS iter   3:  -151.53965647517009   -2.21437e-05   3.64825e-05 DIIS
   @DF-RKS iter   4:  -151.53965716752106   -6.92351e-07   7.63167e-06 DIIS
   @DF-RKS iter   5:  -151.53965720600803   -3.84870e-08   4.63980e-07 DIIS
   @DF-RKS iter   6:  -151.53965720612783   -1.19798e-10   4.34041e-07 DIIS
   @DF-RKS iter   7:  -151.53965720622637   -9.85381e-11   5.42654e-08 DIIS
   @DF-RKS iter   8:  -151.53965720622813   -1.76215e-12   5.90774e-09 DIIS

  ==> Post-Iterations <==

    Orbital Energies [Eh]
    ---------------------

    Doubly Occupied:                                                      

       1A    -19.190594     2A    -19.190565     3A     -1.104439  
       4A     -0.895528     5A     -0.560743     6A     -0.416963  
       7A     -0.403344     8A     -0.362203     9A     -0.249801  

    Virtual:                                                              

      10A      0.006497    11A      0.022662    12A      0.126310  
      13A      0.552995    14A      0.577286    15A      0.858382  
      16A      0.868644    17A      0.943724    18A      0.944342  
      19A      0.985101    20A      1.061681    21A      1.256363  
      22A      1.265701    23A      1.335121    24A      1.492925  
      25A      1.545109    26A      1.808592    27A      2.028455  
      28A      2.095368    29A      2.327701    30A      2.371479  
      31A      2.632090    32A      2.862531    33A      2.925400  
      34A      2.970587    35A      3.168821    36A      3.525738  
      37A      3.545513    38A      3.781589  

    Final Occupation by Irrep:
              A 
    DOCC [     9 ]

  Energy converged.

  @DF-RKS Final Energy:  -151.53965720622813

   => Energetics <=

    Nuclear Repulsion Energy =             36.3635907265866365
    One-Electron Energy =                -280.6791015439640660
    Two-Electron Energy =                 107.2300679644622932
    DFT Exchange-Correlation Energy =     -14.4539004033129910
    Empirical Dispersion Energy =          -0.0003139500000000
    VV10 Nonlocal Energy =                  0.0000000000000000
    Total Energy =                       -151.5396572062281280



Properties will be evaluated at   0.000000,   0.000000,   0.000000 [a0]

Properties computed using the SCF density matrix

  Nuclear Dipole Moment: [e a0]
     X:    58.8004      Y:    -4.8547      Z:    -1.6005

  Electronic Dipole Moment: [e a0]
     X:   -58.9024      Y:     3.9297      Z:     0.7989

  Dipole Moment: [e a0]
     X:    -0.1020      Y:    -0.9250      Z:    -0.8016     Total:     1.2283

  Dipole Moment: [D]
     X:    -0.2592      Y:    -2.3512      Z:    -2.0376     Total:     3.1221


*** tstop() called on loro.prib.upf.edu at Sat Sep 29 16:37:55 2018
Module time:
	user time   =       2.35 seconds =       0.04 minutes
	system time =       0.08 seconds =       0.00 minutes
	total time  =          3 seconds =       0.05 minutes
Total time:
	user time   =       9.22 seconds =       0.15 minutes
	system time =       0.28 seconds =       0.00 minutes
	total time  =         12 seconds =       0.20 minutes

*** tstart() called on loro.prib.upf.edu
*** at Sat Sep 29 16:37:55 2018


         ------------------------------------------------------------
                                   SCF GRAD                          
                          Rob Parrish, Justin Turney,                
                       Andy Simmonett, and Alex Sokolov              
         ------------------------------------------------------------

  ==> Geometry <==

    Molecular point group: c1
    Full point group: C1

    Geometry (in Angstrom), charge = 0, multiplicity = 1:

       Center              X                  Y                   Z               Mass       
    ------------   -----------------  -----------------  -----------------  -----------------
         O            1.005942140757    -0.021581275984     0.063104021098    15.994914619560
         O            2.468498351546    -0.108551918841    -0.022615273261    15.994914619560
         H            0.684248421696    -0.813107936101    -0.404571227862     1.007825032070
         H            2.636071086001    -0.714833869074    -0.766293519975     1.007825032070

  Nuclear repulsion =   36.363590726586636

  ==> Basis Set <==

  Basis Set: CC-PVDZ
    Blend: CC-PVDZ
    Number of shells: 18
    Number of basis function: 38
    Number of Cartesian functions: 40
    Spherical Harmonics?: true
    Max angular momentum: 2

  ==> DFJKGrad: Density-Fitted SCF Gradients <==

    Gradient:                    1
    J tasked:                  Yes
    K tasked:                  Yes
    wK tasked:                  No
    OpenMP threads:              1
    Integrals threads:           1
    Memory (MB):              3570
    Schwarz Cutoff:          0E+00
    Fitting Condition:       1E-12

   => Auxiliary Basis Set <=

  Basis Set: (CC-PVDZ AUX)
    Blend: CC-PVDZ-JKFIT
    Number of shells: 66
    Number of basis function: 186
    Number of Cartesian functions: 212
    Spherical Harmonics?: true
    Max angular momentum: 3

  ==> DFT Potential <==

   => Composite Functional: B3LYP-D3ZERO <= 

    B3LYP-d3zero Hyb-GGA Exchange-Correlation Functional

    P. J. Stephens, F. J. Devlin, C. F. Chabalowski, and M. J. Frisch, J. Phys. Chem. 98, 11623 (1994)

    Deriv               =              1
    GGA                 =           TRUE
    Meta                =          FALSE

    Exchange Hybrid     =           TRUE
    MP2 Hybrid          =          FALSE

   => Exchange Functionals <=

    0.0800   Slater exchange
    0.7200         Becke 88

   => Exact (HF) Exchange <=

    0.2000               HF 

   => Correlation Functionals <=

    0.1900   Vosko, Wilk & Nusair (VWN5_RPA)
    0.8100   Lee, Yang & Parr

   => Molecular Quadrature <=

    Radial Scheme       =       TREUTLER
    Pruning Scheme      =           FLAT
    Nuclear Scheme      =       TREUTLER

    BS radius alpha     =              1
    Pruning alpha       =              1
    Radial Points       =             75
    Spherical Points    =            302
    Total Points        =          88296
    Total Blocks        =            721
    Max Points          =            256
    Max Functions       =             38


  -Total Gradient:
     Atom            X                  Y                   Z
    ------   -----------------  -----------------  -----------------
       1       -0.004476527778    -0.002783713515     0.003987483014
       2        0.004499716491     0.002984768861    -0.003813828251
       3       -0.001063260732     0.002203993059    -0.002614684770
       4        0.001040010565    -0.002405604758     0.002440547575


*** tstop() called on loro.prib.upf.edu at Sat Sep 29 16:37:56 2018
Module time:
	user time   =       0.67 seconds =       0.01 minutes
	system time =       0.03 seconds =       0.00 minutes
	total time  =          1 seconds =       0.02 minutes
Total time:
	user time   =       9.89 seconds =       0.16 minutes
	system time =       0.31 seconds =       0.01 minutes
	total time  =         13 seconds =       0.22 minutes

			-----------------------------------------
			 OPTKING 2.0: for geometry optimizations 
			  - R.A. King,  Bethel University        
			-----------------------------------------
	At level 1: Red. Int., RFO, no backsteps, dynamic trust

	Previous internal coordinate definitions found.
	---Fragment 1 Geometry and Gradient---
	 O           1.9009551516       -0.0407827012        0.1192493178
	 O           4.6647858439       -0.2051333978       -0.0427366729
	 H           1.2930421239       -1.5365513157       -0.7645288219
	 H           4.9814524194       -1.3508402431       -1.4480848902
	            -0.0044765278       -0.0027837135        0.0039874830
	             0.0044997165        0.0029847689       -0.0038138283
	            -0.0010632607        0.0022039931       -0.0026146848
	             0.0010400106       -0.0024056048        0.0024405476

	---Fragment 1 Intrafragment Coordinates---
	 - Coordinate -           - BOHR/RAD -       - ANG/DEG -
	 R(1,2)           =         2.773447	       1.467645
	 R(1,3)           =         1.840637	       0.974023
	 R(2,4)           =         1.840632	       0.974020
	 B(1,2,4)         =         1.826499	     104.650684
	 B(2,1,3)         =         1.826502	     104.650884
	*D(3,1,2,4)       =         0.349066	      19.999981

	Current energy   :      -151.5396572062

	Energy change for the previous step:
		Projected    :        -0.0011443371
		Actual       :        -0.0014407053
	Energy ratio indicates good step: Trust radius increased to 3.750e-01.


	Performing BFGS update.
	Previous computed or guess Hessian on step 1.
	Steps to be used in Hessian update: 2 1
	Taking RFO optimization step.
	Going to follow RFO solution 1.
	Using RFO vector 1.
	Norm of target step-size    0.01377
	Projected energy change by RFO approximation:        -0.0000513918

	Back-transformation to cartesian coordinates...
	Successfully converged to displaced geometry.

	Back-transformation to cartesian coordinates to adjust frozen coordinates...
	Successfully converged to displaced geometry.

	--- Internal Coordinate Step in ANG or DEG, aJ/ANG or AJ/DEG ---
	 ---------------------------------------------------------------------------
	   Coordinate                Previous        Force       Change         New 
	   ----------                --------       ------       ------       ------
	    1 R(1,2)          =      1.467645    -0.045864    -0.006081     1.461564
	    2 R(1,3)          =      0.974023     0.001524    -0.000056     0.973968
	    3 R(2,4)          =      0.974020     0.001546    -0.000052     0.973968
	    4 B(1,2,4)        =    104.650684    -0.000157    -0.307002   104.343682
	    5 B(2,1,3)        =    104.650884    -0.000157    -0.307178   104.343707
	    6 *D(3,1,2,4)     =     19.999981     0.000000    -0.000000    19.999981
	 ---------------------------------------------------------------------------
	Successfully symmetrized geometry.

  ==> Convergence Check <==

  Measures of convergence in internal coordinates in au.
  Criteria marked as inactive (o), active & met (*), and active & unmet ( ).
  ---------------------------------------------------------------------------------------------
   Step     Total Energy     Delta E     MAX Force     RMS Force      MAX Disp      RMS Disp   
  ---------------------------------------------------------------------------------------------
    Convergence Criteria    1.00e-06 *    3.00e-04 *             o    1.20e-03 *             o
  ---------------------------------------------------------------------------------------------
      3    -151.53965721   -1.44e-03      5.57e-03      2.57e-03 o    1.15e-02      5.62e-03 o  ~
  ---------------------------------------------------------------------------------------------

	Writing optimization data to binary file.
	Structure for next step:
	Cartesian Geometry (in Angstrom)
	    O     1.0090189259  -0.0208098022   0.0627687838
	    O     2.4655220878  -0.1083929406  -0.0214731667
	    H     0.6921088686  -0.8135384569  -0.4060194629
	    H     2.6281101176  -0.7153338004  -0.7656521542
			--------------------------
			 OPTKING Finished Execution 
			--------------------------

    Structure for next step:
    Molecular point group: c1
    Full point group: C1

    Geometry (in Angstrom), charge = 0, multiplicity = 1:

    O            1.009018925934    -0.020809802153     0.062768783795
    O            2.465522087796    -0.108392940564    -0.021473166664
    H            0.692108868646    -0.813538456918    -0.406019462942
    H            2.628110117624    -0.715333800365    -0.765652154188

gradient() will perform analytic gradient computation.

*** tstart() called on loro.prib.upf.edu
*** at Sat Sep 29 16:37:56 2018

   => Loading Basis Set <=

    Name: CC-PVDZ
    Role: ORBITAL
    Keyword: BASIS
    atoms 1-2 entry O          line   198 file /shared/joao/test_parameterize/miniconda3/share/psi4/basis/cc-pvdz.gbs 
    atoms 3-4 entry H          line    22 file /shared/joao/test_parameterize/miniconda3/share/psi4/basis/cc-pvdz.gbs 


         ---------------------------------------------------------
                                   SCF
            by Justin Turney, Rob Parrish, Andy Simmonett
                             and Daniel Smith
                              RKS Reference
                        1 Threads,   5100 MiB Core
         ---------------------------------------------------------

  ==> Geometry <==

    Molecular point group: c1
    Full point group: C1

    Geometry (in Angstrom), charge = 0, multiplicity = 1:

       Center              X                  Y                   Z               Mass       
    ------------   -----------------  -----------------  -----------------  -----------------
         O            1.009018925934    -0.020809802153     0.062768783795    15.994914619560
         O            2.465522087796    -0.108392940564    -0.021473166664    15.994914619560
         H            0.692108868646    -0.813538456918    -0.406019462942     1.007825032070
         H            2.628110117624    -0.715333800365    -0.765652154188     1.007825032070

  Running in c1 symmetry.

  Rotational constants: A =      9.64314  B =      0.13873  C =      0.13698 [cm^-1]
  Rotational constants: A = 289094.10067  B =   4159.11917  C =   4106.52235 [MHz]
  Nuclear repulsion =   36.482590526109547

  Charge       = 0
  Multiplicity = 1
  Electrons    = 18
  Nalpha       = 9
  Nbeta        = 9

  ==> Algorithm <==

  SCF Algorithm Type is DF.
  DIIS enabled.
  MOM disabled.
  Fractional occupation disabled.
  Guess Type is READ.
  Energy threshold   = 1.00e-08
  Density threshold  = 1.00e-08
  Integral threshold = 0.00e+00

  ==> Primary Basis <==

  Basis Set: CC-PVDZ
    Blend: CC-PVDZ
    Number of shells: 18
    Number of basis function: 38
    Number of Cartesian functions: 40
    Spherical Harmonics?: true
    Max angular momentum: 2

  ==> DFT Potential <==

   => Composite Functional: B3LYP-D3ZERO <= 

    B3LYP-d3zero Hyb-GGA Exchange-Correlation Functional

    P. J. Stephens, F. J. Devlin, C. F. Chabalowski, and M. J. Frisch, J. Phys. Chem. 98, 11623 (1994)

    Deriv               =              1
    GGA                 =           TRUE
    Meta                =          FALSE

    Exchange Hybrid     =           TRUE
    MP2 Hybrid          =          FALSE

   => Exchange Functionals <=

    0.0800   Slater exchange
    0.7200         Becke 88

   => Exact (HF) Exchange <=

    0.2000               HF 

   => Correlation Functionals <=

    0.1900   Vosko, Wilk & Nusair (VWN5_RPA)
    0.8100   Lee, Yang & Parr

   => Molecular Quadrature <=

    Radial Scheme       =       TREUTLER
    Pruning Scheme      =           FLAT
    Nuclear Scheme      =       TREUTLER

    BS radius alpha     =              1
    Pruning alpha       =              1
    Radial Points       =             75
    Spherical Points    =            302
    Total Points        =          88294
    Total Blocks        =            720
    Max Points          =            256
    Max Functions       =             38

   => -D3ZERO: Empirical Dispersion <=

    Grimme's -D3 (zero-damping) Dispersion Correction
    Grimme S.; Antony J.; Ehrlich S.; Krieg H. (2010), J. Chem. Phys., 132: 154104

        S6 =   1.000000E+00
        S8 =   1.703000E+00
       SR6 =   1.261000E+00
       SR8 =   1.000000E+00
    ALPHA6 =   1.400000E+01

   => Loading Basis Set <=

    Name: (CC-PVDZ AUX)
    Role: JKFIT
    Keyword: DF_BASIS_SCF
    atoms 1-2 entry O          line   221 file /shared/joao/test_parameterize/miniconda3/share/psi4/basis/cc-pvdz-jkfit.gbs 
    atoms 3-4 entry H          line    51 file /shared/joao/test_parameterize/miniconda3/share/psi4/basis/cc-pvdz-jkfit.gbs 

  Reading orbitals from file 180, no projection.

  ==> Pre-Iterations <==

   -------------------------------------------------------
    Irrep   Nso     Nmo     Nalpha   Nbeta   Ndocc  Nsocc
   -------------------------------------------------------
     A         38      38       0       0       0       0
   -------------------------------------------------------
    Total      38      38       9       9       9       0
   -------------------------------------------------------

  ==> Integral Setup <==

  DFHelper Memory: AOs need 0.003 [GiB]; user supplied 3.486 [GiB]. Using in-core AOs.

  ==> MemDFJK: Density-Fitted J/K Matrices <==

    J tasked:                   Yes
    K tasked:                   Yes
    wK tasked:                   No
    OpenMP threads:               1
    Memory (MB):               3570
    Algorithm:                 Core
    Schwarz Cutoff:           1E-12
    Mask sparsity (%):       0.0000
    Fitting Condition:        1E-12

   => Auxiliary Basis Set <=

  Basis Set: (CC-PVDZ AUX)
    Blend: CC-PVDZ-JKFIT
    Number of shells: 66
    Number of basis function: 186
    Number of Cartesian functions: 212
    Spherical Harmonics?: true
    Max angular momentum: 3

  Minimum eigenvalue in the overlap matrix is 2.5092778734E-02.
  Using Symmetric Orthogonalization.

  SCF Guess: Orbitals guess was supplied from a previous computation.

  ==> Iterations <==

                           Total Energy        Delta E     RMS |[F,P]|

   @DF-RKS iter   0:  -151.54232432904493   -1.51542e+02   3.12447e-04 
   @DF-RKS iter   1:  -151.53970708532231    2.61724e-03   9.72914e-05 
   @DF-RKS iter   2:  -151.53971025171799   -3.16640e-06   4.98799e-05 DIIS
   @DF-RKS iter   3:  -151.53971143614211   -1.18442e-06   9.60295e-06 DIIS
   @DF-RKS iter   4:  -151.53971148531645   -4.91743e-08   8.42084e-07 DIIS
   @DF-RKS iter   5:  -151.53971148585720   -5.40751e-10   1.29613e-07 DIIS
   @DF-RKS iter   6:  -151.53971148585865   -1.44951e-12   1.34065e-07 DIIS
   @DF-RKS iter   7:  -151.53971148586754   -8.89600e-12   2.77895e-08 DIIS
   @DF-RKS iter   8:  -151.53971148586811   -5.68434e-13   1.00741e-09 DIIS

  ==> Post-Iterations <==

    Orbital Energies [Eh]
    ---------------------

    Doubly Occupied:                                                      

       1A    -19.190262     2A    -19.190233     3A     -1.107219  
       4A     -0.894268     5A     -0.561989     6A     -0.418082  
       7A     -0.404073     8A     -0.362105     9A     -0.248911  

    Virtual:                                                              

      10A      0.010053    11A      0.022032    12A      0.127640  
      13A      0.553409    14A      0.577236    15A      0.859255  
      16A      0.868944    17A      0.941996    18A      0.942083  
      19A      0.985185    20A      1.061531    21A      1.251773  
      22A      1.265530    23A      1.334234    24A      1.499454  
      25A      1.546464    26A      1.808802    27A      2.028653  
      28A      2.096380    29A      2.322873    30A      2.375202  
      31A      2.628603    32A      2.861585    33A      2.926885  
      34A      2.977453    35A      3.175826    36A      3.525938  
      37A      3.544387    38A      3.789211  

    Final Occupation by Irrep:
              A 
    DOCC [     9 ]

  Energy converged.

  @DF-RKS Final Energy:  -151.53971148586811

   => Energetics <=

    Nuclear Repulsion Energy =             36.4825905261095471
    One-Electron Energy =                -280.9096979031489809
    Two-Electron Energy =                 107.3440593031496348
    DFT Exchange-Correlation Energy =     -14.4563618219783496
    Empirical Dispersion Energy =          -0.0003015900000000
    VV10 Nonlocal Energy =                  0.0000000000000000
    Total Energy =                       -151.5397114858681391



Properties will be evaluated at   0.000000,   0.000000,   0.000000 [a0]

Properties computed using the SCF density matrix

  Nuclear Dipole Moment: [e a0]
     X:    58.8018      Y:    -4.8424      Z:    -1.5898

  Electronic Dipole Moment: [e a0]
     X:   -58.9037      Y:     3.9173      Z:     0.7882

  Dipole Moment: [e a0]
     X:    -0.1020      Y:    -0.9251      Z:    -0.8017     Total:     1.2284

  Dipole Moment: [D]
     X:    -0.2592      Y:    -2.3513      Z:    -2.0377     Total:     3.1222


*** tstop() called on loro.prib.upf.edu at Sat Sep 29 16:38:00 2018
Module time:
	user time   =       2.28 seconds =       0.04 minutes
	system time =       0.06 seconds =       0.00 minutes
	total time  =          4 seconds =       0.07 minutes
Total time:
	user time   =      12.19 seconds =       0.20 minutes
	system time =       0.37 seconds =       0.01 minutes
	total time  =         17 seconds =       0.28 minutes

*** tstart() called on loro.prib.upf.edu
*** at Sat Sep 29 16:38:00 2018


         ------------------------------------------------------------
                                   SCF GRAD                          
                          Rob Parrish, Justin Turney,                
                       Andy Simmonett, and Alex Sokolov              
         ------------------------------------------------------------

  ==> Geometry <==

    Molecular point group: c1
    Full point group: C1

    Geometry (in Angstrom), charge = 0, multiplicity = 1:

       Center              X                  Y                   Z               Mass       
    ------------   -----------------  -----------------  -----------------  -----------------
         O            1.009018925934    -0.020809802153     0.062768783795    15.994914619560
         O            2.465522087796    -0.108392940564    -0.021473166664    15.994914619560
         H            0.692108868646    -0.813538456918    -0.406019462942     1.007825032070
         H            2.628110117624    -0.715333800365    -0.765652154188     1.007825032070

  Nuclear repulsion =   36.482590526109547

  ==> Basis Set <==

  Basis Set: CC-PVDZ
    Blend: CC-PVDZ
    Number of shells: 18
    Number of basis function: 38
    Number of Cartesian functions: 40
    Spherical Harmonics?: true
    Max angular momentum: 2

  ==> DFJKGrad: Density-Fitted SCF Gradients <==

    Gradient:                    1
    J tasked:                  Yes
    K tasked:                  Yes
    wK tasked:                  No
    OpenMP threads:              1
    Integrals threads:           1
    Memory (MB):              3570
    Schwarz Cutoff:          0E+00
    Fitting Condition:       1E-12

   => Auxiliary Basis Set <=

  Basis Set: (CC-PVDZ AUX)
    Blend: CC-PVDZ-JKFIT
    Number of shells: 66
    Number of basis function: 186
    Number of Cartesian functions: 212
    Spherical Harmonics?: true
    Max angular momentum: 3

  ==> DFT Potential <==

   => Composite Functional: B3LYP-D3ZERO <= 

    B3LYP-d3zero Hyb-GGA Exchange-Correlation Functional

    P. J. Stephens, F. J. Devlin, C. F. Chabalowski, and M. J. Frisch, J. Phys. Chem. 98, 11623 (1994)

    Deriv               =              1
    GGA                 =           TRUE
    Meta                =          FALSE

    Exchange Hybrid     =           TRUE
    MP2 Hybrid          =          FALSE

   => Exchange Functionals <=

    0.0800   Slater exchange
    0.7200         Becke 88

   => Exact (HF) Exchange <=

    0.2000               HF 

   => Correlation Functionals <=

    0.1900   Vosko, Wilk & Nusair (VWN5_RPA)
    0.8100   Lee, Yang & Parr

   => Molecular Quadrature <=

    Radial Scheme       =       TREUTLER
    Pruning Scheme      =           FLAT
    Nuclear Scheme      =       TREUTLER

    BS radius alpha     =              1
    Pruning alpha       =              1
    Radial Points       =             75
    Spherical Points    =            302
    Total Points        =          88294
    Total Blocks        =            720
    Max Points          =            256
    Max Functions       =             38


  -Total Gradient:
     Atom            X                  Y                   Z
    ------   -----------------  -----------------  -----------------
       1       -0.001437126032    -0.002501126979     0.003958354490
       2        0.001533481441     0.003375873862    -0.003200144661
       3       -0.000207421624     0.001829676322    -0.002973645684
       4        0.000111145753    -0.002703702044     0.002216060823


*** tstop() called on loro.prib.upf.edu at Sat Sep 29 16:38:00 2018
Module time:
	user time   =       0.68 seconds =       0.01 minutes
	system time =       0.01 seconds =       0.00 minutes
	total time  =          0 seconds =       0.00 minutes
Total time:
	user time   =      12.88 seconds =       0.21 minutes
	system time =       0.39 seconds =       0.01 minutes
	total time  =         17 seconds =       0.28 minutes

			-----------------------------------------
			 OPTKING 2.0: for geometry optimizations 
			  - R.A. King,  Bethel University        
			-----------------------------------------
	At level 1: Red. Int., RFO, no backsteps, dynamic trust

	Previous internal coordinate definitions found.
	---Fragment 1 Geometry and Gradient---
	 O           1.9067694329       -0.0393248269        0.1186158111
	 O           4.6591615205       -0.2048329724       -0.0405784042
	 H           1.3078962159       -1.5373648821       -0.7672655896
	 H           4.9664083694       -1.3517849763       -1.4468728845
	            -0.0014371260       -0.0025011270        0.0039583545
	             0.0015334814        0.0033758739       -0.0032001447
	            -0.0002074216        0.0018296763       -0.0029736457
	             0.0001111458       -0.0027037020        0.0022160608

	---Fragment 1 Intrafragment Coordinates---
	 - Coordinate -           - BOHR/RAD -       - ANG/DEG -
	 R(1,2)           =         2.761955	       1.461564
	 R(1,3)           =         1.840532	       0.973968
	 R(2,4)           =         1.840534	       0.973968
	 B(1,2,4)         =         1.821141	     104.343682
	 B(2,1,3)         =         1.821141	     104.343707
	*D(3,1,2,4)       =         0.349066	      19.999981

	Current energy   :      -151.5397114859

	Energy change for the previous step:
		Projected    :        -0.0000513918
		Actual       :        -0.0000542796
	Energy ratio indicates good step: Trust radius increased to 1.000e+00.


	Performing BFGS update.
	Previous computed or guess Hessian on step 1.
	Steps to be used in Hessian update: 3 2
	Taking RFO optimization step.
	Going to follow RFO solution 1.
	Using RFO vector 1.
	Norm of target step-size    0.00533
	Projected energy change by RFO approximation:        -0.0000077273

	Back-transformation to cartesian coordinates...
	Successfully converged to displaced geometry.

	Back-transformation to cartesian coordinates to adjust frozen coordinates...
	Successfully converged to displaced geometry.

	--- Internal Coordinate Step in ANG or DEG, aJ/ANG or AJ/DEG ---
	 ---------------------------------------------------------------------------
	   Coordinate                Previous        Force       Change         New 
	   ----------                --------       ------       ------       ------
	    1 R(1,2)          =      1.461564    -0.013642    -0.002799     1.458765
	    2 R(1,3)          =      0.973968    -0.000077    -0.000076     0.973891
	    3 R(2,4)          =      0.973968    -0.000083    -0.000076     0.973892
	    4 B(1,2,4)        =    104.343682    -0.000021    -0.026397   104.317285
	    5 B(2,1,3)        =    104.343707    -0.000021    -0.026434   104.317273
	    6 *D(3,1,2,4)     =     19.999981     0.000000     0.000000    19.999981
	 ---------------------------------------------------------------------------
	Successfully symmetrized geometry.

  ==> Convergence Check <==

  Measures of convergence in internal coordinates in au.
  Criteria marked as inactive (o), active & met (*), and active & unmet ( ).
  ---------------------------------------------------------------------------------------------
   Step     Total Energy     Delta E     MAX Force     RMS Force      MAX Disp      RMS Disp   
  ---------------------------------------------------------------------------------------------
    Convergence Criteria    1.00e-06 *    3.00e-04 *             o    1.20e-03 *             o
  ---------------------------------------------------------------------------------------------
      4    -151.53971149   -5.43e-05      1.66e-03      6.94e-04 o    5.29e-03      2.18e-03 o  ~
  ---------------------------------------------------------------------------------------------

	Writing optimization data to binary file.
	Structure for next step:
	Cartesian Geometry (in Angstrom)
	    O     1.0104141961  -0.0207812634   0.0625865060
	    O     2.4641296738  -0.1083939168  -0.0212669925
	    H     0.6939198005  -0.8135343980  -0.4062825481
	    H     2.6262963296  -0.7153654219  -0.7654129654
			--------------------------
			 OPTKING Finished Execution 
			--------------------------

    Structure for next step:
    Molecular point group: c1
    Full point group: C1

    Geometry (in Angstrom), charge = 0, multiplicity = 1:

    O            1.010414196109    -0.020781263355     0.062586505988
    O            2.464129673777    -0.108393916768    -0.021266992514
    H            0.693919800466    -0.813534398001    -0.406282548051
    H            2.626296329648    -0.715365421876    -0.765412965423

gradient() will perform analytic gradient computation.

*** tstart() called on loro.prib.upf.edu
*** at Sat Sep 29 16:38:00 2018

   => Loading Basis Set <=

    Name: CC-PVDZ
    Role: ORBITAL
    Keyword: BASIS
    atoms 1-2 entry O          line   198 file /shared/joao/test_parameterize/miniconda3/share/psi4/basis/cc-pvdz.gbs 
    atoms 3-4 entry H          line    22 file /shared/joao/test_parameterize/miniconda3/share/psi4/basis/cc-pvdz.gbs 


         ---------------------------------------------------------
                                   SCF
            by Justin Turney, Rob Parrish, Andy Simmonett
                             and Daniel Smith
                              RKS Reference
                        1 Threads,   5100 MiB Core
         ---------------------------------------------------------

  ==> Geometry <==

    Molecular point group: c1
    Full point group: C1

    Geometry (in Angstrom), charge = 0, multiplicity = 1:

       Center              X                  Y                   Z               Mass       
    ------------   -----------------  -----------------  -----------------  -----------------
         O            1.010414196109    -0.020781263355     0.062586505988    15.994914619560
         O            2.464129673777    -0.108393916768    -0.021266992514    15.994914619560
         H            0.693919800466    -0.813534398001    -0.406282548051     1.007825032070
         H            2.626296329648    -0.715365421876    -0.765412965423     1.007825032070

  Running in c1 symmetry.

  Rotational constants: A =      9.64515  B =      0.13882  C =      0.13706 [cm^-1]
  Rotational constants: A = 289154.38548  B =   4161.60272  C =   4108.92592 [MHz]
  Nuclear repulsion =   36.534548429012055

  Charge       = 0
  Multiplicity = 1
  Electrons    = 18
  Nalpha       = 9
  Nbeta        = 9

  ==> Algorithm <==

  SCF Algorithm Type is DF.
  DIIS enabled.
  MOM disabled.
  Fractional occupation disabled.
  Guess Type is READ.
  Energy threshold   = 1.00e-08
  Density threshold  = 1.00e-08
  Integral threshold = 0.00e+00

  ==> Primary Basis <==

  Basis Set: CC-PVDZ
    Blend: CC-PVDZ
    Number of shells: 18
    Number of basis function: 38
    Number of Cartesian functions: 40
    Spherical Harmonics?: true
    Max angular momentum: 2

  ==> DFT Potential <==

   => Composite Functional: B3LYP-D3ZERO <= 

    B3LYP-d3zero Hyb-GGA Exchange-Correlation Functional

    P. J. Stephens, F. J. Devlin, C. F. Chabalowski, and M. J. Frisch, J. Phys. Chem. 98, 11623 (1994)

    Deriv               =              1
    GGA                 =           TRUE
    Meta                =          FALSE

    Exchange Hybrid     =           TRUE
    MP2 Hybrid          =          FALSE

   => Exchange Functionals <=

    0.0800   Slater exchange
    0.7200         Becke 88

   => Exact (HF) Exchange <=

    0.2000               HF 

   => Correlation Functionals <=

    0.1900   Vosko, Wilk & Nusair (VWN5_RPA)
    0.8100   Lee, Yang & Parr

   => Molecular Quadrature <=

    Radial Scheme       =       TREUTLER
    Pruning Scheme      =           FLAT
    Nuclear Scheme      =       TREUTLER

    BS radius alpha     =              1
    Pruning alpha       =              1
    Radial Points       =             75
    Spherical Points    =            302
    Total Points        =          88294
    Total Blocks        =            720
    Max Points          =            256
    Max Functions       =             38

   => -D3ZERO: Empirical Dispersion <=

    Grimme's -D3 (zero-damping) Dispersion Correction
    Grimme S.; Antony J.; Ehrlich S.; Krieg H. (2010), J. Chem. Phys., 132: 154104

        S6 =   1.000000E+00
        S8 =   1.703000E+00
       SR6 =   1.261000E+00
       SR8 =   1.000000E+00
    ALPHA6 =   1.400000E+01

   => Loading Basis Set <=

    Name: (CC-PVDZ AUX)
    Role: JKFIT
    Keyword: DF_BASIS_SCF
    atoms 1-2 entry O          line   221 file /shared/joao/test_parameterize/miniconda3/share/psi4/basis/cc-pvdz-jkfit.gbs 
    atoms 3-4 entry H          line    51 file /shared/joao/test_parameterize/miniconda3/share/psi4/basis/cc-pvdz-jkfit.gbs 

  Reading orbitals from file 180, no projection.

  ==> Pre-Iterations <==

   -------------------------------------------------------
    Irrep   Nso     Nmo     Nalpha   Nbeta   Ndocc  Nsocc
   -------------------------------------------------------
     A         38      38       0       0       0       0
   -------------------------------------------------------
    Total      38      38       9       9       9       0
   -------------------------------------------------------

  ==> Integral Setup <==

  DFHelper Memory: AOs need 0.003 [GiB]; user supplied 3.486 [GiB]. Using in-core AOs.

  ==> MemDFJK: Density-Fitted J/K Matrices <==

    J tasked:                   Yes
    K tasked:                   Yes
    wK tasked:                   No
    OpenMP threads:               1
    Memory (MB):               3570
    Algorithm:                 Core
    Schwarz Cutoff:           1E-12
    Mask sparsity (%):       0.0000
    Fitting Condition:        1E-12

   => Auxiliary Basis Set <=

  Basis Set: (CC-PVDZ AUX)
    Blend: CC-PVDZ-JKFIT
    Number of shells: 66
    Number of basis function: 186
    Number of Cartesian functions: 212
    Spherical Harmonics?: true
    Max angular momentum: 3

  Minimum eigenvalue in the overlap matrix is 2.4953858196E-02.
  Using Symmetric Orthogonalization.

  SCF Guess: Orbitals guess was supplied from a previous computation.

  ==> Iterations <==

                           Total Energy        Delta E     RMS |[F,P]|

   @DF-RKS iter   0:  -151.54106447237666   -1.51541e+02   1.42762e-04 
   @DF-RKS iter   1:  -151.53971538452382    1.34909e-03   3.84849e-05 
   @DF-RKS iter   2:  -151.53971588448076   -4.99957e-07   1.97321e-05 DIIS
   @DF-RKS iter   3:  -151.53971606750235   -1.83022e-07   3.53261e-06 DIIS
   @DF-RKS iter   4:  -151.53971607415764   -6.65528e-09   2.70016e-07 DIIS
   @DF-RKS iter   5:  -151.53971607420900   -5.13580e-11   4.32827e-08 DIIS
   @DF-RKS iter   6:  -151.53971607421022   -1.22213e-12   8.74767e-09 DIIS

  ==> Post-Iterations <==

    Orbital Energies [Eh]
    ---------------------

    Doubly Occupied:                                                      

       1A    -19.190074     2A    -19.190045     3A     -1.108371  
       4A     -0.893758     5A     -0.562654     6A     -0.418463  
       7A     -0.404327     8A     -0.361979     9A     -0.248475  

    Virtual:                                                              

      10A      0.011577    11A      0.021903    12A      0.128253  
      13A      0.553450    14A      0.577366    15A      0.859669  
      16A      0.869146    17A      0.941254    18A      0.941477  
      19A      0.985121    20A      1.061622    21A      1.250730  
      22A      1.265473    23A      1.334192    24A      1.501216  
      25A      1.547144    26A      1.809197    27A      2.028840  
      28A      2.096890    29A      2.320822    30A      2.377181  
      31A      2.626953    32A      2.861073    33A      2.927416  
      34A      2.980822    35A      3.178779    36A      3.526987  
      37A      3.543743    38A      3.792192  

    Final Occupation by Irrep:
              A 
    DOCC [     9 ]

  Energy converged.

  @DF-RKS Final Energy:  -151.53971607421022

   => Energetics <=

    Nuclear Repulsion Energy =             36.5345484290120552
    One-Electron Energy =                -281.0108896979636484
    Two-Electron Energy =                 107.3943994571495466
    DFT Exchange-Correlation Energy =     -14.4574761724081977
    Empirical Dispersion Energy =          -0.0002980900000000
    VV10 Nonlocal Energy =                  0.0000000000000000
    Total Energy =                       -151.5397160742102471



Properties will be evaluated at   0.000000,   0.000000,   0.000000 [a0]

Properties computed using the SCF density matrix

  Nuclear Dipole Moment: [e a0]
     X:    58.8018      Y:    -4.8420      Z:    -1.5895

  Electronic Dipole Moment: [e a0]
     X:   -58.9038      Y:     3.9170      Z:     0.7879

  Dipole Moment: [e a0]
     X:    -0.1020      Y:    -0.9250      Z:    -0.8016     Total:     1.2283

  Dipole Moment: [D]
     X:    -0.2592      Y:    -2.3512      Z:    -2.0376     Total:     3.1220


*** tstop() called on loro.prib.upf.edu at Sat Sep 29 16:38:03 2018
Module time:
	user time   =       1.96 seconds =       0.03 minutes
	system time =       0.06 seconds =       0.00 minutes
	total time  =          3 seconds =       0.05 minutes
Total time:
	user time   =      14.86 seconds =       0.25 minutes
	system time =       0.45 seconds =       0.01 minutes
	total time  =         20 seconds =       0.33 minutes

*** tstart() called on loro.prib.upf.edu
*** at Sat Sep 29 16:38:03 2018


         ------------------------------------------------------------
                                   SCF GRAD                          
                          Rob Parrish, Justin Turney,                
                       Andy Simmonett, and Alex Sokolov              
         ------------------------------------------------------------

  ==> Geometry <==

    Molecular point group: c1
    Full point group: C1

    Geometry (in Angstrom), charge = 0, multiplicity = 1:

       Center              X                  Y                   Z               Mass       
    ------------   -----------------  -----------------  -----------------  -----------------
         O            1.010414196109    -0.020781263355     0.062586505988    15.994914619560
         O            2.464129673777    -0.108393916768    -0.021266992514    15.994914619560
         H            0.693919800466    -0.813534398001    -0.406282548051     1.007825032070
         H            2.626296329648    -0.715365421876    -0.765412965423     1.007825032070

  Nuclear repulsion =   36.534548429012055

  ==> Basis Set <==

  Basis Set: CC-PVDZ
    Blend: CC-PVDZ
    Number of shells: 18
    Number of basis function: 38
    Number of Cartesian functions: 40
    Spherical Harmonics?: true
    Max angular momentum: 2

  ==> DFJKGrad: Density-Fitted SCF Gradients <==

    Gradient:                    1
    J tasked:                  Yes
    K tasked:                  Yes
    wK tasked:                  No
    OpenMP threads:              1
    Integrals threads:           1
    Memory (MB):              3570
    Schwarz Cutoff:          0E+00
    Fitting Condition:       1E-12

   => Auxiliary Basis Set <=

  Basis Set: (CC-PVDZ AUX)
    Blend: CC-PVDZ-JKFIT
    Number of shells: 66
    Number of basis function: 186
    Number of Cartesian functions: 212
    Spherical Harmonics?: true
    Max angular momentum: 3

  ==> DFT Potential <==

   => Composite Functional: B3LYP-D3ZERO <= 

    B3LYP-d3zero Hyb-GGA Exchange-Correlation Functional

    P. J. Stephens, F. J. Devlin, C. F. Chabalowski, and M. J. Frisch, J. Phys. Chem. 98, 11623 (1994)

    Deriv               =              1
    GGA                 =           TRUE
    Meta                =          FALSE

    Exchange Hybrid     =           TRUE
    MP2 Hybrid          =          FALSE

   => Exchange Functionals <=

    0.0800   Slater exchange
    0.7200         Becke 88

   => Exact (HF) Exchange <=

    0.2000               HF 

   => Correlation Functionals <=

    0.1900   Vosko, Wilk & Nusair (VWN5_RPA)
    0.8100   Lee, Yang & Parr

   => Molecular Quadrature <=

    Radial Scheme       =       TREUTLER
    Pruning Scheme      =           FLAT
    Nuclear Scheme      =       TREUTLER

    BS radius alpha     =              1
    Pruning alpha       =              1
    Radial Points       =             75
    Spherical Points    =            302
    Total Points        =          88294
    Total Blocks        =            720
    Max Points          =            256
    Max Functions       =             38


  -Total Gradient:
     Atom            X                  Y                   Z
    ------   -----------------  -----------------  -----------------
       1       -0.000034935026    -0.002524366540     0.003903630474
       2        0.000141726854     0.003494202852    -0.003063035740
       3       -0.000000077816     0.001782966930    -0.003042775483
       4       -0.000106619466    -0.002751945861     0.002202923791


*** tstop() called on loro.prib.upf.edu at Sat Sep 29 16:38:04 2018
Module time:
	user time   =       0.62 seconds =       0.01 minutes
	system time =       0.02 seconds =       0.00 minutes
	total time  =          1 seconds =       0.02 minutes
Total time:
	user time   =      15.49 seconds =       0.26 minutes
	system time =       0.47 seconds =       0.01 minutes
	total time  =         21 seconds =       0.35 minutes

			-----------------------------------------
			 OPTKING 2.0: for geometry optimizations 
			  - R.A. King,  Bethel University        
			-----------------------------------------
	At level 1: Red. Int., RFO, no backsteps, dynamic trust

	Previous internal coordinate definitions found.
	---Fragment 1 Geometry and Gradient---
	 O           1.9094061114       -0.0392708964        0.1182713559
	 O           4.6565302394       -0.2048348172       -0.0401887915
	 H           1.3113183811       -1.5373572119       -0.7677627484
	 H           4.9629808068       -1.3518447323       -1.4464208832
	            -0.0000349350       -0.0025243665        0.0039036305
	             0.0001417269        0.0034942029       -0.0030630357
	            -0.0000000778        0.0017829669       -0.0030427755
	            -0.0001066195       -0.0027519459        0.0022029238

	---Fragment 1 Intrafragment Coordinates---
	 - Coordinate -           - BOHR/RAD -       - ANG/DEG -
	 R(1,2)           =         2.756667	       1.458765
	 R(1,3)           =         1.840388	       0.973891
	 R(2,4)           =         1.840389	       0.973892
	 B(1,2,4)         =         1.820680	     104.317285
	 B(2,1,3)         =         1.820680	     104.317273
	*D(3,1,2,4)       =         0.349066	      19.999981

	Current energy   :      -151.5397160742

	Energy change for the previous step:
		Projected    :        -0.0000077273
		Actual       :        -0.0000045883

	Performing BFGS update.
	Previous computed or guess Hessian on step 1.
	Steps to be used in Hessian update: 4 3
	Taking RFO optimization step.
	Going to follow RFO solution 1.
	Using RFO vector 1.
	Norm of target step-size    0.00102
	Projected energy change by RFO approximation:        -0.0000002542

	Back-transformation to cartesian coordinates...
	Successfully converged to displaced geometry.

	Back-transformation to cartesian coordinates to adjust frozen coordinates...
	Successfully converged to displaced geometry.

	--- Internal Coordinate Step in ANG or DEG, aJ/ANG or AJ/DEG ---
	 ---------------------------------------------------------------------------
	   Coordinate                Previous        Force       Change         New 
	   ----------                --------       ------       ------       ------
	    1 R(1,2)          =      1.458765    -0.000333    -0.000200     1.458565
	    2 R(1,3)          =      0.973891    -0.000111    -0.000007     0.973884
	    3 R(2,4)          =      0.973892    -0.000116    -0.000007     0.973885
	    4 B(1,2,4)        =    104.317285     0.000010     0.038585   104.355870
	    5 B(2,1,3)        =    104.317273     0.000010     0.038589   104.355861
	    6 *D(3,1,2,4)     =     19.999981     0.000000    -0.000000    19.999981
	 ---------------------------------------------------------------------------
	Successfully symmetrized geometry.

  ==> Convergence Check <==

  Measures of convergence in internal coordinates in au.
  Criteria marked as inactive (o), active & met (*), and active & unmet ( ).
  ---------------------------------------------------------------------------------------------
   Step     Total Energy     Delta E     MAX Force     RMS Force      MAX Disp      RMS Disp   
  ---------------------------------------------------------------------------------------------
    Convergence Criteria    1.00e-06 *    3.00e-04 *             o    1.20e-03 *             o
  ---------------------------------------------------------------------------------------------
      5    -151.53971607   -4.59e-06      1.34e-04 *    7.95e-05 o    6.74e-04 *    4.18e-04 o  ~
  ---------------------------------------------------------------------------------------------


  **** Optimization is complete! (in 5 steps) ****

  ==> Optimization Summary <==

  Measures of convergence in internal coordinates in au.
  --------------------------------------------------------------------------------------------------------------- ~
   Step         Total Energy             Delta E       MAX Force       RMS Force        MAX Disp        RMS Disp  ~
  --------------------------------------------------------------------------------------------------------------- ~
      1    -151.535116770102   -151.535116770102      0.03448850      0.02245376      0.19662012      0.11642101  ~
      2    -151.538216500958     -0.003099730856      0.02006202      0.01216366      0.05559059      0.03523460  ~
      3    -151.539657206228     -0.001440705270      0.00556691      0.00256823      0.01149198      0.00562050  ~
      4    -151.539711485868     -0.000054279640      0.00165589      0.00069402      0.00528863      0.00217701  ~
      5    -151.539716074210     -0.000004588342      0.00013403      0.00007951      0.00067350      0.00041841  ~
  --------------------------------------------------------------------------------------------------------------- ~

	Writing optimization data to binary file.
	Final energy is   -151.5397160742102
	Final (previous) structure:
	Cartesian Geometry (in Angstrom)
	    O     1.0104141961  -0.0207812634   0.0625865060
	    O     2.4641296738  -0.1083939168  -0.0212669925
	    H     0.6939198005  -0.8135343980  -0.4062825481
	    H     2.6262963296  -0.7153654219  -0.7654129654
	Saving final (previous) structure.
	Removing binary optimization data file.
			--------------------------
			 OPTKING Finished Execution 
			--------------------------

    Final optimized geometry and variables:
    Molecular point group: c1
    Full point group: C1

    Geometry (in Angstrom), charge = 0, multiplicity = 1:

    O            1.010414196109    -0.020781263355     0.062586505988
    O            2.464129673777    -0.108393916768    -0.021266992514
    H            0.693919800466    -0.813534398001    -0.406282548051
    H            2.626296329648    -0.715365421876    -0.765412965423

	Removing binary optimization data file.
	Cleaning optimization helper files.


Properties will be evaluated at   0.000000,   0.000000,   0.000000 [a0]
OEProp: No title given, name of density matrix used for the following properties is 'SCF density'
  Nuclear Dipole Moment: [e a0]
     X:    58.8018      Y:    -4.8420      Z:    -1.5895

  Electronic Dipole Moment: [e a0]
     X:   -58.9038      Y:     3.9170      Z:     0.7879

  Dipole Moment: [e a0]
     X:    -0.1020      Y:    -0.9250      Z:    -0.8016     Total:     1.2283

  Dipole Moment: [D]
     X:    -0.2592      Y:    -2.3512      Z:    -2.0376     Total:     3.1220

  Quadrupole Moment: [D A]
    XX:   -11.3909     YY:    -9.7736     ZZ:   -10.6001
    XY:    -3.5308     XZ:    -3.8967     YZ:     1.9713

  Traceless Quadrupole Moment: [D A]
    XX:    -0.8027     YY:     0.8146     ZZ:    -0.0119
    XY:    -3.5308     XZ:    -3.8967     YZ:     1.9713

  Mulliken Charges: (a.u.)
   Center  Symbol    Alpha    Beta     Spin     Total
       1     O     4.08099  4.08099  0.00000 -0.16198
       2     O     4.08099  4.08099  0.00000 -0.16198
       3     H     0.41901  0.41901  0.00000  0.16198
       4     H     0.41901  0.41901  0.00000  0.16198

   Total alpha =  9.00000, Total beta =  9.00000, Total charge = -0.00000


    Psi4 stopped on: Saturday, 29 September 2018 04:38PM
    Psi4 wall time for execution: 0:00:21.71

*** Psi4 exiting successfully. Buy a developer a beer!
