
    -----------------------------------------------------------------------
          Psi4: An Open-Source Ab Initio Electronic Structure Package
                               Psi4 1.2.1 release

                         Git: Rev {HEAD} 406f4de 


    R. M. Parrish, L. A. Burns, D. G. A. Smith, A. C. Simmonett,
    A. E. DePrince III, E. G. Hohenstein, U. Bozkaya, A. Yu. Sokolov,
    R. Di Remigio, R. M. Richard, J. F. Gonthier, A. M. James,
    H. R. McAlexander, A. Kumar, M. Saitow, X. Wang, B. P. Pritchard,
    P. Verma, H. F. Schaefer III, K. Patkowski, R. A. King, E. F. Valeev,
    F. A. Evangelista, J. M. Turney, T. D. Crawford, and C. D. Sherrill,
    J. Chem. Theory Comput. 13(7) pp 3185--3197 (2017).
    (doi: 10.1021/acs.jctc.7b00174)


                         Additional Contributions by
    P. Kraus, H. Kruse, M. H. Lechner, M. C. Schieber, and R. A. Shaw

    -----------------------------------------------------------------------


    Psi4 started on: Saturday, 29 September 2018 05:09PM

    Process ID: 13180
    Host:       loro.prib.upf.edu
    PSIDATADIR: /shared/joao/test_parameterize/miniconda3/share/psi4
    Memory:     500.0 MiB
    Threads:    1
    
  ==> Input File <==

--------------------------------------------------------------------------
set_num_threads(1)
set_memory('5348 MB')

set { scf_mem_safety_factor 0.7 }

set { reference rks }
set { basis cc-pVDZ }

molecule MOL {
    0 1
    noreorient
    nocom
    symmetry c1
    O    1.050400   0.042900  -0.048100
    C    2.474100   0.047400  -0.029000
    C    3.002600  -1.068900  -0.932000
    N    4.462700  -1.072400  -1.006800
    H    0.760400   0.728400   0.578000
    H    2.809900  -0.097900   1.003200
    H    2.817400   1.026800  -0.378600
    H    2.581000  -0.963300  -1.938400
    H    2.653800  -2.036400  -0.553400
    H    4.761621  -1.715471  -1.739322
    H    4.834902  -1.449857  -0.135455
}

set optking { frozen_dihedral = (" 2 3 4 10 ") }

energy, wfn = energy('B3LYP-D3', return_wfn=True)

import os
os.chdir(os.environ['HTMD_PSI4_WORKDIR'])

oeprop(wfn, 'DIPOLE', 'QUADRUPOLE', 'MULLIKEN_CHARGES')

with open('psi4out.xyz', 'w') as f:
    f.write('11 ' )
    f.write('%.12f\n' % energy)
    f.write(MOL.save_string_xyz())
--------------------------------------------------------------------------
  Threads set to 1 by Python driver.

  Memory set to   4.981 GiB by Python driver.

*** tstart() called on loro.prib.upf.edu
*** at Sat Sep 29 17:09:28 2018

   => Loading Basis Set <=

    Name: CC-PVDZ
    Role: ORBITAL
    Keyword: BASIS
    atoms 1    entry O          line   198 file /shared/joao/test_parameterize/miniconda3/share/psi4/basis/cc-pvdz.gbs 
    atoms 2-3  entry C          line   138 file /shared/joao/test_parameterize/miniconda3/share/psi4/basis/cc-pvdz.gbs 
    atoms 4    entry N          line   168 file /shared/joao/test_parameterize/miniconda3/share/psi4/basis/cc-pvdz.gbs 
    atoms 5-11 entry H          line    22 file /shared/joao/test_parameterize/miniconda3/share/psi4/basis/cc-pvdz.gbs 


         ---------------------------------------------------------
                                   SCF
            by Justin Turney, Rob Parrish, Andy Simmonett
                             and Daniel Smith
                              RKS Reference
                        1 Threads,   5100 MiB Core
         ---------------------------------------------------------

  ==> Geometry <==

    Molecular point group: c1
    Full point group: C1

    Geometry (in Angstrom), charge = 0, multiplicity = 1:

       Center              X                  Y                   Z               Mass       
    ------------   -----------------  -----------------  -----------------  -----------------
         O            1.050400000000     0.042900000000    -0.048100000000    15.994914619560
         C            2.474100000000     0.047400000000    -0.029000000000    12.000000000000
         C            3.002600000000    -1.068900000000    -0.932000000000    12.000000000000
         N            4.462700000000    -1.072400000000    -1.006800000000    14.003074004780
         H            0.760400000000     0.728400000000     0.578000000000     1.007825032070
         H            2.809900000000    -0.097900000000     1.003200000000     1.007825032070
         H            2.817400000000     1.026800000000    -0.378600000000     1.007825032070
         H            2.581000000000    -0.963300000000    -1.938400000000     1.007825032070
         H            2.653800000000    -2.036400000000    -0.553400000000     1.007825032070
         H            4.761621000000    -1.715471000000    -1.739322000000     1.007825032070
         H            4.834902000000    -1.449857000000    -0.135455000000     1.007825032070

  Running in c1 symmetry.

  Rotational constants: A =      0.72217  B =      0.02761  C =      0.02693 [cm^-1]
  Rotational constants: A =  21650.14027  B =    827.65121  C =    807.44249 [MHz]
  Nuclear repulsion =  130.360169106454265

  Charge       = 0
  Multiplicity = 1
  Electrons    = 34
  Nalpha       = 17
  Nbeta        = 17

  ==> Algorithm <==

  SCF Algorithm Type is DF.
  DIIS enabled.
  MOM disabled.
  Fractional occupation disabled.
  Guess Type is SAD.
  Energy threshold   = 1.00e-06
  Density threshold  = 1.00e-06
  Integral threshold = 0.00e+00

  ==> Primary Basis <==

  Basis Set: CC-PVDZ
    Blend: CC-PVDZ
    Number of shells: 45
    Number of basis function: 91
    Number of Cartesian functions: 95
    Spherical Harmonics?: true
    Max angular momentum: 2

  ==> DFT Potential <==

   => Composite Functional: B3LYP-D3ZERO <= 

    B3LYP-d3zero Hyb-GGA Exchange-Correlation Functional

    P. J. Stephens, F. J. Devlin, C. F. Chabalowski, and M. J. Frisch, J. Phys. Chem. 98, 11623 (1994)

    Deriv               =              1
    GGA                 =           TRUE
    Meta                =          FALSE

    Exchange Hybrid     =           TRUE
    MP2 Hybrid          =          FALSE

   => Exchange Functionals <=

    0.0800   Slater exchange
    0.7200         Becke 88

   => Exact (HF) Exchange <=

    0.2000               HF 

   => Correlation Functionals <=

    0.1900   Vosko, Wilk & Nusair (VWN5_RPA)
    0.8100   Lee, Yang & Parr

   => Molecular Quadrature <=

    Radial Scheme       =       TREUTLER
    Pruning Scheme      =           FLAT
    Nuclear Scheme      =       TREUTLER

    BS radius alpha     =              1
    Pruning alpha       =              1
    Radial Points       =             75
    Spherical Points    =            302
    Total Points        =         245092
    Total Blocks        =           1898
    Max Points          =            256
    Max Functions       =             91

   => -D3ZERO: Empirical Dispersion <=

    Grimme's -D3 (zero-damping) Dispersion Correction
    Grimme S.; Antony J.; Ehrlich S.; Krieg H. (2010), J. Chem. Phys., 132: 154104

        S6 =   1.000000E+00
        S8 =   1.703000E+00
       SR6 =   1.261000E+00
       SR8 =   1.000000E+00
    ALPHA6 =   1.400000E+01

   => Loading Basis Set <=

    Name: (CC-PVDZ AUX)
    Role: JKFIT
    Keyword: DF_BASIS_SCF
    atoms 1    entry O          line   221 file /shared/joao/test_parameterize/miniconda3/share/psi4/basis/cc-pvdz-jkfit.gbs 
    atoms 2-3  entry C          line   121 file /shared/joao/test_parameterize/miniconda3/share/psi4/basis/cc-pvdz-jkfit.gbs 
    atoms 4    entry N          line   171 file /shared/joao/test_parameterize/miniconda3/share/psi4/basis/cc-pvdz-jkfit.gbs 
    atoms 5-11 entry H          line    51 file /shared/joao/test_parameterize/miniconda3/share/psi4/basis/cc-pvdz-jkfit.gbs 

  ==> Pre-Iterations <==

   -------------------------------------------------------
    Irrep   Nso     Nmo     Nalpha   Nbeta   Ndocc  Nsocc
   -------------------------------------------------------
     A         91      91       0       0       0       0
   -------------------------------------------------------
    Total      91      91      17      17      17       0
   -------------------------------------------------------

  ==> Integral Setup <==

  DFHelper Memory: AOs need 0.036 [GiB]; user supplied 3.486 [GiB]. Using in-core AOs.

  ==> MemDFJK: Density-Fitted J/K Matrices <==

    J tasked:                   Yes
    K tasked:                   Yes
    wK tasked:                   No
    OpenMP threads:               1
    Memory (MB):               3570
    Algorithm:                 Core
    Schwarz Cutoff:           1E-12
    Mask sparsity (%):       0.5555
    Fitting Condition:        1E-12

   => Auxiliary Basis Set <=

  Basis Set: (CC-PVDZ AUX)
    Blend: CC-PVDZ-JKFIT
    Number of shells: 159
    Number of basis function: 441
    Number of Cartesian functions: 499
    Spherical Harmonics?: true
    Max angular momentum: 3

  Minimum eigenvalue in the overlap matrix is 4.4991994850E-03.
  Using Symmetric Orthogonalization.

  SCF Guess: Superposition of Atomic Densities via on-the-fly atomic UHF.

  ==> Iterations <==

                           Total Energy        Delta E     RMS |[F,P]|

   @DF-RKS iter   0:  -210.83929127440567   -2.10839e+02   3.66231e-02 
   @DF-RKS iter   1:  -210.21767117311521    6.21620e-01   7.00263e-03 
   @DF-RKS iter   2:  -210.07587627630645    1.41795e-01   9.58364e-03 DIIS
   @DF-RKS iter   3:  -210.39011881796390   -3.14243e-01   5.53583e-04 DIIS
   @DF-RKS iter   4:  -210.39073136872793   -6.12551e-04   3.60439e-04 DIIS
   @DF-RKS iter   5:  -210.39119423114295   -4.62862e-04   4.58389e-05 DIIS
   @DF-RKS iter   6:  -210.39119967412122   -5.44298e-06   2.27980e-05 DIIS
   @DF-RKS iter   7:  -210.39120156027266   -1.88615e-06   1.96275e-06 DIIS
   @DF-RKS iter   8:  -210.39120157406873   -1.37961e-08   6.63159e-07 DIIS

  ==> Post-Iterations <==

    Orbital Energies [Eh]
    ---------------------

    Doubly Occupied:                                                      

       1A    -19.125849     2A    -14.305373     3A    -10.221816  
       4A    -10.201834     5A     -1.008228     6A     -0.876932  
       7A     -0.711634     8A     -0.595526     9A     -0.505438  
      10A     -0.487352    11A     -0.453465    12A     -0.413730  
      13A     -0.391017    14A     -0.360035    15A     -0.322969  
      16A     -0.259309    17A     -0.231997  

    Virtual:                                                              

      18A      0.051278    19A      0.057948    20A      0.100611  
      21A      0.120950    22A      0.124920    23A      0.151744  
      24A      0.172129    25A      0.204277    26A      0.244615  
      27A      0.257859    28A      0.437586    29A      0.452862  
      30A      0.487450    31A      0.497590    32A      0.564628  
      33A      0.582060    34A      0.606659    35A      0.615512  
      36A      0.640177    37A      0.653218    38A      0.658787  
      39A      0.680050    40A      0.704370    41A      0.817326  
      42A      0.834014    43A      0.850580    44A      0.911116  
      45A      0.954813    46A      0.994173    47A      1.014115  
      48A      1.064838    49A      1.195091    50A      1.215990  
      51A      1.235472    52A      1.253834    53A      1.322267  
      54A      1.351413    55A      1.407989    56A      1.487681  
      57A      1.518775    58A      1.602587    59A      1.614854  
      60A      1.646283    61A      1.652627    62A      1.664150  
      63A      1.715464    64A      1.742139    65A      1.759982  
      66A      1.769051    67A      1.807426    68A      1.857027  
      69A      1.916093    70A      1.948899    71A      2.000806  
      72A      2.013353    73A      2.060242    74A      2.145087  
      75A      2.153714    76A      2.248013    77A      2.300257  
      78A      2.373723    79A      2.393337    80A      2.438400  
      81A      2.479981    82A      2.534226    83A      2.606195  
      84A      2.681848    85A      2.820793    86A      2.963192  
      87A      3.012149    88A      3.043641    89A      3.122667  
      90A      3.203938    91A      3.697148  

    Final Occupation by Irrep:
              A 
    DOCC [    17 ]

  Energy converged.

  @DF-RKS Final Energy:  -210.39120157406873

   => Energetics <=

    Nuclear Repulsion Energy =            130.3601691064542649
    One-Electron Energy =                -543.6757563448363726
    Two-Electron Energy =                 226.4156732101417333
    DFT Exchange-Correlation Energy =     -23.4864146358283143
    Empirical Dispersion Energy =          -0.0048729100000000
    VV10 Nonlocal Energy =                  0.0000000000000000
    Total Energy =                       -210.3912015740687025



Properties will be evaluated at   0.000000,   0.000000,   0.000000 [a0]

Properties computed using the SCF density matrix

  Nuclear Dipole Moment: [e a0]
     X:   177.1076      Y:   -33.6377      Z:   -30.9204

  Electronic Dipole Moment: [e a0]
     X:  -176.8864      Y:    33.5044      Z:    31.3201

  Dipole Moment: [e a0]
     X:     0.2213      Y:    -0.1333      Z:     0.3997     Total:     0.4759

  Dipole Moment: [D]
     X:     0.5624      Y:    -0.3389      Z:     1.0160     Total:     1.2097


*** tstop() called on loro.prib.upf.edu at Sat Sep 29 17:09:46 2018
Module time:
	user time   =      15.07 seconds =       0.25 minutes
	system time =       0.24 seconds =       0.00 minutes
	total time  =         18 seconds =       0.30 minutes
Total time:
	user time   =      15.07 seconds =       0.25 minutes
	system time =       0.24 seconds =       0.00 minutes
	total time  =         18 seconds =       0.30 minutes


Properties will be evaluated at   0.000000,   0.000000,   0.000000 [a0]
OEProp: No title given, name of density matrix used for the following properties is 'SCF density'
  Nuclear Dipole Moment: [e a0]
     X:   177.1076      Y:   -33.6377      Z:   -30.9204

  Electronic Dipole Moment: [e a0]
     X:  -176.8864      Y:    33.5044      Z:    31.3201

  Dipole Moment: [e a0]
     X:     0.2213      Y:    -0.1333      Z:     0.3997     Total:     0.4759

  Dipole Moment: [D]
     X:     0.5624      Y:    -0.3389      Z:     1.0160     Total:     1.2097

  Quadrupole Moment: [D A]
    XX:   -24.2868     YY:   -22.0891     ZZ:   -23.8810
    XY:    -6.2654     XZ:     1.3816     YZ:     2.4057

  Traceless Quadrupole Moment: [D A]
    XX:    -0.8678     YY:     1.3298     ZZ:    -0.4621
    XY:    -6.2654     XZ:     1.3816     YZ:     2.4057

  Mulliken Charges: (a.u.)
   Center  Symbol    Alpha    Beta     Spin     Total
       1     O     4.13983  4.13983  0.00000 -0.27967
       2     C     2.92702  2.92702  0.00000  0.14596
       3     C     2.98802  2.98802  0.00000  0.02397
       4     N     3.59198  3.59198  0.00000 -0.18397
       5     H     0.42989  0.42989  0.00000  0.14022
       6     H     0.50499  0.50499  0.00000 -0.00997
       7     H     0.49885  0.49885  0.00000  0.00230
       8     H     0.48967  0.48967  0.00000  0.02067
       9     H     0.50113  0.50113  0.00000 -0.00226
      10     H     0.46318  0.46318  0.00000  0.07365
      11     H     0.46545  0.46545  0.00000  0.06911

   Total alpha = 17.00000, Total beta = 17.00000, Total charge = -0.00000


    Psi4 stopped on: Saturday, 29 September 2018 05:09PM
    Psi4 wall time for execution: 0:00:18.08

*** Psi4 exiting successfully. Buy a developer a beer!
