
    -----------------------------------------------------------------------
          Psi4: An Open-Source Ab Initio Electronic Structure Package
                               Psi4 1.2.1 release

                         Git: Rev {HEAD} 406f4de 


    R. M. Parrish, L. A. Burns, D. G. A. Smith, A. C. Simmonett,
    A. E. DePrince III, E. G. Hohenstein, U. Bozkaya, A. Yu. Sokolov,
    R. Di Remigio, R. M. Richard, J. F. Gonthier, A. M. James,
    H. R. McAlexander, A. Kumar, M. Saitow, X. Wang, B. P. Pritchard,
    P. Verma, H. F. Schaefer III, K. Patkowski, R. A. King, E. F. Valeev,
    F. A. Evangelista, J. M. Turney, T. D. Crawford, and C. D. Sherrill,
    J. Chem. Theory Comput. 13(7) pp 3185--3197 (2017).
    (doi: 10.1021/acs.jctc.7b00174)


                         Additional Contributions by
    P. Kraus, H. Kruse, M. H. Lechner, M. C. Schieber, and R. A. Shaw

    -----------------------------------------------------------------------


    Psi4 started on: Saturday, 29 September 2018 05:09PM

    Process ID: 13410
    Host:       loro.prib.upf.edu
    PSIDATADIR: /shared/joao/test_parameterize/miniconda3/share/psi4
    Memory:     500.0 MiB
    Threads:    1
    
  ==> Input File <==

--------------------------------------------------------------------------
set_num_threads(1)
set_memory('5348 MB')

set { scf_mem_safety_factor 0.7 }

set { reference rks }
set { basis cc-pVDZ }

molecule MOL {
    0 1
    noreorient
    nocom
    symmetry c1
    O    1.050400   0.042900  -0.048100
    C    2.474100   0.047400  -0.029000
    C    3.002600  -1.068900  -0.932000
    N    4.462700  -1.072400  -1.006800
    H    0.760400   0.728400   0.578000
    H    2.809900  -0.097900   1.003200
    H    2.817400   1.026800  -0.378600
    H    2.581000  -0.963300  -1.938400
    H    2.653800  -2.036400  -0.553400
    H    4.791918  -0.131771  -1.222008
    H    4.749478  -1.654957  -1.793334
}

set optking { frozen_dihedral = (" 2 3 4 10 ") }

energy, wfn = energy('B3LYP-D3', return_wfn=True)

import os
os.chdir(os.environ['HTMD_PSI4_WORKDIR'])

oeprop(wfn, 'DIPOLE', 'QUADRUPOLE', 'MULLIKEN_CHARGES')

with open('psi4out.xyz', 'w') as f:
    f.write('11 ' )
    f.write('%.12f\n' % energy)
    f.write(MOL.save_string_xyz())
--------------------------------------------------------------------------
  Threads set to 1 by Python driver.

  Memory set to   4.981 GiB by Python driver.

*** tstart() called on loro.prib.upf.edu
*** at Sat Sep 29 17:09:47 2018

   => Loading Basis Set <=

    Name: CC-PVDZ
    Role: ORBITAL
    Keyword: BASIS
    atoms 1    entry O          line   198 file /shared/joao/test_parameterize/miniconda3/share/psi4/basis/cc-pvdz.gbs 
    atoms 2-3  entry C          line   138 file /shared/joao/test_parameterize/miniconda3/share/psi4/basis/cc-pvdz.gbs 
    atoms 4    entry N          line   168 file /shared/joao/test_parameterize/miniconda3/share/psi4/basis/cc-pvdz.gbs 
    atoms 5-11 entry H          line    22 file /shared/joao/test_parameterize/miniconda3/share/psi4/basis/cc-pvdz.gbs 


         ---------------------------------------------------------
                                   SCF
            by Justin Turney, Rob Parrish, Andy Simmonett
                             and Daniel Smith
                              RKS Reference
                        1 Threads,   5100 MiB Core
         ---------------------------------------------------------

  ==> Geometry <==

    Molecular point group: c1
    Full point group: C1

    Geometry (in Angstrom), charge = 0, multiplicity = 1:

       Center              X                  Y                   Z               Mass       
    ------------   -----------------  -----------------  -----------------  -----------------
         O            1.050400000000     0.042900000000    -0.048100000000    15.994914619560
         C            2.474100000000     0.047400000000    -0.029000000000    12.000000000000
         C            3.002600000000    -1.068900000000    -0.932000000000    12.000000000000
         N            4.462700000000    -1.072400000000    -1.006800000000    14.003074004780
         H            0.760400000000     0.728400000000     0.578000000000     1.007825032070
         H            2.809900000000    -0.097900000000     1.003200000000     1.007825032070
         H            2.817400000000     1.026800000000    -0.378600000000     1.007825032070
         H            2.581000000000    -0.963300000000    -1.938400000000     1.007825032070
         H            2.653800000000    -2.036400000000    -0.553400000000     1.007825032070
         H            4.791918000000    -0.131771000000    -1.222008000000     1.007825032070
         H            4.749478000000    -1.654957000000    -1.793334000000     1.007825032070

  Running in c1 symmetry.

  Rotational constants: A =      0.72203  B =      0.02767  C =      0.02697 [cm^-1]
  Rotational constants: A =  21645.79855  B =    829.59911  C =    808.59667 [MHz]
  Nuclear repulsion =  130.507054974307266

  Charge       = 0
  Multiplicity = 1
  Electrons    = 34
  Nalpha       = 17
  Nbeta        = 17

  ==> Algorithm <==

  SCF Algorithm Type is DF.
  DIIS enabled.
  MOM disabled.
  Fractional occupation disabled.
  Guess Type is SAD.
  Energy threshold   = 1.00e-06
  Density threshold  = 1.00e-06
  Integral threshold = 0.00e+00

  ==> Primary Basis <==

  Basis Set: CC-PVDZ
    Blend: CC-PVDZ
    Number of shells: 45
    Number of basis function: 91
    Number of Cartesian functions: 95
    Spherical Harmonics?: true
    Max angular momentum: 2

  ==> DFT Potential <==

   => Composite Functional: B3LYP-D3ZERO <= 

    B3LYP-d3zero Hyb-GGA Exchange-Correlation Functional

    P. J. Stephens, F. J. Devlin, C. F. Chabalowski, and M. J. Frisch, J. Phys. Chem. 98, 11623 (1994)

    Deriv               =              1
    GGA                 =           TRUE
    Meta                =          FALSE

    Exchange Hybrid     =           TRUE
    MP2 Hybrid          =          FALSE

   => Exchange Functionals <=

    0.0800   Slater exchange
    0.7200         Becke 88

   => Exact (HF) Exchange <=

    0.2000               HF 

   => Correlation Functionals <=

    0.1900   Vosko, Wilk & Nusair (VWN5_RPA)
    0.8100   Lee, Yang & Parr

   => Molecular Quadrature <=

    Radial Scheme       =       TREUTLER
    Pruning Scheme      =           FLAT
    Nuclear Scheme      =       TREUTLER

    BS radius alpha     =              1
    Pruning alpha       =              1
    Radial Points       =             75
    Spherical Points    =            302
    Total Points        =         245088
    Total Blocks        =           1882
    Max Points          =            256
    Max Functions       =             91

   => -D3ZERO: Empirical Dispersion <=

    Grimme's -D3 (zero-damping) Dispersion Correction
    Grimme S.; Antony J.; Ehrlich S.; Krieg H. (2010), J. Chem. Phys., 132: 154104

        S6 =   1.000000E+00
        S8 =   1.703000E+00
       SR6 =   1.261000E+00
       SR8 =   1.000000E+00
    ALPHA6 =   1.400000E+01

   => Loading Basis Set <=

    Name: (CC-PVDZ AUX)
    Role: JKFIT
    Keyword: DF_BASIS_SCF
    atoms 1    entry O          line   221 file /shared/joao/test_parameterize/miniconda3/share/psi4/basis/cc-pvdz-jkfit.gbs 
    atoms 2-3  entry C          line   121 file /shared/joao/test_parameterize/miniconda3/share/psi4/basis/cc-pvdz-jkfit.gbs 
    atoms 4    entry N          line   171 file /shared/joao/test_parameterize/miniconda3/share/psi4/basis/cc-pvdz-jkfit.gbs 
    atoms 5-11 entry H          line    51 file /shared/joao/test_parameterize/miniconda3/share/psi4/basis/cc-pvdz-jkfit.gbs 

  ==> Pre-Iterations <==

   -------------------------------------------------------
    Irrep   Nso     Nmo     Nalpha   Nbeta   Ndocc  Nsocc
   -------------------------------------------------------
     A         91      91       0       0       0       0
   -------------------------------------------------------
    Total      91      91      17      17      17       0
   -------------------------------------------------------

  ==> Integral Setup <==

  DFHelper Memory: AOs need 0.036 [GiB]; user supplied 3.486 [GiB]. Using in-core AOs.

  ==> MemDFJK: Density-Fitted J/K Matrices <==

    J tasked:                   Yes
    K tasked:                   Yes
    wK tasked:                   No
    OpenMP threads:               1
    Memory (MB):               3570
    Algorithm:                 Core
    Schwarz Cutoff:           1E-12
    Mask sparsity (%):       0.3864
    Fitting Condition:        1E-12

   => Auxiliary Basis Set <=

  Basis Set: (CC-PVDZ AUX)
    Blend: CC-PVDZ-JKFIT
    Number of shells: 159
    Number of basis function: 441
    Number of Cartesian functions: 499
    Spherical Harmonics?: true
    Max angular momentum: 3

  Minimum eigenvalue in the overlap matrix is 4.5379857925E-03.
  Using Symmetric Orthogonalization.

  SCF Guess: Superposition of Atomic Densities via on-the-fly atomic UHF.

  ==> Iterations <==

                           Total Energy        Delta E     RMS |[F,P]|

   @DF-RKS iter   0:  -210.84569530644433   -2.10846e+02   3.67145e-02 
   @DF-RKS iter   1:  -210.21309475655988    6.32601e-01   7.07456e-03 
   @DF-RKS iter   2:  -210.07043456370150    1.42660e-01   9.65095e-03 DIIS
   @DF-RKS iter   3:  -210.38920168721606   -3.18767e-01   5.85139e-04 DIIS
   @DF-RKS iter   4:  -210.38990790113991   -7.06214e-04   3.68954e-04 DIIS
   @DF-RKS iter   5:  -210.39038816913720   -4.80268e-04   4.88451e-05 DIIS
   @DF-RKS iter   6:  -210.39039450202893   -6.33289e-06   2.31473e-05 DIIS
   @DF-RKS iter   7:  -210.39039646515312   -1.96312e-06   2.09772e-06 DIIS
   @DF-RKS iter   8:  -210.39039648117222   -1.60191e-08   6.26922e-07 DIIS

  ==> Post-Iterations <==

    Orbital Energies [Eh]
    ---------------------

    Doubly Occupied:                                                      

       1A    -19.128795     2A    -14.304006     3A    -10.226686  
       4A    -10.201574     5A     -1.011152     6A     -0.876648  
       7A     -0.712695     8A     -0.599424     9A     -0.507710  
      10A     -0.480378    11A     -0.461812    12A     -0.414097  
      13A     -0.384015    14A     -0.370403    15A     -0.323924  
      16A     -0.262530    17A     -0.229569  

    Virtual:                                                              

      18A      0.049931    19A      0.058473    20A      0.101759  
      21A      0.115159    22A      0.125359    23A      0.154553  
      24A      0.171239    25A      0.205576    26A      0.241109  
      27A      0.253821    28A      0.443232    29A      0.449587  
      30A      0.481951    31A      0.501124    32A      0.563343  
      33A      0.581032    34A      0.611973    35A      0.618430  
      36A      0.637737    37A      0.652850    38A      0.658536  
      39A      0.675933    40A      0.693772    41A      0.820229  
      42A      0.831873    43A      0.846088    44A      0.913273  
      45A      0.973231    46A      0.994873    47A      1.013609  
      48A      1.062779    49A      1.160788    50A      1.212372  
      51A      1.223986    52A      1.240289    53A      1.346526  
      54A      1.374137    55A      1.433235    56A      1.472498  
      57A      1.515647    58A      1.597574    59A      1.602736  
      60A      1.623572    61A      1.655879    62A      1.672231  
      63A      1.709417    64A      1.728593    65A      1.756249  
      66A      1.772245    67A      1.815646    68A      1.858347  
      69A      1.920709    70A      1.958200    71A      1.967777  
      72A      2.023753    73A      2.038696    74A      2.134735  
      75A      2.161069    76A      2.238582    77A      2.297320  
      78A      2.371170    79A      2.410892    80A      2.459362  
      81A      2.462759    82A      2.528136    83A      2.608484  
      84A      2.670500    85A      2.821535    86A      2.954869  
      87A      3.019178    88A      3.035400    89A      3.123411  
      90A      3.203752    91A      3.694701  

    Final Occupation by Irrep:
              A 
    DOCC [    17 ]

  Energy converged.

  @DF-RKS Final Energy:  -210.39039648117222

   => Energetics <=

    Nuclear Repulsion Energy =            130.5070549743072661
    One-Electron Energy =                -543.9217725437906665
    Two-Electron Energy =                 226.5159555581311679
    DFT Exchange-Correlation Energy =     -23.4867037498200020
    Empirical Dispersion Energy =          -0.0049307200000000
    VV10 Nonlocal Energy =                  0.0000000000000000
    Total Energy =                       -210.3903964811722460



Properties will be evaluated at   0.000000,   0.000000,   0.000000 [a0]

Properties computed using the SCF density matrix

  Nuclear Dipole Moment: [e a0]
     X:   177.0035      Y:   -31.0326      Z:   -33.0758

  Electronic Dipole Moment: [e a0]
     X:  -176.8396      Y:    31.5598      Z:    32.9687

  Dipole Moment: [e a0]
     X:     0.1638      Y:     0.5272      Z:    -0.1071     Total:     0.5624

  Dipole Moment: [D]
     X:     0.4164      Y:     1.3400      Z:    -0.2721     Total:     1.4294


*** tstop() called on loro.prib.upf.edu at Sat Sep 29 17:10:05 2018
Module time:
	user time   =      15.11 seconds =       0.25 minutes
	system time =       0.21 seconds =       0.00 minutes
	total time  =         18 seconds =       0.30 minutes
Total time:
	user time   =      15.11 seconds =       0.25 minutes
	system time =       0.21 seconds =       0.00 minutes
	total time  =         18 seconds =       0.30 minutes


Properties will be evaluated at   0.000000,   0.000000,   0.000000 [a0]
OEProp: No title given, name of density matrix used for the following properties is 'SCF density'
  Nuclear Dipole Moment: [e a0]
     X:   177.0035      Y:   -31.0326      Z:   -33.0758

  Electronic Dipole Moment: [e a0]
     X:  -176.8396      Y:    31.5598      Z:    32.9687

  Dipole Moment: [e a0]
     X:     0.1638      Y:     0.5272      Z:    -0.1071     Total:     0.5624

  Dipole Moment: [D]
     X:     0.4164      Y:     1.3400      Z:    -0.2721     Total:     1.4294

  Quadrupole Moment: [D A]
    XX:   -25.4667     YY:   -24.3369     ZZ:   -22.4785
    XY:     2.7535     XZ:    -5.7052     YZ:     2.3445

  Traceless Quadrupole Moment: [D A]
    XX:    -1.3727     YY:    -0.2428     ZZ:     1.6155
    XY:     2.7535     XZ:    -5.7052     YZ:     2.3445

  Mulliken Charges: (a.u.)
   Center  Symbol    Alpha    Beta     Spin     Total
       1     O     4.13856  4.13856  0.00000 -0.27712
       2     C     2.93425  2.93425  0.00000  0.13150
       3     C     2.98037  2.98037  0.00000  0.03926
       4     N     3.59419  3.59419  0.00000 -0.18838
       5     H     0.42978  0.42978  0.00000  0.14044
       6     H     0.49719  0.49719  0.00000  0.00563
       7     H     0.50422  0.50422  0.00000 -0.00844
       8     H     0.50077  0.50077  0.00000 -0.00153
       9     H     0.48989  0.48989  0.00000  0.02022
      10     H     0.46735  0.46735  0.00000  0.06530
      11     H     0.46344  0.46344  0.00000  0.07312

   Total alpha = 17.00000, Total beta = 17.00000, Total charge =  0.00000


    Psi4 stopped on: Saturday, 29 September 2018 05:10PM
    Psi4 wall time for execution: 0:00:18.16

*** Psi4 exiting successfully. Buy a developer a beer!
