
    -----------------------------------------------------------------------
          Psi4: An Open-Source Ab Initio Electronic Structure Package
                               Psi4 1.2.1 release

                         Git: Rev {HEAD} 406f4de 


    R. M. Parrish, L. A. Burns, D. G. A. Smith, A. C. Simmonett,
    A. E. DePrince III, E. G. Hohenstein, U. Bozkaya, A. Yu. Sokolov,
    R. Di Remigio, R. M. Richard, J. F. Gonthier, A. M. James,
    H. R. McAlexander, A. Kumar, M. Saitow, X. Wang, B. P. Pritchard,
    P. Verma, H. F. Schaefer III, K. Patkowski, R. A. King, E. F. Valeev,
    F. A. Evangelista, J. M. Turney, T. D. Crawford, and C. D. Sherrill,
    J. Chem. Theory Comput. 13(7) pp 3185--3197 (2017).
    (doi: 10.1021/acs.jctc.7b00174)


                         Additional Contributions by
    P. Kraus, H. Kruse, M. H. Lechner, M. C. Schieber, and R. A. Shaw

    -----------------------------------------------------------------------


    Psi4 started on: Saturday, 29 September 2018 05:09PM

    Process ID: 13055
    Host:       loro.prib.upf.edu
    PSIDATADIR: /shared/joao/test_parameterize/miniconda3/share/psi4
    Memory:     500.0 MiB
    Threads:    1
    
  ==> Input File <==

--------------------------------------------------------------------------
set_num_threads(1)
set_memory('5348 MB')

set { scf_mem_safety_factor 0.7 }

set { reference rks }
set { basis cc-pVDZ }

molecule MOL {
    0 1
    noreorient
    nocom
    symmetry c1
    O    1.050400   0.042900  -0.048100
    C    2.474100   0.047400  -0.029000
    C    3.002600  -1.068900  -0.932000
    N    4.390991  -0.844005  -1.331113
    H    0.760400   0.728400   0.578000
    H    2.809900  -0.097900   1.003200
    H    2.817400   1.026800  -0.378600
    H    2.370878  -1.155550  -1.823716
    H    2.924181  -2.027339  -0.406356
    H    4.442239  -0.014761  -1.922052
    H    4.694355  -1.622465  -1.916111
}

set optking { frozen_dihedral = (" 1 2 3 4 ") }

energy, wfn = energy('B3LYP-D3', return_wfn=True)

import os
os.chdir(os.environ['HTMD_PSI4_WORKDIR'])

oeprop(wfn, 'DIPOLE', 'QUADRUPOLE', 'MULLIKEN_CHARGES')

with open('psi4out.xyz', 'w') as f:
    f.write('11 ' )
    f.write('%.12f\n' % energy)
    f.write(MOL.save_string_xyz())
--------------------------------------------------------------------------
  Threads set to 1 by Python driver.

  Memory set to   4.981 GiB by Python driver.

*** tstart() called on loro.prib.upf.edu
*** at Sat Sep 29 17:09:10 2018

   => Loading Basis Set <=

    Name: CC-PVDZ
    Role: ORBITAL
    Keyword: BASIS
    atoms 1    entry O          line   198 file /shared/joao/test_parameterize/miniconda3/share/psi4/basis/cc-pvdz.gbs 
    atoms 2-3  entry C          line   138 file /shared/joao/test_parameterize/miniconda3/share/psi4/basis/cc-pvdz.gbs 
    atoms 4    entry N          line   168 file /shared/joao/test_parameterize/miniconda3/share/psi4/basis/cc-pvdz.gbs 
    atoms 5-11 entry H          line    22 file /shared/joao/test_parameterize/miniconda3/share/psi4/basis/cc-pvdz.gbs 


         ---------------------------------------------------------
                                   SCF
            by Justin Turney, Rob Parrish, Andy Simmonett
                             and Daniel Smith
                              RKS Reference
                        1 Threads,   5100 MiB Core
         ---------------------------------------------------------

  ==> Geometry <==

    Molecular point group: c1
    Full point group: C1

    Geometry (in Angstrom), charge = 0, multiplicity = 1:

       Center              X                  Y                   Z               Mass       
    ------------   -----------------  -----------------  -----------------  -----------------
         O            1.050400000000     0.042900000000    -0.048100000000    15.994914619560
         C            2.474100000000     0.047400000000    -0.029000000000    12.000000000000
         C            3.002600000000    -1.068900000000    -0.932000000000    12.000000000000
         N            4.390991000000    -0.844005000000    -1.331113000000    14.003074004780
         H            0.760400000000     0.728400000000     0.578000000000     1.007825032070
         H            2.809900000000    -0.097900000000     1.003200000000     1.007825032070
         H            2.817400000000     1.026800000000    -0.378600000000     1.007825032070
         H            2.370878000000    -1.155550000000    -1.823716000000     1.007825032070
         H            2.924181000000    -2.027339000000    -0.406356000000     1.007825032070
         H            4.442239000000    -0.014761000000    -1.922052000000     1.007825032070
         H            4.694355000000    -1.622465000000    -1.916111000000     1.007825032070

  Running in c1 symmetry.

  Rotational constants: A =      0.67264  B =      0.02791  C =      0.02729 [cm^-1]
  Rotational constants: A =  20165.15880  B =    836.79211  C =    818.01926 [MHz]
  Nuclear repulsion =  130.510389204038830

  Charge       = 0
  Multiplicity = 1
  Electrons    = 34
  Nalpha       = 17
  Nbeta        = 17

  ==> Algorithm <==

  SCF Algorithm Type is DF.
  DIIS enabled.
  MOM disabled.
  Fractional occupation disabled.
  Guess Type is SAD.
  Energy threshold   = 1.00e-06
  Density threshold  = 1.00e-06
  Integral threshold = 0.00e+00

  ==> Primary Basis <==

  Basis Set: CC-PVDZ
    Blend: CC-PVDZ
    Number of shells: 45
    Number of basis function: 91
    Number of Cartesian functions: 95
    Spherical Harmonics?: true
    Max angular momentum: 2

  ==> DFT Potential <==

   => Composite Functional: B3LYP-D3ZERO <= 

    B3LYP-d3zero Hyb-GGA Exchange-Correlation Functional

    P. J. Stephens, F. J. Devlin, C. F. Chabalowski, and M. J. Frisch, J. Phys. Chem. 98, 11623 (1994)

    Deriv               =              1
    GGA                 =           TRUE
    Meta                =          FALSE

    Exchange Hybrid     =           TRUE
    MP2 Hybrid          =          FALSE

   => Exchange Functionals <=

    0.0800   Slater exchange
    0.7200         Becke 88

   => Exact (HF) Exchange <=

    0.2000               HF 

   => Correlation Functionals <=

    0.1900   Vosko, Wilk & Nusair (VWN5_RPA)
    0.8100   Lee, Yang & Parr

   => Molecular Quadrature <=

    Radial Scheme       =       TREUTLER
    Pruning Scheme      =           FLAT
    Nuclear Scheme      =       TREUTLER

    BS radius alpha     =              1
    Pruning alpha       =              1
    Radial Points       =             75
    Spherical Points    =            302
    Total Points        =         245092
    Total Blocks        =           1894
    Max Points          =            256
    Max Functions       =             91

   => -D3ZERO: Empirical Dispersion <=

    Grimme's -D3 (zero-damping) Dispersion Correction
    Grimme S.; Antony J.; Ehrlich S.; Krieg H. (2010), J. Chem. Phys., 132: 154104

        S6 =   1.000000E+00
        S8 =   1.703000E+00
       SR6 =   1.261000E+00
       SR8 =   1.000000E+00
    ALPHA6 =   1.400000E+01

   => Loading Basis Set <=

    Name: (CC-PVDZ AUX)
    Role: JKFIT
    Keyword: DF_BASIS_SCF
    atoms 1    entry O          line   221 file /shared/joao/test_parameterize/miniconda3/share/psi4/basis/cc-pvdz-jkfit.gbs 
    atoms 2-3  entry C          line   121 file /shared/joao/test_parameterize/miniconda3/share/psi4/basis/cc-pvdz-jkfit.gbs 
    atoms 4    entry N          line   171 file /shared/joao/test_parameterize/miniconda3/share/psi4/basis/cc-pvdz-jkfit.gbs 
    atoms 5-11 entry H          line    51 file /shared/joao/test_parameterize/miniconda3/share/psi4/basis/cc-pvdz-jkfit.gbs 

  ==> Pre-Iterations <==

   -------------------------------------------------------
    Irrep   Nso     Nmo     Nalpha   Nbeta   Ndocc  Nsocc
   -------------------------------------------------------
     A         91      91       0       0       0       0
   -------------------------------------------------------
    Total      91      91      17      17      17       0
   -------------------------------------------------------

  ==> Integral Setup <==

  DFHelper Memory: AOs need 0.036 [GiB]; user supplied 3.486 [GiB]. Using in-core AOs.

  ==> MemDFJK: Density-Fitted J/K Matrices <==

    J tasked:                   Yes
    K tasked:                   Yes
    wK tasked:                   No
    OpenMP threads:               1
    Memory (MB):               3570
    Algorithm:                 Core
    Schwarz Cutoff:           1E-12
    Mask sparsity (%):       0.3623
    Fitting Condition:        1E-12

   => Auxiliary Basis Set <=

  Basis Set: (CC-PVDZ AUX)
    Blend: CC-PVDZ-JKFIT
    Number of shells: 159
    Number of basis function: 441
    Number of Cartesian functions: 499
    Spherical Harmonics?: true
    Max angular momentum: 3

  Minimum eigenvalue in the overlap matrix is 4.4745859472E-03.
  Using Symmetric Orthogonalization.

  SCF Guess: Superposition of Atomic Densities via on-the-fly atomic UHF.

  ==> Iterations <==

                           Total Energy        Delta E     RMS |[F,P]|

   @DF-RKS iter   0:  -210.87108256457125   -2.10871e+02   3.69680e-02 
   @DF-RKS iter   1:  -210.22455076660580    6.46532e-01   6.82994e-03 
   @DF-RKS iter   2:  -210.09561710522630    1.28934e-01   9.30529e-03 DIIS
   @DF-RKS iter   3:  -210.38886343306606   -2.93246e-01   6.00087e-04 DIIS
   @DF-RKS iter   4:  -210.38965370030496   -7.90267e-04   3.58663e-04 DIIS
   @DF-RKS iter   5:  -210.39010749145200   -4.53791e-04   5.00174e-05 DIIS
   @DF-RKS iter   6:  -210.39011449418769   -7.00274e-06   2.21529e-05 DIIS
   @DF-RKS iter   7:  -210.39011629051970   -1.79633e-06   2.54998e-06 DIIS
   @DF-RKS iter   8:  -210.39011631455034   -2.40306e-08   7.09323e-07 DIIS

  ==> Post-Iterations <==

    Orbital Energies [Eh]
    ---------------------

    Doubly Occupied:                                                      

       1A    -19.127022     2A    -14.304054     3A    -10.223966  
       4A    -10.201457     5A     -1.009501     6A     -0.876120  
       7A     -0.712193     8A     -0.596925     9A     -0.506633  
      10A     -0.487940    11A     -0.446854    12A     -0.420279  
      13A     -0.388345    14A     -0.363012    15A     -0.323729  
      16A     -0.260516    17A     -0.230138  

    Virtual:                                                              

      18A      0.052426    19A      0.059150    20A      0.098962  
      21A      0.115272    22A      0.131475    23A      0.151806  
      24A      0.166792    25A      0.205219    26A      0.245270  
      27A      0.263893    28A      0.440251    29A      0.455472  
      30A      0.487942    31A      0.496561    32A      0.551325  
      33A      0.585294    34A      0.611498    35A      0.616198  
      36A      0.642198    37A      0.653468    38A      0.662886  
      39A      0.681715    40A      0.698527    41A      0.803607  
      42A      0.833213    43A      0.840375    44A      0.920368  
      45A      0.955501    46A      0.992268    47A      1.014641  
      48A      1.061354    49A      1.184205    50A      1.216402  
      51A      1.229109    52A      1.258022    53A      1.332874  
      54A      1.360130    55A      1.423076    56A      1.497579  
      57A      1.517405    58A      1.599480    59A      1.605939  
      60A      1.615576    61A      1.641471    62A      1.668292  
      63A      1.705831    64A      1.745188    65A      1.754439  
      66A      1.799738    67A      1.826147    68A      1.871857  
      69A      1.929323    70A      1.936642    71A      1.991586  
      72A      2.009867    73A      2.038388    74A      2.144314  
      75A      2.165553    76A      2.222200    77A      2.265755  
      78A      2.369394    79A      2.392830    80A      2.443662  
      81A      2.490800    82A      2.528923    83A      2.608074  
      84A      2.677026    85A      2.823647    86A      2.962421  
      87A      3.009525    88A      3.033188    89A      3.125991  
      90A      3.198174    91A      3.693503  

    Final Occupation by Irrep:
              A 
    DOCC [    17 ]

  Energy converged.

  @DF-RKS Final Energy:  -210.39011631455034

   => Energetics <=

    Nuclear Repulsion Energy =            130.5103892040388303
    One-Electron Energy =                -543.9608788488839082
    Two-Electron Energy =                 226.5527265842077327
    DFT Exchange-Correlation Energy =     -23.4874959139129658
    Empirical Dispersion Energy =          -0.0048573400000000
    VV10 Nonlocal Energy =                  0.0000000000000000
    Total Energy =                       -210.3901163145503403



Properties will be evaluated at   0.000000,   0.000000,   0.000000 [a0]

Properties computed using the SCF density matrix

  Nuclear Dipole Moment: [e a0]
     X:   175.4038      Y:   -28.0750      Z:   -38.4261

  Electronic Dipole Moment: [e a0]
     X:  -175.3251      Y:    28.3813      Z:    38.3293

  Dipole Moment: [e a0]
     X:     0.0787      Y:     0.3063      Z:    -0.0968     Total:     0.3307

  Dipole Moment: [D]
     X:     0.2000      Y:     0.7785      Z:    -0.2460     Total:     0.8406


*** tstop() called on loro.prib.upf.edu at Sat Sep 29 17:09:28 2018
Module time:
	user time   =      14.81 seconds =       0.25 minutes
	system time =       0.22 seconds =       0.00 minutes
	total time  =         18 seconds =       0.30 minutes
Total time:
	user time   =      14.81 seconds =       0.25 minutes
	system time =       0.22 seconds =       0.00 minutes
	total time  =         18 seconds =       0.30 minutes


Properties will be evaluated at   0.000000,   0.000000,   0.000000 [a0]
OEProp: No title given, name of density matrix used for the following properties is 'SCF density'
  Nuclear Dipole Moment: [e a0]
     X:   175.4038      Y:   -28.0750      Z:   -38.4261

  Electronic Dipole Moment: [e a0]
     X:  -175.3251      Y:    28.3813      Z:    38.3293

  Dipole Moment: [e a0]
     X:     0.0787      Y:     0.3063      Z:    -0.0968     Total:     0.3307

  Dipole Moment: [D]
     X:     0.2000      Y:     0.7785      Z:    -0.2460     Total:     0.8406

  Quadrupole Moment: [D A]
    XX:   -27.9921     YY:   -22.9972     ZZ:   -21.4802
    XY:    -0.1616     XZ:    -5.0759     YZ:     1.9170

  Traceless Quadrupole Moment: [D A]
    XX:    -3.8356     YY:     1.1593     ZZ:     2.6763
    XY:    -0.1616     XZ:    -5.0759     YZ:     1.9170

  Mulliken Charges: (a.u.)
   Center  Symbol    Alpha    Beta     Spin     Total
       1     O     4.13990  4.13990  0.00000 -0.27979
       2     C     2.92834  2.92834  0.00000  0.14332
       3     C     2.98423  2.98423  0.00000  0.03155
       4     N     3.59500  3.59500  0.00000 -0.19000
       5     H     0.43013  0.43013  0.00000  0.13974
       6     H     0.49789  0.49789  0.00000  0.00422
       7     H     0.50466  0.50466  0.00000 -0.00933
       8     H     0.49979  0.49979  0.00000  0.00042
       9     H     0.49082  0.49082  0.00000  0.01837
      10     H     0.46542  0.46542  0.00000  0.06915
      11     H     0.46382  0.46382  0.00000  0.07235

   Total alpha = 17.00000, Total beta = 17.00000, Total charge =  0.00000


    Psi4 stopped on: Saturday, 29 September 2018 05:09PM
    Psi4 wall time for execution: 0:00:18.10

*** Psi4 exiting successfully. Buy a developer a beer!
