
    -----------------------------------------------------------------------
          Psi4: An Open-Source Ab Initio Electronic Structure Package
                               Psi4 1.2.1 release

                         Git: Rev {HEAD} 406f4de 


    R. M. Parrish, L. A. Burns, D. G. A. Smith, A. C. Simmonett,
    A. E. DePrince III, E. G. Hohenstein, U. Bozkaya, A. Yu. Sokolov,
    R. Di Remigio, R. M. Richard, J. F. Gonthier, A. M. James,
    H. R. McAlexander, A. Kumar, M. Saitow, X. Wang, B. P. Pritchard,
    P. Verma, H. F. Schaefer III, K. Patkowski, R. A. King, E. F. Valeev,
    F. A. Evangelista, J. M. Turney, T. D. Crawford, and C. D. Sherrill,
    J. Chem. Theory Comput. 13(7) pp 3185--3197 (2017).
    (doi: 10.1021/acs.jctc.7b00174)


                         Additional Contributions by
    P. Kraus, H. Kruse, M. H. Lechner, M. C. Schieber, and R. A. Shaw

    -----------------------------------------------------------------------


    Psi4 started on: Saturday, 29 September 2018 04:49PM

    Process ID: 4401
    Host:       loro.prib.upf.edu
    PSIDATADIR: /shared/joao/test_parameterize/miniconda3/share/psi4
    Memory:     500.0 MiB
    Threads:    1
    
  ==> Input File <==

--------------------------------------------------------------------------
set_num_threads(1)
set_memory('5348 MB')

set { scf_mem_safety_factor 0.7 }

set { reference rks }
set { basis cc-pVDZ }

molecule MOL {
    0 1
    noreorient
    nocom
    symmetry c1
    O    1.141000   0.017000   0.083000
    C    2.558000   0.086000  -0.005000
    C    3.192000  -0.789000   1.067000
    O    2.466322  -0.672392   2.284852
    H    0.789000   0.590000  -0.620000
    H    2.874000   1.128000   0.115000
    H    2.871000  -0.243000  -1.001000
    H    4.231087  -0.490982   1.238526
    H    3.194512  -1.838433   0.751465
    H    2.912004  -1.248127   2.930440
}

set optking { frozen_dihedral = (" 1 2 3 4 ") }

energy, wfn = energy('B3LYP-D3', return_wfn=True)

import os
os.chdir(os.environ['HTMD_PSI4_WORKDIR'])

oeprop(wfn, 'DIPOLE', 'QUADRUPOLE', 'MULLIKEN_CHARGES')

with open('psi4out.xyz', 'w') as f:
    f.write('10 ' )
    f.write('%.12f\n' % energy)
    f.write(MOL.save_string_xyz())
--------------------------------------------------------------------------
  Threads set to 1 by Python driver.

  Memory set to   4.981 GiB by Python driver.

*** tstart() called on loro.prib.upf.edu
*** at Sat Sep 29 16:49:33 2018

   => Loading Basis Set <=

    Name: CC-PVDZ
    Role: ORBITAL
    Keyword: BASIS
    atoms 1, 4 entry O          line   198 file /shared/joao/test_parameterize/miniconda3/share/psi4/basis/cc-pvdz.gbs 
    atoms 2-3  entry C          line   138 file /shared/joao/test_parameterize/miniconda3/share/psi4/basis/cc-pvdz.gbs 
    atoms 5-10 entry H          line    22 file /shared/joao/test_parameterize/miniconda3/share/psi4/basis/cc-pvdz.gbs 


         ---------------------------------------------------------
                                   SCF
            by Justin Turney, Rob Parrish, Andy Simmonett
                             and Daniel Smith
                              RKS Reference
                        1 Threads,   5100 MiB Core
         ---------------------------------------------------------

  ==> Geometry <==

    Molecular point group: c1
    Full point group: C1

    Geometry (in Angstrom), charge = 0, multiplicity = 1:

       Center              X                  Y                   Z               Mass       
    ------------   -----------------  -----------------  -----------------  -----------------
         O            1.141000000000     0.017000000000     0.083000000000    15.994914619560
         C            2.558000000000     0.086000000000    -0.005000000000    12.000000000000
         C            3.192000000000    -0.789000000000     1.067000000000    12.000000000000
         O            2.466322000000    -0.672392000000     2.284852000000    15.994914619560
         H            0.789000000000     0.590000000000    -0.620000000000     1.007825032070
         H            2.874000000000     1.128000000000     0.115000000000     1.007825032070
         H            2.871000000000    -0.243000000000    -1.001000000000     1.007825032070
         H            4.231087000000    -0.490982000000     1.238526000000     1.007825032070
         H            3.194512000000    -1.838433000000     0.751465000000     1.007825032070
         H            2.912004000000    -1.248127000000     2.930440000000     1.007825032070

  Running in c1 symmetry.

  Rotational constants: A =      0.31239  B =      0.03697  C =      0.03382 [cm^-1]
  Rotational constants: A =   9365.26871  B =   1108.20138  C =   1014.01098 [MHz]
  Nuclear repulsion =  132.527085752619371

  Charge       = 0
  Multiplicity = 1
  Electrons    = 34
  Nalpha       = 17
  Nbeta        = 17

  ==> Algorithm <==

  SCF Algorithm Type is DF.
  DIIS enabled.
  MOM disabled.
  Fractional occupation disabled.
  Guess Type is SAD.
  Energy threshold   = 1.00e-06
  Density threshold  = 1.00e-06
  Integral threshold = 0.00e+00

  ==> Primary Basis <==

  Basis Set: CC-PVDZ
    Blend: CC-PVDZ
    Number of shells: 42
    Number of basis function: 86
    Number of Cartesian functions: 90
    Spherical Harmonics?: true
    Max angular momentum: 2

  ==> DFT Potential <==

   => Composite Functional: B3LYP-D3ZERO <= 

    B3LYP-d3zero Hyb-GGA Exchange-Correlation Functional

    P. J. Stephens, F. J. Devlin, C. F. Chabalowski, and M. J. Frisch, J. Phys. Chem. 98, 11623 (1994)

    Deriv               =              1
    GGA                 =           TRUE
    Meta                =          FALSE

    Exchange Hybrid     =           TRUE
    MP2 Hybrid          =          FALSE

   => Exchange Functionals <=

    0.0800   Slater exchange
    0.7200         Becke 88

   => Exact (HF) Exchange <=

    0.2000               HF 

   => Correlation Functionals <=

    0.1900   Vosko, Wilk & Nusair (VWN5_RPA)
    0.8100   Lee, Yang & Parr

   => Molecular Quadrature <=

    Radial Scheme       =       TREUTLER
    Pruning Scheme      =           FLAT
    Nuclear Scheme      =       TREUTLER

    BS radius alpha     =              1
    Pruning alpha       =              1
    Radial Points       =             75
    Spherical Points    =            302
    Total Points        =         222574
    Total Blocks        =           1721
    Max Points          =            256
    Max Functions       =             86

   => -D3ZERO: Empirical Dispersion <=

    Grimme's -D3 (zero-damping) Dispersion Correction
    Grimme S.; Antony J.; Ehrlich S.; Krieg H. (2010), J. Chem. Phys., 132: 154104

        S6 =   1.000000E+00
        S8 =   1.703000E+00
       SR6 =   1.261000E+00
       SR8 =   1.000000E+00
    ALPHA6 =   1.400000E+01

   => Loading Basis Set <=

    Name: (CC-PVDZ AUX)
    Role: JKFIT
    Keyword: DF_BASIS_SCF
    atoms 1, 4 entry O          line   221 file /shared/joao/test_parameterize/miniconda3/share/psi4/basis/cc-pvdz-jkfit.gbs 
    atoms 2-3  entry C          line   121 file /shared/joao/test_parameterize/miniconda3/share/psi4/basis/cc-pvdz-jkfit.gbs 
    atoms 5-10 entry H          line    51 file /shared/joao/test_parameterize/miniconda3/share/psi4/basis/cc-pvdz-jkfit.gbs 

  ==> Pre-Iterations <==

   -------------------------------------------------------
    Irrep   Nso     Nmo     Nalpha   Nbeta   Ndocc  Nsocc
   -------------------------------------------------------
     A         86      86       0       0       0       0
   -------------------------------------------------------
    Total      86      86      17      17      17       0
   -------------------------------------------------------

  ==> Integral Setup <==

  DFHelper Memory: AOs need 0.030 [GiB]; user supplied 3.486 [GiB]. Using in-core AOs.

  ==> MemDFJK: Density-Fitted J/K Matrices <==

    J tasked:                   Yes
    K tasked:                   Yes
    wK tasked:                   No
    OpenMP threads:               1
    Memory (MB):               3570
    Algorithm:                 Core
    Schwarz Cutoff:           1E-12
    Mask sparsity (%):       0.0000
    Fitting Condition:        1E-12

   => Auxiliary Basis Set <=

  Basis Set: (CC-PVDZ AUX)
    Blend: CC-PVDZ-JKFIT
    Number of shells: 150
    Number of basis function: 418
    Number of Cartesian functions: 474
    Spherical Harmonics?: true
    Max angular momentum: 3

  Minimum eigenvalue in the overlap matrix is 5.0770305560E-03.
  Using Symmetric Orthogonalization.

  SCF Guess: Superposition of Atomic Densities via on-the-fly atomic UHF.

  ==> Iterations <==

                           Total Energy        Delta E     RMS |[F,P]|

   @DF-RKS iter   0:  -230.94642044708408   -2.30946e+02   4.05718e-02 
   @DF-RKS iter   1:  -230.17387900250827    7.72541e-01   4.89717e-03 
   @DF-RKS iter   2:  -230.13359040687902    4.02886e-02   6.43633e-03 DIIS
   @DF-RKS iter   3:  -230.24998429189159   -1.16394e-01   7.49852e-04 DIIS
   @DF-RKS iter   4:  -230.25139914408703   -1.41485e-03   2.77993e-04 DIIS
   @DF-RKS iter   5:  -230.25165989244829   -2.60748e-04   5.13509e-05 DIIS
   @DF-RKS iter   6:  -230.25166877612145   -8.88367e-06   5.90080e-06 DIIS
   @DF-RKS iter   7:  -230.25166885532249   -7.92010e-08   3.35253e-06 DIIS
   @DF-RKS iter   8:  -230.25166888532095   -2.99985e-08   6.49132e-07 DIIS

  ==> Post-Iterations <==

    Orbital Energies [Eh]
    ---------------------

    Doubly Occupied:                                                      

       1A    -19.123610     2A    -19.123570     3A    -10.227004  
       4A    -10.226818     5A     -1.016437     6A     -0.996464  
       7A     -0.733996     8A     -0.600782     9A     -0.523925  
      10A     -0.491142    11A     -0.448536    12A     -0.414228  
      13A     -0.398810    14A     -0.335072    15A     -0.320413  
      16A     -0.261220    17A     -0.253306  

    Virtual:                                                              

      18A      0.042546    19A      0.073272    20A      0.092498  
      21A      0.109376    22A      0.135305    23A      0.161684  
      24A      0.180009    25A      0.234646    26A      0.249350  
      27A      0.456929    28A      0.461726    29A      0.498349  
      30A      0.522802    31A      0.550581    32A      0.552623  
      33A      0.614926    34A      0.627367    35A      0.643734  
      36A      0.649354    37A      0.674077    38A      0.696937  
      39A      0.854922    40A      0.890922    41A      0.919385  
      42A      0.989720    43A      1.005973    44A      1.042066  
      45A      1.067149    46A      1.175737    47A      1.195036  
      48A      1.246258    49A      1.251330    50A      1.341905  
      51A      1.347176    52A      1.404393    53A      1.489150  
      54A      1.530137    55A      1.605963    56A      1.610129  
      57A      1.612110    58A      1.621859    59A      1.630368  
      60A      1.714702    61A      1.740842    62A      1.743200  
      63A      1.860344    64A      1.883516    65A      1.960321  
      66A      1.991117    67A      2.015716    68A      2.018645  
      69A      2.134236    70A      2.180025    71A      2.189921  
      72A      2.286948    73A      2.408729    74A      2.413130  
      75A      2.517618    76A      2.528893    77A      2.912957  
      78A      2.969408    79A      3.002918    80A      3.015837  
      81A      3.051143    82A      3.168048    83A      3.204079  
      84A      3.212836    85A      3.665773    86A      3.736849  

    Final Occupation by Irrep:
              A 
    DOCC [    17 ]

  Energy converged.

  @DF-RKS Final Energy:  -230.25166888532095

   => Energetics <=

    Nuclear Repulsion Energy =            132.5270857526193709
    One-Electron Energy =                -576.9357899732945043
    Two-Electron Energy =                 238.6982646530569525
    DFT Exchange-Correlation Energy =     -24.5370430377027695
    Empirical Dispersion Energy =          -0.0041862800000000
    VV10 Nonlocal Energy =                  0.0000000000000000
    Total Energy =                       -230.2516688853209530



Properties will be evaluated at   0.000000,   0.000000,   0.000000 [a0]

Properties computed using the SCF density matrix

  Nuclear Dipole Moment: [e a0]
     X:   151.6131      Y:   -21.8522      Z:    54.2904

  Electronic Dipole Moment: [e a0]
     X:  -150.9020      Y:    21.8363      Z:   -54.7247

  Dipole Moment: [e a0]
     X:     0.7111      Y:    -0.0158      Z:    -0.4343     Total:     0.8334

  Dipole Moment: [D]
     X:     1.8073      Y:    -0.0403      Z:    -1.1039     Total:     2.1182


*** tstop() called on loro.prib.upf.edu at Sat Sep 29 16:49:48 2018
Module time:
	user time   =      12.26 seconds =       0.20 minutes
	system time =       0.19 seconds =       0.00 minutes
	total time  =         15 seconds =       0.25 minutes
Total time:
	user time   =      12.26 seconds =       0.20 minutes
	system time =       0.19 seconds =       0.00 minutes
	total time  =         15 seconds =       0.25 minutes


Properties will be evaluated at   0.000000,   0.000000,   0.000000 [a0]
OEProp: No title given, name of density matrix used for the following properties is 'SCF density'
  Nuclear Dipole Moment: [e a0]
     X:   151.6131      Y:   -21.8522      Z:    54.2904

  Electronic Dipole Moment: [e a0]
     X:  -150.9020      Y:    21.8363      Z:   -54.7247

  Dipole Moment: [e a0]
     X:     0.7111      Y:    -0.0158      Z:    -0.4343     Total:     0.8334

  Dipole Moment: [D]
     X:     1.8073      Y:    -0.0403      Z:    -1.1039     Total:     2.1182

  Quadrupole Moment: [D A]
    XX:   -15.7221     YY:   -22.5076     ZZ:   -22.3501
    XY:    -3.1248     XZ:     2.3922     YZ:    -3.7579

  Traceless Quadrupole Moment: [D A]
    XX:     4.4712     YY:    -2.3144     ZZ:    -2.1569
    XY:    -3.1248     XZ:     2.3922     YZ:    -3.7579

  Mulliken Charges: (a.u.)
   Center  Symbol    Alpha    Beta     Spin     Total
       1     O     4.13182  4.13182  0.00000 -0.26365
       2     C     2.93417  2.93417  0.00000  0.13167
       3     C     2.93426  2.93426  0.00000  0.13148
       4     O     4.13207  4.13207  0.00000 -0.26414
       5     H     0.43079  0.43079  0.00000  0.13843
       6     H     0.50017  0.50017  0.00000 -0.00033
       7     H     0.50302  0.50302  0.00000 -0.00605
       8     H     0.50291  0.50291  0.00000 -0.00582
       9     H     0.50006  0.50006  0.00000 -0.00012
      10     H     0.43073  0.43073  0.00000  0.13853

   Total alpha = 17.00000, Total beta = 17.00000, Total charge = -0.00000


    Psi4 stopped on: Saturday, 29 September 2018 04:49PM
    Psi4 wall time for execution: 0:00:15.00

*** Psi4 exiting successfully. Buy a developer a beer!
