
    -----------------------------------------------------------------------
          Psi4: An Open-Source Ab Initio Electronic Structure Package
                               Psi4 1.2.1 release

                         Git: Rev {HEAD} 406f4de 


    R. M. Parrish, L. A. Burns, D. G. A. Smith, A. C. Simmonett,
    A. E. DePrince III, E. G. Hohenstein, U. Bozkaya, A. Yu. Sokolov,
    R. Di Remigio, R. M. Richard, J. F. Gonthier, A. M. James,
    H. R. McAlexander, A. Kumar, M. Saitow, X. Wang, B. P. Pritchard,
    P. Verma, H. F. Schaefer III, K. Patkowski, R. A. King, E. F. Valeev,
    F. A. Evangelista, J. M. Turney, T. D. Crawford, and C. D. Sherrill,
    J. Chem. Theory Comput. 13(7) pp 3185--3197 (2017).
    (doi: 10.1021/acs.jctc.7b00174)


                         Additional Contributions by
    P. Kraus, H. Kruse, M. H. Lechner, M. C. Schieber, and R. A. Shaw

    -----------------------------------------------------------------------


    Psi4 started on: Saturday, 29 September 2018 08:24PM

    Process ID: 2127
    Host:       rosa.prib.upf.edu
    PSIDATADIR: /shared/joao/test_parameterize/miniconda3/share/psi4
    Memory:     500.0 MiB
    Threads:    1
    
  ==> Input File <==

--------------------------------------------------------------------------
set_num_threads(4)
set_memory('3000 MB')

set { scf_mem_safety_factor 0.7 }

set { reference rks }
set { basis 6-31G* }

molecule MOL {
    1 1
    noreorient
    nocom
    symmetry c1
    C   -0.000000  -0.000000  -0.177864
    C    0.036678   1.219374   0.524165
    C    0.031765   1.213120   1.915444
    C    0.000000   0.000000   2.610107
    C   -0.031765  -1.213120   1.915444
    C   -0.036678  -1.219375   0.524165
    C   -0.000000   0.000000  -1.644734
    H    0.018170   2.164705  -0.010854
    H    0.042402   2.152895   2.457886
    H    0.000000   0.000000   3.695756
    H   -0.042402  -2.152895   2.457886
    H   -0.018170  -2.164705  -0.010853
    N   -0.712590  -0.905950  -2.308461
    N    0.712590   0.905950  -2.308460
    H    0.673432   1.006470  -3.315997
    H    1.377190   1.485970  -1.813316
    H   -0.350740  -1.842996  -2.428011
    H   -1.647895  -0.725122  -2.653818
}

set optking { frozen_dihedral = (" 1 7 13 17 ") }

set optking { dynamic_level = 1 
 geom_maxiter = 250
 print_trajectory_xyz_file = True }

energy, wfn = optimize('B3LYP-D3', return_wfn=True)

import os
os.chdir(os.environ['HTMD_PSI4_WORKDIR'])

oeprop(wfn, 'DIPOLE', 'QUADRUPOLE', 'MULLIKEN_CHARGES')

with open('psi4out.xyz', 'w') as f:
    f.write('18 ' )
    f.write('%.12f\n' % energy)
    f.write(MOL.save_string_xyz())
--------------------------------------------------------------------------
  Threads set to 4 by Python driver.

  Memory set to   2.794 GiB by Python driver.
gradient() will perform analytic gradient computation.

*** tstart() called on rosa.prib.upf.edu
*** at Sat Sep 29 20:24:38 2018

   => Loading Basis Set <=

    Name: 6-31G*
    Role: ORBITAL
    Keyword: BASIS
    atoms 1-7         entry C          line   111 file /shared/joao/test_parameterize/miniconda3/share/psi4/basis/6-31gs.gbs 
    atoms 8-12, 15-18 entry H          line    44 file /shared/joao/test_parameterize/miniconda3/share/psi4/basis/6-31gs.gbs 
    atoms 13-14       entry N          line   128 file /shared/joao/test_parameterize/miniconda3/share/psi4/basis/6-31gs.gbs 


         ---------------------------------------------------------
                                   SCF
            by Justin Turney, Rob Parrish, Andy Simmonett
                             and Daniel Smith
                              RKS Reference
                        4 Threads,   2861 MiB Core
         ---------------------------------------------------------

  ==> Geometry <==

    Molecular point group: c1
    Full point group: C1

    Geometry (in Angstrom), charge = 1, multiplicity = 1:

       Center              X                  Y                   Z               Mass       
    ------------   -----------------  -----------------  -----------------  -----------------
         C            0.000000000000     0.000000000000    -0.177864000000    12.000000000000
         C            0.036678000000     1.219374000000     0.524165000000    12.000000000000
         C            0.031765000000     1.213120000000     1.915444000000    12.000000000000
         C            0.000000000000     0.000000000000     2.610107000000    12.000000000000
         C           -0.031765000000    -1.213120000000     1.915444000000    12.000000000000
         C           -0.036678000000    -1.219375000000     0.524165000000    12.000000000000
         C            0.000000000000     0.000000000000    -1.644734000000    12.000000000000
         H            0.018170000000     2.164705000000    -0.010854000000     1.007825032070
         H            0.042402000000     2.152895000000     2.457886000000     1.007825032070
         H            0.000000000000     0.000000000000     3.695756000000     1.007825032070
         H           -0.042402000000    -2.152895000000     2.457886000000     1.007825032070
         H           -0.018170000000    -2.164705000000    -0.010853000000     1.007825032070
         N           -0.712590000000    -0.905950000000    -2.308461000000    14.003074004780
         N            0.712590000000     0.905950000000    -2.308460000000    14.003074004780
         H            0.673432000000     1.006470000000    -3.315997000000     1.007825032070
         H            1.377190000000     1.485970000000    -1.813316000000     1.007825032070
         H           -0.350740000000    -1.842996000000    -2.428011000000     1.007825032070
         H           -1.647895000000    -0.725122000000    -2.653818000000     1.007825032070

  Running in c1 symmetry.

  Rotational constants: A =      0.12085  B =      0.03962  C =      0.03135 [cm^-1]
  Rotational constants: A =   3623.10338  B =   1187.66289  C =    939.90152 [MHz]
  Nuclear repulsion =  416.660328468428872

  Charge       = 1
  Multiplicity = 1
  Electrons    = 64
  Nalpha       = 32
  Nbeta        = 32

  ==> Algorithm <==

  SCF Algorithm Type is DF.
  DIIS enabled.
  MOM disabled.
  Fractional occupation disabled.
  Guess Type is SAD.
  Energy threshold   = 1.00e-08
  Density threshold  = 1.00e-08
  Integral threshold = 0.00e+00

  ==> Primary Basis <==

  Basis Set: 6-31G*
    Blend: 6-31G*
    Number of shells: 72
    Number of basis function: 153
    Number of Cartesian functions: 153
    Spherical Harmonics?: false
    Max angular momentum: 2

  ==> DFT Potential <==

   => Composite Functional: B3LYP-D3ZERO <= 

    B3LYP-d3zero Hyb-GGA Exchange-Correlation Functional

    P. J. Stephens, F. J. Devlin, C. F. Chabalowski, and M. J. Frisch, J. Phys. Chem. 98, 11623 (1994)

    Deriv               =              1
    GGA                 =           TRUE
    Meta                =          FALSE

    Exchange Hybrid     =           TRUE
    MP2 Hybrid          =          FALSE

   => Exchange Functionals <=

    0.0800   Slater exchange
    0.7200         Becke 88

   => Exact (HF) Exchange <=

    0.2000               HF 

   => Correlation Functionals <=

    0.1900   Vosko, Wilk & Nusair (VWN5_RPA)
    0.8100   Lee, Yang & Parr

   => Molecular Quadrature <=

    Radial Scheme       =       TREUTLER
    Pruning Scheme      =           FLAT
    Nuclear Scheme      =       TREUTLER

    BS radius alpha     =              1
    Pruning alpha       =              1
    Radial Points       =             75
    Spherical Points    =            302
    Total Points        =         397073
    Total Blocks        =           3013
    Max Points          =            256
    Max Functions       =            149

   => -D3ZERO: Empirical Dispersion <=

    Grimme's -D3 (zero-damping) Dispersion Correction
    Grimme S.; Antony J.; Ehrlich S.; Krieg H. (2010), J. Chem. Phys., 132: 154104

        S6 =   1.000000E+00
        S8 =   1.703000E+00
       SR6 =   1.261000E+00
       SR8 =   1.000000E+00
    ALPHA6 =   1.400000E+01

   => Loading Basis Set <=

    Name: (6-31G* AUX)
    Role: JKFIT
    Keyword: DF_BASIS_SCF
    atoms 1-7         entry C          line   121 file /shared/joao/test_parameterize/miniconda3/share/psi4/basis/cc-pvdz-jkfit.gbs 
    atoms 8-12, 15-18 entry H          line    51 file /shared/joao/test_parameterize/miniconda3/share/psi4/basis/cc-pvdz-jkfit.gbs 
    atoms 13-14       entry N          line   171 file /shared/joao/test_parameterize/miniconda3/share/psi4/basis/cc-pvdz-jkfit.gbs 

  ==> Pre-Iterations <==

   -------------------------------------------------------
    Irrep   Nso     Nmo     Nalpha   Nbeta   Ndocc  Nsocc
   -------------------------------------------------------
     A        153     153       0       0       0       0
   -------------------------------------------------------
    Total     153     153      32      32      32       0
   -------------------------------------------------------

  ==> Integral Setup <==

  ==> DiskDFJK: Density-Fitted J/K Matrices <==

    J tasked:                  Yes
    K tasked:                  Yes
    wK tasked:                  No
    OpenMP threads:              4
    Integrals threads:           4
    Memory (MB):              2002
    Algorithm:                Core
    Integral Cache:           NONE
    Schwarz Cutoff:          1E-12
    Fitting Condition:       1E-12

   => Auxiliary Basis Set <=

  Basis Set: (6-31G* AUX)
    Blend: CC-PVDZ-JKFIT
    Number of shells: 297
    Number of basis function: 954
    Number of Cartesian functions: 954
    Spherical Harmonics?: false
    Max angular momentum: 3

  Minimum eigenvalue in the overlap matrix is 4.8611045269E-04.
  Using Symmetric Orthogonalization.

  SCF Guess: Superposition of Atomic Densities via on-the-fly atomic UHF.

  ==> Iterations <==

                           Total Energy        Delta E     RMS |[F,P]|

   @DF-RKS iter   0:  -379.61307997787225   -3.79613e+02   6.72928e-02 
   @DF-RKS iter   1:  -380.96981416754551   -1.35673e+00   8.73094e-03 
   @DF-RKS iter   2:  -380.73801389224326    2.31800e-01   1.04454e-02 DIIS
   @DF-RKS iter   3:  -381.39332816374150   -6.55314e-01   2.27905e-03 DIIS
   @DF-RKS iter   4:  -381.42229536995688   -2.89672e-02   9.45097e-04 DIIS
   @DF-RKS iter   5:  -381.42418986109254   -1.89449e-03   3.05694e-04 DIIS
   @DF-RKS iter   6:  -381.42470045729226   -5.10596e-04   8.92060e-05 DIIS
   @DF-RKS iter   7:  -381.42474389031577   -4.34330e-05   3.97497e-05 DIIS
   @DF-RKS iter   8:  -381.42474828656952   -4.39625e-06   6.82720e-06 DIIS
   @DF-RKS iter   9:  -381.42474852243737   -2.35868e-07   4.14062e-06 DIIS
   @DF-RKS iter  10:  -381.42474862382898   -1.01392e-07   6.21250e-07 DIIS
   @DF-RKS iter  11:  -381.42474862640495   -2.57597e-09   3.86381e-07 DIIS
   @DF-RKS iter  12:  -381.42474862742756   -1.02261e-09   1.09144e-07 DIIS
   @DF-RKS iter  13:  -381.42474862753835   -1.10788e-10   4.98636e-08 DIIS
   @DF-RKS iter  14:  -381.42474862755699   -1.86446e-11   1.22949e-08 DIIS
   @DF-RKS iter  15:  -381.42474862755870   -1.70530e-12   5.60923e-09 DIIS

  ==> Post-Iterations <==

    Orbital Energies [Eh]
    ---------------------

    Doubly Occupied:                                                      

       1A    -14.588295     2A    -14.510684     3A    -10.502782  
       4A    -10.372456     5A    -10.360237     6A    -10.358689  
       7A    -10.348621     8A    -10.343620     9A    -10.343001  
      10A     -1.178628    11A     -1.078322    12A     -1.016115  
      13A     -0.926136    14A     -0.904768    15A     -0.842240  
      16A     -0.778225    17A     -0.769977    18A     -0.742474  
      19A     -0.716677    20A     -0.705268    21A     -0.673231  
      22A     -0.630461    23A     -0.607055    24A     -0.587354  
      25A     -0.578893    26A     -0.556539    27A     -0.518966  
      28A     -0.510054    29A     -0.500686    30A     -0.437801  
      31A     -0.411771    32A     -0.406621  

    Virtual:                                                              

      33A     -0.256571    34A     -0.157649    35A     -0.145236  
      36A     -0.098283    37A     -0.074523    38A     -0.049397  
      39A     -0.037171    40A     -0.011355    41A      0.004762  
      42A      0.014366    43A      0.026076    44A      0.057133  
      45A      0.067436    46A      0.093849    47A      0.130441  
      48A      0.138694    49A      0.155000    50A      0.163978  
      51A      0.210219    52A      0.238954    53A      0.298899  
      54A      0.353142    55A      0.362126    56A      0.380338  
      57A      0.393308    58A      0.403128    59A      0.413898  
      60A      0.422205    61A      0.438383    62A      0.447903  
      63A      0.455692    64A      0.468909    65A      0.470712  
      66A      0.481522    67A      0.487645    68A      0.504261  
      69A      0.528727    70A      0.540926    71A      0.556548  
      72A      0.579219    73A      0.614319    74A      0.640478  
      75A      0.666154    76A      0.681186    77A      0.685562  
      78A      0.700476    79A      0.713653    80A      0.722886  
      81A      0.740484    82A      0.756888    83A      0.767287  
      84A      0.773140    85A      0.807015    86A      0.830397  
      87A      0.849570    88A      0.890670    89A      0.955493  
      90A      0.957155    91A      0.981734    92A      1.016229  
      93A      1.040483    94A      1.089622    95A      1.138526  
      96A      1.159360    97A      1.251101    98A      1.272476  
      99A      1.283754   100A      1.305025   101A      1.323814  
     102A      1.338996   103A      1.359153   104A      1.378677  
     105A      1.435939   106A      1.461019   107A      1.527883  
     108A      1.571352   109A      1.625118   110A      1.666661  
     111A      1.705385   112A      1.722918   113A      1.754052  
     114A      1.777627   115A      1.804422   116A      1.828824  
     117A      1.892600   118A      1.953297   119A      1.960783  
     120A      1.982432   121A      1.995015   122A      2.007981  
     123A      2.019347   124A      2.069958   125A      2.118300  
     126A      2.126518   127A      2.150066   128A      2.194794  
     129A      2.213801   130A      2.313430   131A      2.364555  
     132A      2.429454   133A      2.446044   134A      2.461107  
     135A      2.483995   136A      2.515253   137A      2.555637  
     138A      2.585004   139A      2.596055   140A      2.624077  
     141A      2.730869   142A      2.837582   143A      2.977418  
     144A      3.255449   145A      3.615345   146A      3.704480  
     147A      3.910326   148A      3.943296   149A      3.961495  
     150A      4.040564   151A      4.170922   152A      4.248468  
     153A      4.542972  

    Final Occupation by Irrep:
              A 
    DOCC [    32 ]

  Energy converged.

  @DF-RKS Final Energy:  -381.42474862755870

   => Energetics <=

    Nuclear Repulsion Energy =            416.6603284684288724
    One-Electron Energy =               -1328.6045759025707866
    Two-Electron Energy =                 574.9435236800130724
    DFT Exchange-Correlation Energy =     -44.4120820434297983
    Empirical Dispersion Energy =          -0.0119428300000000
    VV10 Nonlocal Energy =                  0.0000000000000000
    Total Energy =                       -381.4247486275586994



Properties will be evaluated at   0.000000,   0.000000,   0.000000 [a0]

Properties computed using the SCF density matrix

  Nuclear Dipole Moment: [e a0]
     X:     0.0982      Y:    -0.1430      Z:     0.1145

  Electronic Dipole Moment: [e a0]
     X:     0.1613      Y:     0.3912      Z:    -2.0594

  Dipole Moment: [e a0]
     X:     0.2595      Y:     0.2482      Z:    -1.9449     Total:     1.9777

  Dipole Moment: [D]
     X:     0.6597      Y:     0.6308      Z:    -4.9433     Total:     5.0269


*** tstop() called on rosa.prib.upf.edu at Sat Sep 29 20:25:20 2018
Module time:
	user time   =     120.07 seconds =       2.00 minutes
	system time =       1.33 seconds =       0.02 minutes
	total time  =         42 seconds =       0.70 minutes
Total time:
	user time   =     120.07 seconds =       2.00 minutes
	system time =       1.33 seconds =       0.02 minutes
	total time  =         42 seconds =       0.70 minutes

*** tstart() called on rosa.prib.upf.edu
*** at Sat Sep 29 20:25:20 2018


         ------------------------------------------------------------
                                   SCF GRAD                          
                          Rob Parrish, Justin Turney,                
                       Andy Simmonett, and Alex Sokolov              
         ------------------------------------------------------------

  ==> Geometry <==

    Molecular point group: c1
    Full point group: C1

    Geometry (in Angstrom), charge = 1, multiplicity = 1:

       Center              X                  Y                   Z               Mass       
    ------------   -----------------  -----------------  -----------------  -----------------
         C            0.000000000000     0.000000000000    -0.177864000000    12.000000000000
         C            0.036678000000     1.219374000000     0.524165000000    12.000000000000
         C            0.031765000000     1.213120000000     1.915444000000    12.000000000000
         C            0.000000000000     0.000000000000     2.610107000000    12.000000000000
         C           -0.031765000000    -1.213120000000     1.915444000000    12.000000000000
         C           -0.036678000000    -1.219375000000     0.524165000000    12.000000000000
         C            0.000000000000     0.000000000000    -1.644734000000    12.000000000000
         H            0.018170000000     2.164705000000    -0.010854000000     1.007825032070
         H            0.042402000000     2.152895000000     2.457886000000     1.007825032070
         H            0.000000000000     0.000000000000     3.695756000000     1.007825032070
         H           -0.042402000000    -2.152895000000     2.457886000000     1.007825032070
         H           -0.018170000000    -2.164705000000    -0.010853000000     1.007825032070
         N           -0.712590000000    -0.905950000000    -2.308461000000    14.003074004780
         N            0.712590000000     0.905950000000    -2.308460000000    14.003074004780
         H            0.673432000000     1.006470000000    -3.315997000000     1.007825032070
         H            1.377190000000     1.485970000000    -1.813316000000     1.007825032070
         H           -0.350740000000    -1.842996000000    -2.428011000000     1.007825032070
         H           -1.647895000000    -0.725122000000    -2.653818000000     1.007825032070

  Nuclear repulsion =  416.660328468428872

  ==> Basis Set <==

  Basis Set: 6-31G*
    Blend: 6-31G*
    Number of shells: 72
    Number of basis function: 153
    Number of Cartesian functions: 153
    Spherical Harmonics?: false
    Max angular momentum: 2

  ==> DFJKGrad: Density-Fitted SCF Gradients <==

    Gradient:                    1
    J tasked:                  Yes
    K tasked:                  Yes
    wK tasked:                  No
    OpenMP threads:              4
    Integrals threads:           4
    Memory (MB):              2002
    Schwarz Cutoff:          0E+00
    Fitting Condition:       1E-12

   => Auxiliary Basis Set <=

  Basis Set: (6-31G* AUX)
    Blend: CC-PVDZ-JKFIT
    Number of shells: 297
    Number of basis function: 954
    Number of Cartesian functions: 954
    Spherical Harmonics?: false
    Max angular momentum: 3

  ==> DFT Potential <==

   => Composite Functional: B3LYP-D3ZERO <= 

    B3LYP-d3zero Hyb-GGA Exchange-Correlation Functional

    P. J. Stephens, F. J. Devlin, C. F. Chabalowski, and M. J. Frisch, J. Phys. Chem. 98, 11623 (1994)

    Deriv               =              1
    GGA                 =           TRUE
    Meta                =          FALSE

    Exchange Hybrid     =           TRUE
    MP2 Hybrid          =          FALSE

   => Exchange Functionals <=

    0.0800   Slater exchange
    0.7200         Becke 88

   => Exact (HF) Exchange <=

    0.2000               HF 

   => Correlation Functionals <=

    0.1900   Vosko, Wilk & Nusair (VWN5_RPA)
    0.8100   Lee, Yang & Parr

   => Molecular Quadrature <=

    Radial Scheme       =       TREUTLER
    Pruning Scheme      =           FLAT
    Nuclear Scheme      =       TREUTLER

    BS radius alpha     =              1
    Pruning alpha       =              1
    Radial Points       =             75
    Spherical Points    =            302
    Total Points        =         397073
    Total Blocks        =           3013
    Max Points          =            256
    Max Functions       =            149


  -Total Gradient:
     Atom            X                  Y                   Z
    ------   -----------------  -----------------  -----------------
       1       -0.007551762838    -0.005085379237     0.008696821215
       2       -0.003678349202    -0.002262540665    -0.005379114393
       3        0.000863845104    -0.002126119597     0.001186359254
       4       -0.000142676067    -0.000597062723    -0.000473956691
       5       -0.001197488308     0.001615037250     0.003003879293
       6        0.002107818788     0.003138680497    -0.003203007266
       7       -0.026128417876    -0.032534665335    -0.029065723919
       8        0.000115023011    -0.000169844689    -0.000076845585
       9        0.000465032856    -0.000010468609    -0.000171401380
      10        0.000229072503    -0.000069331313    -0.000056741424
      11       -0.000132204844    -0.000016552629     0.000010906017
      12        0.002471446845    -0.001025363429    -0.000140414156
      13        0.022213111797     0.032386088972     0.038155037061
      14        0.006985101372     0.007233758871    -0.011167877619
      15        0.002058956746     0.004712153801     0.002915346415
      16        0.000292612332    -0.006136013513    -0.001643273389
      17        0.003034184736     0.000980395407    -0.001058981912
      18       -0.001998848066    -0.000035659685    -0.001527939446


*** tstop() called on rosa.prib.upf.edu at Sat Sep 29 20:25:30 2018
Module time:
	user time   =      28.90 seconds =       0.48 minutes
	system time =       0.39 seconds =       0.01 minutes
	total time  =         10 seconds =       0.17 minutes
Total time:
	user time   =     149.02 seconds =       2.48 minutes
	system time =       1.73 seconds =       0.03 minutes
	total time  =         52 seconds =       0.87 minutes

			-----------------------------------------
			 OPTKING 2.0: for geometry optimizations 
			  - R.A. King,  Bethel University        
			-----------------------------------------
	At level 1: Red. Int., RFO, no backsteps, dynamic trust

	Internal coordinates to be generated automatically.
	Detected frag 1 with atoms:  1 2 3 4 5 6 7 8 9 10 11 12 13 14 15 16 17 18
	---Fragment 1 Bond Connectivity---
	 1 : 2 6 7
	 2 : 1 3 8
	 3 : 2 4 9
	 4 : 3 5 10
	 5 : 4 6 11
	 6 : 1 5 12
	 7 : 1 13 14
	 8 : 2
	 9 : 3
	 10 : 4
	 11 : 5
	 12 : 6
	 13 : 7 17 18
	 14 : 7 15 16
	 15 : 14
	 16 : 14
	 17 : 13
	 18 : 13

	Assuming in current code that numbering for constraints corresponds to unified fragment.
	Frozen dihedral atom list: 
	     1     7    13    17
	---Fragment 1 Geometry and Gradient---
	 C           0.0000000000        0.0000000000       -0.3361142489
	 C           0.0693113751        2.3042829136        0.9905282984
	 C           0.0600271506        2.2924645663        3.6196645829
	 C           0.0000000000        0.0000000000        4.9323874075
	 C          -0.0600271506       -2.2924645663        3.6196645829
	 C          -0.0693113751       -2.3042848033        0.9905282984
	 C           0.0000000000        0.0000000000       -3.1080968214
	 H           0.0343363238        4.0906996085       -0.0205110874
	 H           0.0801281675        4.0683819429        4.6447314059
	 H           0.0000000000        0.0000000000        6.9839666940
	 H          -0.0801281675       -4.0683819429        4.6447314059
	 H          -0.0343363238       -4.0906996085       -0.0205091977
	 N          -1.3465999450       -1.7119973901       -4.3623590784
	 N           1.3465999450        1.7119973901       -4.3623571887
	 H           1.2726020491        1.9019526610       -6.2663261875
	 H           2.6025119329        2.8080763417       -3.4266706324
	 H          -0.6628025438       -3.4827577040       -4.5882758376
	 H          -3.1140702458       -1.3702819929       -5.0149892265
	            -0.0075517628       -0.0050853792        0.0086968212
	            -0.0036783492       -0.0022625407       -0.0053791144
	             0.0008638451       -0.0021261196        0.0011863593
	            -0.0001426761       -0.0005970627       -0.0004739567
	            -0.0011974883        0.0016150372        0.0030038793
	             0.0021078188        0.0031386805       -0.0032030073
	            -0.0261284179       -0.0325346653       -0.0290657239
	             0.0001150230       -0.0001698447       -0.0000768456
	             0.0004650329       -0.0000104686       -0.0001714014
	             0.0002290725       -0.0000693313       -0.0000567414
	            -0.0001322048       -0.0000165526        0.0000109060
	             0.0024714468       -0.0010253634       -0.0001404142
	             0.0222131118        0.0323860890        0.0381550371
	             0.0069851014        0.0072337589       -0.0111678776
	             0.0020589567        0.0047121538        0.0029153464
	             0.0002926123       -0.0061360135       -0.0016432734
	             0.0030341847        0.0009803954       -0.0010589819
	            -0.0019988481       -0.0000356597       -0.0015279394

	Previous optimization step data not found.  Starting new optimization.

	---Fragment 1 Intrafragment Coordinates---
	 - Coordinate -           - BOHR/RAD -       - ANG/DEG -
	 R(1,2)           =         2.659794	       1.407502
	 R(1,6)           =         2.659796	       1.407503
	 R(1,7)           =         2.771983	       1.466870
	 R(2,3)           =         2.629179	       1.391302
	 R(2,8)           =         2.052976	       1.086388
	 R(3,4)           =         2.642393	       1.398294
	 R(3,9)           =         2.050622	       1.085142
	 R(4,5)           =         2.642393	       1.398294
	 R(4,10)          =         2.051579	       1.085649
	 R(5,6)           =         2.629179	       1.391302
	 R(5,11)          =         2.050622	       1.085142
	 R(6,12)          =         2.052973	       1.086386
	 R(7,13)          =         2.513452	       1.330061
	 R(7,14)          =         2.513451	       1.330061
	 R(13,17)         =         1.911599	       1.011574
	 R(13,18)         =         1.914849	       1.013294
	 R(14,15)         =         1.914852	       1.013296
	 R(14,16)         =         1.911600	       1.011575
	 B(1,2,3)         =         2.088380	     119.655376
	 B(1,2,8)         =         2.103396	     120.515689
	 B(1,6,5)         =         2.088379	     119.655315
	 B(1,6,12)        =         2.103396	     120.515729
	 B(1,7,13)        =         2.093264	     119.935172
	 B(1,7,14)        =         2.093263	     119.935135
	 B(2,1,6)         =         2.097220	     120.161857
	 B(2,1,7)         =         2.092983	     119.919082
	 B(2,3,4)         =         2.095279	     120.050636
	 B(2,3,9)         =         2.089719	     119.732108
	 B(3,2,8)         =         2.090149	     119.756722
	 B(3,4,5)         =         2.101793	     120.423859
	 B(3,4,10)        =         2.090696	     119.788070
	 B(4,3,9)         =         2.098135	     120.214297
	 B(4,5,6)         =         2.095280	     120.050677
	 B(4,5,11)        =         2.098135	     120.214297
	 B(5,4,10)        =         2.090696	     119.788070
	 B(5,6,12)        =         2.090149	     119.756743
	 B(6,1,7)         =         2.092982	     119.919061
	 B(6,5,11)        =         2.089719	     119.732067
	 B(7,13,17)       =         2.092411	     119.886310
	 B(7,13,18)       =         2.144860	     122.891422
	 B(7,14,15)       =         2.144860	     122.891405
	 B(7,14,16)       =         2.092412	     119.886393
	 B(13,7,14)       =         2.096659	     120.129694
	 B(15,14,16)      =         2.043399	     117.078146
	 B(17,13,18)      =         2.043400	     117.078210
	 D(1,2,3,4)       =         0.007799	       0.446825
	 D(1,2,3,9)       =        -3.122896	    -178.928735
	 D(1,6,5,4)       =         0.007799	       0.446822
	 D(1,6,5,11)      =        -3.122896	    -178.928737
	*D(1,7,13,17)     =        -1.396264	     -80.000030
	 D(1,7,13,18)     =         1.666912	      95.507045
	 D(1,7,14,15)     =        -3.032165	    -173.730230
	 D(1,7,14,16)     =         0.187844	      10.762681
	 D(2,1,6,5)       =        -0.003906	      -0.223802
	 D(2,1,6,12)      =        -3.091437	    -177.126283
	 D(2,1,7,13)      =        -2.505167	    -143.535494
	 D(2,1,7,14)      =         0.636426	      36.464506
	 D(2,3,4,5)       =        -0.003942	      -0.225875
	 D(2,3,4,10)      =         3.137650	     179.774125
	 D(3,2,1,6)       =        -0.003906	      -0.223806
	 D(3,2,1,7)       =         3.137687	     179.776196
	 D(3,4,5,6)       =        -0.003942	      -0.225874
	 D(3,4,5,11)      =         3.126699	     179.146646
	 D(4,3,2,8)       =         3.095744	     177.373058
	 D(4,5,6,12)      =         3.095744	     177.373055
	 D(5,4,3,9)       =         3.126699	     179.146646
	 D(5,6,1,7)       =         3.137687	     179.776197
	 D(6,1,2,8)       =        -3.091437	    -177.126287
	 D(6,1,7,13)      =         0.636426	      36.464508
	 D(6,1,7,14)      =        -2.505167	    -143.535492
	 D(6,5,4,10)      =         3.137650	     179.774126
	 D(7,1,2,8)       =         0.050156	       2.873714
	 D(7,1,6,12)      =         0.050156	       2.873716
	 D(8,2,3,9)       =        -0.034950	      -2.002503
	 D(9,3,4,10)      =        -0.014894	      -0.853354
	 D(10,4,5,11)     =        -0.014894	      -0.853354
	 D(11,5,6,12)     =        -0.034950	      -2.002504
	 D(13,7,14,15)    =         0.109428	       6.269770
	 D(13,7,14,16)    =        -2.953748	    -169.237319
	 D(14,7,13,17)    =         1.745329	      99.999970
	 D(14,7,13,18)    =        -1.474680	     -84.492955

	Current energy   :      -381.4247486276

	Generating empirical Hessian (Schlegel '84) for each fragment.
	Taking RFO optimization step.
	Going to follow RFO solution 1.
	Using RFO vector 1.
	Norm of target step-size    0.44738
	Projected energy change by RFO approximation:        -0.0035449100

	Back-transformation to cartesian coordinates...
	Could not converge backtransformation.
	Using first guess instead.

	Back-transformation to cartesian coordinates to adjust frozen coordinates...
	Successfully converged to displaced geometry.

	--- Internal Coordinate Step in ANG or DEG, aJ/ANG or AJ/DEG ---
	 ---------------------------------------------------------------------------
	   Coordinate                Previous        Force       Change         New 
	   ----------                --------       ------       ------       ------
	    1 R(1,2)          =      1.407502     0.041640     0.008335     1.415838
	    2 R(1,6)          =      1.407503     0.018885     0.006096     1.413599
	    3 R(1,7)          =      1.466870    -0.027967    -0.004702     1.462168
	    4 R(2,3)          =      1.391302    -0.010989    -0.001264     1.390037
	    5 R(2,8)          =      1.086388     0.000922     0.001917     1.088305
	    6 R(3,4)          =      1.398294     0.007131     0.002913     1.401207
	    7 R(3,9)          =      1.085142     0.000745     0.001188     1.086330
	    8 R(4,5)          =      1.398294     0.016653     0.004226     1.402520
	    9 R(4,10)         =      1.085649     0.000469     0.000141     1.085790
	   10 R(5,6)          =      1.391302    -0.017815    -0.002398     1.388904
	   11 R(5,11)         =      1.085142    -0.000174     0.002454     1.087596
	   12 R(6,12)         =      1.086386    -0.008269     0.003638     1.090024
	   13 R(7,13)         =      1.330061     0.435891     0.051589     1.381651
	   14 R(7,14)         =      1.330061    -0.114505    -0.003630     1.326431
	   15 R(13,17)        =      1.011574    -0.002482     0.003136     1.014711
	   16 R(13,18)        =      1.013294    -0.019447    -0.000290     1.013005
	   17 R(14,15)        =      1.013296     0.020686     0.003903     1.017199
	   18 R(14,16)        =      1.011575     0.034028     0.025129     1.036704
	   19 B(1,2,3)        =    119.655376     0.000047     0.080415   119.735791
	   20 B(1,2,8)        =    120.515689    -0.000013     0.043322   120.559011
	   21 B(1,6,5)        =    119.655315     0.000010    -0.078714   119.576601
	   22 B(1,6,12)       =    120.515729    -0.000031     0.100279   120.616008
	   23 B(1,7,13)       =    119.935172     0.001172     3.198098   123.133270
	   24 B(1,7,14)       =    119.935135    -0.000478    -1.612483   118.322652
	   25 B(2,1,6)        =    120.161857    -0.000092    -0.105739   120.056118
	   26 B(2,1,7)        =    119.919082     0.000222     0.584556   120.503638
	   27 B(2,3,4)        =    120.050636    -0.000059    -0.201088   119.849548
	   28 B(2,3,9)        =    119.732108     0.000041     0.079235   119.811343
	   29 B(3,2,8)        =    119.756722    -0.000035    -0.169906   119.586816
	   30 B(3,4,5)        =    120.423859     0.000061     0.241569   120.665428
	   31 B(3,4,10)       =    119.788070    -0.000035    -0.108346   119.679724
	   32 B(4,3,9)        =    120.214297     0.000018     0.123483   120.337780
	   33 B(4,5,6)        =    120.050677     0.000033     0.030346   120.081023
	   34 B(4,5,11)       =    120.214297    -0.000016     0.098056   120.312352
	   35 B(5,4,10)       =    119.788070    -0.000025    -0.137213   119.650858
	   36 B(5,6,12)       =    119.756743     0.000024     0.028782   119.785525
	   37 B(6,1,7)        =    119.919061    -0.000130    -0.485963   119.433099
	   38 B(6,5,11)       =    119.732067    -0.000016    -0.128987   119.603080
	   39 B(7,13,17)      =    119.886310     0.000246     1.028490   120.914800
	   40 B(7,13,18)      =    122.891422    -0.000175    -0.835820   122.055602
	   41 B(7,14,15)      =    122.891405    -0.000549    -2.704607   120.186798
	   42 B(7,14,16)      =    119.886393     0.000375     2.283456   122.169849
	   43 B(13,7,14)      =    120.129694    -0.000694    -1.628150   118.501544
	   44 B(15,14,16)     =    117.078146     0.000184     0.563744   117.641889
	   45 B(17,13,18)     =    117.078210    -0.000076    -0.327206   116.751004
	   46 D(1,2,3,4)      =      0.446825     0.000010     1.079913     1.526738
	   47 D(1,2,3,9)      =   -178.928735     0.000008     0.873420  -178.055315
	   48 D(1,6,5,4)      =      0.446822     0.000013     1.395386     1.842208
	   49 D(1,6,5,11)     =   -178.928737     0.000001     0.088198  -178.840539
	   50 *D(1,7,13,17)   =    -80.000030     0.000000    -0.000000   -80.000030
	   51 D(1,7,13,18)    =     95.507045    -0.000018    -1.767807    93.739238
	   52 D(1,7,14,15)    =   -173.730230    -0.000016    -1.287593  -175.017822
	   53 D(1,7,14,16)    =     10.762681    -0.000055    -5.329906     5.432775
	   54 D(2,1,6,5)      =     -0.223802    -0.000010    -1.194505    -1.418307
	   55 D(2,1,6,12)     =   -177.126283    -0.000023    -2.587502  -179.713784
	   56 D(2,1,7,13)     =   -143.535494    -0.000051    -8.739309  -152.274803
	   57 D(2,1,7,14)     =     36.464506    -0.000073   -11.149777    25.314729
	   58 D(2,3,4,5)      =     -0.225875    -0.000008    -0.888032    -1.113908
	   59 D(2,3,4,10)     =    179.774125    -0.000002    -0.158893   179.615232
	   60 D(3,2,1,6)      =     -0.223806    -0.000001    -0.049784    -0.273590
	   61 D(3,2,1,7)      =    179.776196    -0.000009    -1.027691   178.748505
	   62 D(3,4,5,6)      =     -0.225874    -0.000004    -0.368017    -0.593892
	   63 D(3,4,5,11)     =    179.146646     0.000008     0.947098   180.093744
	   64 D(4,3,2,8)      =    177.373058     0.000002     0.220926   177.593983
	   65 D(4,5,6,12)     =    177.373055     0.000025     2.778954   180.152009
	   66 D(5,4,3,9)      =    179.146646    -0.000006    -0.680731   178.465916
	   67 D(5,6,1,7)      =    179.776197    -0.000002    -0.227080   179.549118
	   68 D(6,1,2,8)      =   -177.126287     0.000007     0.824346  -176.301941
	   69 D(6,1,7,13)     =     36.464508    -0.000060    -9.711158    26.753350
	   70 D(6,1,7,14)     =   -143.535492    -0.000081   -12.121625  -155.657118
	   71 D(6,5,4,10)     =    179.774126    -0.000010    -1.096948   178.677178
	   72 D(7,1,2,8)      =      2.873714    -0.000001    -0.153561     2.720154
	   73 D(7,1,6,12)     =      2.873716    -0.000015    -1.620076     1.253640
	   74 D(8,2,3,9)      =     -2.002503     0.000000     0.014433    -1.988070
	   75 D(9,3,4,10)     =     -0.853354     0.000000     0.048409    -0.804945
	   76 D(10,4,5,11)    =     -0.853354     0.000002     0.218167    -0.635186
	   77 D(11,5,6,12)    =     -2.002504     0.000013     1.471766    -0.530738
	   78 D(13,7,14,15)   =      6.269770    -0.000038    -3.584434     2.685336
	   79 D(13,7,14,16)   =   -169.237319    -0.000077    -7.626748  -176.864067
	   80 D(14,7,13,17)   =     99.999970     0.000022     2.414545   102.414515
	   81 D(14,7,13,18)   =    -84.492955     0.000004     0.646738   -83.846217
	 ---------------------------------------------------------------------------
	Successfully symmetrized geometry.

  ==> Convergence Check <==

  Measures of convergence in internal coordinates in au.
  Criteria marked as inactive (o), active & met (*), and active & unmet ( ).
  --------------------------------------------------------------------------------------------- ~
   Step     Total Energy     Delta E     MAX Force     RMS Force      MAX Disp      RMS Disp    ~
  --------------------------------------------------------------------------------------------- ~
    Convergence Criteria    1.00e-06 *    3.00e-04 *             o    1.20e-03 *             o  ~
  --------------------------------------------------------------------------------------------- ~
      1    -381.42474863   -3.81e+02      5.29e-02      6.72e-03 o    2.12e-01      4.96e-02 o  ~
  ---------------------------------------------------------------------------------------------

	Writing optimization data to binary file.
	Structure for next step:
	Cartesian Geometry (in Angstrom)
	    C     0.0240458493  -0.0054156944  -0.1706271867
	    C     0.1419305609   1.2176069809   0.5328747439
	    C     0.1197024485   1.2184371129   1.9227342458
	    C     0.0131572481   0.0072870788   2.6192576043
	    C    -0.0950040827  -1.2082755311   1.9280485587
	    C    -0.1098164099  -1.2204786827   0.5392776401
	    C     0.0179880630  -0.0230332901  -1.6326762904
	    H     0.1851399336   2.1630517775  -0.0044091598
	    H     0.1781953927   2.1589385192   2.4632413337
	    H     0.0023610883   0.0106360312   3.7049892301
	    H    -0.1789327505  -2.1448802153   2.4744850359
	    H    -0.1965598042  -2.1677424851   0.0070001483
	    N    -0.6174849388  -1.0009342579  -2.3735149872
	    N     0.6118548869   0.9730770505  -2.2764982146
	    H     0.5597190635   1.0296686016  -3.2907828785
	    H     1.1453182731   1.7106865703  -1.7804102213
	    H    -0.1839489394  -1.9061446035  -2.5227746400
	    H    -1.5656788825  -0.8881639627  -2.7117299623
			--------------------------
			 OPTKING Finished Execution 
			--------------------------

    Structure for next step:
    Molecular point group: c1
    Full point group: C1

    Geometry (in Angstrom), charge = 1, multiplicity = 1:

    C            0.024045849343    -0.005415694425    -0.170627186697
    C            0.141930560860     1.217606980948     0.532874743895
    C            0.119702448497     1.218437112850     1.922734245787
    C            0.013157248075     0.007287078812     2.619257604293
    C           -0.095004082711    -1.208275531090     1.928048558745
    C           -0.109816409950    -1.220478682674     0.539277640148
    C            0.017988063019    -0.023033290145    -1.632676290403
    H            0.185139933633     2.163051777451    -0.004409159814
    H            0.178195392697     2.158938519227     2.463241333677
    H            0.002361088333     0.010636031239     3.704989230072
    H           -0.178932750484    -2.144880215331     2.474485035889
    H           -0.196559804155    -2.167742485098     0.007000148265
    N           -0.617484938817    -1.000934257910    -2.373514987207
    N            0.611854886947     0.973077050512    -2.276498214555
    H            0.559719063520     1.029668601612    -3.290782878470
    H            1.145318273096     1.710686570280    -1.780410221327
    H           -0.183948939378    -1.906144603512    -2.522774639968
    H           -1.565678882527    -0.888163962745    -2.711729962330

gradient() will perform analytic gradient computation.

*** tstart() called on rosa.prib.upf.edu
*** at Sat Sep 29 20:25:30 2018

   => Loading Basis Set <=

    Name: 6-31G*
    Role: ORBITAL
    Keyword: BASIS
    atoms 1-7         entry C          line   111 file /shared/joao/test_parameterize/miniconda3/share/psi4/basis/6-31gs.gbs 
    atoms 8-12, 15-18 entry H          line    44 file /shared/joao/test_parameterize/miniconda3/share/psi4/basis/6-31gs.gbs 
    atoms 13-14       entry N          line   128 file /shared/joao/test_parameterize/miniconda3/share/psi4/basis/6-31gs.gbs 


         ---------------------------------------------------------
                                   SCF
            by Justin Turney, Rob Parrish, Andy Simmonett
                             and Daniel Smith
                              RKS Reference
                        4 Threads,   2861 MiB Core
         ---------------------------------------------------------

  ==> Geometry <==

    Molecular point group: c1
    Full point group: C1

    Geometry (in Angstrom), charge = 1, multiplicity = 1:

       Center              X                  Y                   Z               Mass       
    ------------   -----------------  -----------------  -----------------  -----------------
         C            0.024045849343    -0.005415694425    -0.170627186697    12.000000000000
         C            0.141930560860     1.217606980948     0.532874743895    12.000000000000
         C            0.119702448497     1.218437112850     1.922734245787    12.000000000000
         C            0.013157248075     0.007287078812     2.619257604293    12.000000000000
         C           -0.095004082711    -1.208275531090     1.928048558745    12.000000000000
         C           -0.109816409950    -1.220478682674     0.539277640148    12.000000000000
         C            0.017988063019    -0.023033290145    -1.632676290403    12.000000000000
         H            0.185139933633     2.163051777451    -0.004409159814     1.007825032070
         H            0.178195392697     2.158938519227     2.463241333677     1.007825032070
         H            0.002361088333     0.010636031239     3.704989230072     1.007825032070
         H           -0.178932750484    -2.144880215331     2.474485035889     1.007825032070
         H           -0.196559804155    -2.167742485098     0.007000148265     1.007825032070
         N           -0.617484938817    -1.000934257910    -2.373514987207    14.003074004780
         N            0.611854886947     0.973077050512    -2.276498214555    14.003074004780
         H            0.559719063520     1.029668601612    -3.290782878470     1.007825032070
         H            1.145318273096     1.710686570280    -1.780410221327     1.007825032070
         H           -0.183948939378    -1.906144603512    -2.522774639968     1.007825032070
         H           -1.565678882527    -0.888163962745    -2.711729962330     1.007825032070

  Running in c1 symmetry.

  Rotational constants: A =      0.11954  B =      0.03975  C =      0.03070 [cm^-1]
  Rotational constants: A =   3583.62811  B =   1191.54291  C =    920.34629 [MHz]
  Nuclear repulsion =  414.834492185709905

  Charge       = 1
  Multiplicity = 1
  Electrons    = 64
  Nalpha       = 32
  Nbeta        = 32

  ==> Algorithm <==

  SCF Algorithm Type is DF.
  DIIS enabled.
  MOM disabled.
  Fractional occupation disabled.
  Guess Type is READ.
  Energy threshold   = 1.00e-08
  Density threshold  = 1.00e-08
  Integral threshold = 0.00e+00

  ==> Primary Basis <==

  Basis Set: 6-31G*
    Blend: 6-31G*
    Number of shells: 72
    Number of basis function: 153
    Number of Cartesian functions: 153
    Spherical Harmonics?: false
    Max angular momentum: 2

  ==> DFT Potential <==

   => Composite Functional: B3LYP-D3ZERO <= 

    B3LYP-d3zero Hyb-GGA Exchange-Correlation Functional

    P. J. Stephens, F. J. Devlin, C. F. Chabalowski, and M. J. Frisch, J. Phys. Chem. 98, 11623 (1994)

    Deriv               =              1
    GGA                 =           TRUE
    Meta                =          FALSE

    Exchange Hybrid     =           TRUE
    MP2 Hybrid          =          FALSE

   => Exchange Functionals <=

    0.0800   Slater exchange
    0.7200         Becke 88

   => Exact (HF) Exchange <=

    0.2000               HF 

   => Correlation Functionals <=

    0.1900   Vosko, Wilk & Nusair (VWN5_RPA)
    0.8100   Lee, Yang & Parr

   => Molecular Quadrature <=

    Radial Scheme       =       TREUTLER
    Pruning Scheme      =           FLAT
    Nuclear Scheme      =       TREUTLER

    BS radius alpha     =              1
    Pruning alpha       =              1
    Radial Points       =             75
    Spherical Points    =            302
    Total Points        =         396952
    Total Blocks        =           3012
    Max Points          =            256
    Max Functions       =            149

   => -D3ZERO: Empirical Dispersion <=

    Grimme's -D3 (zero-damping) Dispersion Correction
    Grimme S.; Antony J.; Ehrlich S.; Krieg H. (2010), J. Chem. Phys., 132: 154104

        S6 =   1.000000E+00
        S8 =   1.703000E+00
       SR6 =   1.261000E+00
       SR8 =   1.000000E+00
    ALPHA6 =   1.400000E+01

   => Loading Basis Set <=

    Name: (6-31G* AUX)
    Role: JKFIT
    Keyword: DF_BASIS_SCF
    atoms 1-7         entry C          line   121 file /shared/joao/test_parameterize/miniconda3/share/psi4/basis/cc-pvdz-jkfit.gbs 
    atoms 8-12, 15-18 entry H          line    51 file /shared/joao/test_parameterize/miniconda3/share/psi4/basis/cc-pvdz-jkfit.gbs 
    atoms 13-14       entry N          line   171 file /shared/joao/test_parameterize/miniconda3/share/psi4/basis/cc-pvdz-jkfit.gbs 

  Reading orbitals from file 180, no projection.

  ==> Pre-Iterations <==

   -------------------------------------------------------
    Irrep   Nso     Nmo     Nalpha   Nbeta   Ndocc  Nsocc
   -------------------------------------------------------
     A        153     153       0       0       0       0
   -------------------------------------------------------
    Total     153     153      32      32      32       0
   -------------------------------------------------------

  ==> Integral Setup <==

  ==> DiskDFJK: Density-Fitted J/K Matrices <==

    J tasked:                  Yes
    K tasked:                  Yes
    wK tasked:                  No
    OpenMP threads:              4
    Integrals threads:           4
    Memory (MB):              2002
    Algorithm:                Core
    Integral Cache:           NONE
    Schwarz Cutoff:          1E-12
    Fitting Condition:       1E-12

   => Auxiliary Basis Set <=

  Basis Set: (6-31G* AUX)
    Blend: CC-PVDZ-JKFIT
    Number of shells: 297
    Number of basis function: 954
    Number of Cartesian functions: 954
    Spherical Harmonics?: false
    Max angular momentum: 3

  Minimum eigenvalue in the overlap matrix is 4.9579719797E-04.
  Using Symmetric Orthogonalization.

  SCF Guess: Orbitals guess was supplied from a previous computation.

  ==> Iterations <==

                           Total Energy        Delta E     RMS |[F,P]|

   @DF-RKS iter   0:  -381.34553753228903   -3.81346e+02   3.99025e-03 
   @DF-RKS iter   1:  -381.42914716130491   -8.36096e-02   6.61896e-04 
   @DF-RKS iter   2:  -381.42743004290992    1.71712e-03   7.16185e-04 DIIS
   @DF-RKS iter   3:  -381.43078015928319   -3.35012e-03   1.14838e-04 DIIS
   @DF-RKS iter   4:  -381.43084532908529   -6.51698e-05   5.22994e-05 DIIS
   @DF-RKS iter   5:  -381.43086219344764   -1.68644e-05   1.80595e-05 DIIS
   @DF-RKS iter   6:  -381.43086418485763   -1.99141e-06   5.39084e-06 DIIS
   @DF-RKS iter   7:  -381.43086434322322   -1.58366e-07   2.98259e-06 DIIS
   @DF-RKS iter   8:  -381.43086436721057   -2.39874e-08   6.29236e-07 DIIS
   @DF-RKS iter   9:  -381.43086436823796   -1.02739e-09   2.37764e-07 DIIS
   @DF-RKS iter  10:  -381.43086436841696   -1.79000e-10   6.04369e-08 DIIS
   @DF-RKS iter  11:  -381.43086436844311   -2.61480e-11   2.78058e-08 DIIS
   @DF-RKS iter  12:  -381.43086436844868   -5.57066e-12   1.07798e-08 DIIS
   @DF-RKS iter  13:  -381.43086436844897   -2.84217e-13   2.86636e-09 DIIS

  ==> Post-Iterations <==

    Orbital Energies [Eh]
    ---------------------

    Doubly Occupied:                                                      

       1A    -14.587822     2A    -14.512213     3A    -10.503224  
       4A    -10.375896     5A    -10.365561     6A    -10.361322  
       7A    -10.353413     8A    -10.347795     9A    -10.345320  
      10A     -1.170792    11A     -1.063361    12A     -1.017166  
      13A     -0.927392    14A     -0.907685    15A     -0.840887  
      16A     -0.777730    17A     -0.769505    18A     -0.736489  
      19A     -0.710224    20A     -0.697036    21A     -0.668159  
      22A     -0.632916    23A     -0.606956    24A     -0.586938  
      25A     -0.581728    26A     -0.562082    27A     -0.518106  
      28A     -0.512525    29A     -0.502942    30A     -0.435200  
      31A     -0.414195    32A     -0.410626  

    Virtual:                                                              

      33A     -0.256549    34A     -0.159432    35A     -0.141675  
      36A     -0.104116    37A     -0.074605    38A     -0.056001  
      39A     -0.037395    40A     -0.008338    41A      0.005146  
      42A      0.015825    43A      0.023466    44A      0.057579  
      45A      0.061964    46A      0.086685    47A      0.120541  
      48A      0.122949    49A      0.151428    50A      0.170644  
      51A      0.211874    52A      0.230391    53A      0.296309  
      54A      0.348556    55A      0.368788    56A      0.376374  
      57A      0.390754    58A      0.401153    59A      0.413858  
      60A      0.418703    61A      0.433653    62A      0.444339  
      63A      0.453602    64A      0.466623    65A      0.468561  
      66A      0.479719    67A      0.482842    68A      0.497564  
      69A      0.532590    70A      0.548066    71A      0.557273  
      72A      0.581713    73A      0.615929    74A      0.638842  
      75A      0.671210    76A      0.684582    77A      0.695693  
      78A      0.697034    79A      0.714408    80A      0.720483  
      81A      0.742547    82A      0.754656    83A      0.770446  
      84A      0.789126    85A      0.818025    86A      0.833924  
      87A      0.849485    88A      0.889909    89A      0.945318  
      90A      0.968770    91A      0.999686    92A      1.020698  
      93A      1.065045    94A      1.086692    95A      1.126918  
      96A      1.154758    97A      1.236388    98A      1.268059  
      99A      1.281126   100A      1.296204   101A      1.324157  
     102A      1.334787   103A      1.353036   104A      1.379492  
     105A      1.417546   106A      1.453586   107A      1.530216  
     108A      1.560719   109A      1.613889   110A      1.642582  
     111A      1.703464   112A      1.723460   113A      1.743472  
     114A      1.773674   115A      1.792990   116A      1.813951  
     117A      1.887920   118A      1.942908   119A      1.960786  
     120A      1.971797   121A      1.992676   122A      2.000165  
     123A      2.023565   124A      2.067449   125A      2.105224  
     126A      2.124735   127A      2.147083   128A      2.182595  
     129A      2.200328   130A      2.289545   131A      2.349552  
     132A      2.419621   133A      2.438686   134A      2.454179  
     135A      2.472396   136A      2.497521   137A      2.535833  
     138A      2.581737   139A      2.589418   140A      2.618545  
     141A      2.729653   142A      2.804738   143A      2.983620  
     144A      3.242707   145A      3.611218   146A      3.690889  
     147A      3.900851   148A      3.937419   149A      3.958319  
     150A      4.033963   151A      4.164263   152A      4.247686  
     153A      4.538452  

    Final Occupation by Irrep:
              A 
    DOCC [    32 ]

  Energy converged.

  @DF-RKS Final Energy:  -381.43086436844897

   => Energetics <=

    Nuclear Repulsion Energy =            414.8344921857099052
    One-Electron Energy =               -1325.0002021793418407
    Two-Electron Energy =                 573.1180691387838806
    DFT Exchange-Correlation Energy =     -44.3715196236009888
    Empirical Dispersion Energy =          -0.0117038900000000
    VV10 Nonlocal Energy =                  0.0000000000000000
    Total Energy =                       -381.4308643684490221



Properties will be evaluated at   0.000000,   0.000000,   0.000000 [a0]

Properties computed using the SCF density matrix

  Nuclear Dipole Moment: [e a0]
     X:     1.0927      Y:    -0.5899      Z:     0.4211

  Electronic Dipole Moment: [e a0]
     X:    -0.9018      Y:     0.8890      Z:    -2.2111

  Dipole Moment: [e a0]
     X:     0.1909      Y:     0.2991      Z:    -1.7900     Total:     1.8248

  Dipole Moment: [D]
     X:     0.4851      Y:     0.7602      Z:    -4.5498     Total:     4.6383


*** tstop() called on rosa.prib.upf.edu at Sat Sep 29 20:26:02 2018
Module time:
	user time   =      96.58 seconds =       1.61 minutes
	system time =       0.84 seconds =       0.01 minutes
	total time  =         32 seconds =       0.53 minutes
Total time:
	user time   =     246.99 seconds =       4.12 minutes
	system time =       2.65 seconds =       0.04 minutes
	total time  =         84 seconds =       1.40 minutes

*** tstart() called on rosa.prib.upf.edu
*** at Sat Sep 29 20:26:02 2018


         ------------------------------------------------------------
                                   SCF GRAD                          
                          Rob Parrish, Justin Turney,                
                       Andy Simmonett, and Alex Sokolov              
         ------------------------------------------------------------

  ==> Geometry <==

    Molecular point group: c1
    Full point group: C1

    Geometry (in Angstrom), charge = 1, multiplicity = 1:

       Center              X                  Y                   Z               Mass       
    ------------   -----------------  -----------------  -----------------  -----------------
         C            0.024045849343    -0.005415694425    -0.170627186697    12.000000000000
         C            0.141930560860     1.217606980948     0.532874743895    12.000000000000
         C            0.119702448497     1.218437112850     1.922734245787    12.000000000000
         C            0.013157248075     0.007287078812     2.619257604293    12.000000000000
         C           -0.095004082711    -1.208275531090     1.928048558745    12.000000000000
         C           -0.109816409950    -1.220478682674     0.539277640148    12.000000000000
         C            0.017988063019    -0.023033290145    -1.632676290403    12.000000000000
         H            0.185139933633     2.163051777451    -0.004409159814     1.007825032070
         H            0.178195392697     2.158938519227     2.463241333677     1.007825032070
         H            0.002361088333     0.010636031239     3.704989230072     1.007825032070
         H           -0.178932750484    -2.144880215331     2.474485035889     1.007825032070
         H           -0.196559804155    -2.167742485098     0.007000148265     1.007825032070
         N           -0.617484938817    -1.000934257910    -2.373514987207    14.003074004780
         N            0.611854886947     0.973077050512    -2.276498214555    14.003074004780
         H            0.559719063520     1.029668601612    -3.290782878470     1.007825032070
         H            1.145318273096     1.710686570280    -1.780410221327     1.007825032070
         H           -0.183948939378    -1.906144603512    -2.522774639968     1.007825032070
         H           -1.565678882527    -0.888163962745    -2.711729962330     1.007825032070

  Nuclear repulsion =  414.834492185709905

  ==> Basis Set <==

  Basis Set: 6-31G*
    Blend: 6-31G*
    Number of shells: 72
    Number of basis function: 153
    Number of Cartesian functions: 153
    Spherical Harmonics?: false
    Max angular momentum: 2

  ==> DFJKGrad: Density-Fitted SCF Gradients <==

    Gradient:                    1
    J tasked:                  Yes
    K tasked:                  Yes
    wK tasked:                  No
    OpenMP threads:              4
    Integrals threads:           4
    Memory (MB):              2002
    Schwarz Cutoff:          0E+00
    Fitting Condition:       1E-12

   => Auxiliary Basis Set <=

  Basis Set: (6-31G* AUX)
    Blend: CC-PVDZ-JKFIT
    Number of shells: 297
    Number of basis function: 954
    Number of Cartesian functions: 954
    Spherical Harmonics?: false
    Max angular momentum: 3

  ==> DFT Potential <==

   => Composite Functional: B3LYP-D3ZERO <= 

    B3LYP-d3zero Hyb-GGA Exchange-Correlation Functional

    P. J. Stephens, F. J. Devlin, C. F. Chabalowski, and M. J. Frisch, J. Phys. Chem. 98, 11623 (1994)

    Deriv               =              1
    GGA                 =           TRUE
    Meta                =          FALSE

    Exchange Hybrid     =           TRUE
    MP2 Hybrid          =          FALSE

   => Exchange Functionals <=

    0.0800   Slater exchange
    0.7200         Becke 88

   => Exact (HF) Exchange <=

    0.2000               HF 

   => Correlation Functionals <=

    0.1900   Vosko, Wilk & Nusair (VWN5_RPA)
    0.8100   Lee, Yang & Parr

   => Molecular Quadrature <=

    Radial Scheme       =       TREUTLER
    Pruning Scheme      =           FLAT
    Nuclear Scheme      =       TREUTLER

    BS radius alpha     =              1
    Pruning alpha       =              1
    Radial Points       =             75
    Spherical Points    =            302
    Total Points        =         396952
    Total Blocks        =           3012
    Max Points          =            256
    Max Functions       =            149


  -Total Gradient:
     Atom            X                  Y                   Z
    ------   -----------------  -----------------  -----------------
       1       -0.000731646466     0.003885744588     0.006566098483
       2       -0.000854137991     0.002071824672    -0.002898180874
       3       -0.000775967723    -0.000823612627     0.002147966082
       4        0.000275054505     0.002054685745     0.001057400486
       5       -0.000030157693    -0.000089852455    -0.001560416169
       6        0.001165391366     0.000600591255     0.000703482942
       7       -0.002925095546    -0.013460018039    -0.010820946601
       8        0.000824747161     0.000561484657    -0.002274164169
       9        0.000172491835     0.000898488895     0.000167820613
      10        0.000031149676    -0.000071609331     0.000011687076
      11       -0.000312882852    -0.001816057629     0.000330058201
      12        0.000868986523    -0.004123190789    -0.000602261624
      13       -0.005721897862     0.004597406604     0.009652268719
      14       -0.001480022458    -0.003339234712    -0.004322264472
      15       -0.000336344926     0.001550032703    -0.000837109723
      16        0.009665913722     0.012449587499     0.008828141695
      17        0.002346019036    -0.002764265567    -0.003855527228
      18       -0.002189668397    -0.002183559096    -0.002297787033


*** tstop() called on rosa.prib.upf.edu at Sat Sep 29 20:26:12 2018
Module time:
	user time   =      29.99 seconds =       0.50 minutes
	system time =       0.43 seconds =       0.01 minutes
	total time  =         10 seconds =       0.17 minutes
Total time:
	user time   =     277.02 seconds =       4.62 minutes
	system time =       3.09 seconds =       0.05 minutes
	total time  =         94 seconds =       1.57 minutes

			-----------------------------------------
			 OPTKING 2.0: for geometry optimizations 
			  - R.A. King,  Bethel University        
			-----------------------------------------
	At level 1: Red. Int., RFO, no backsteps, dynamic trust

	Previous internal coordinate definitions found.
	---Fragment 1 Geometry and Gradient---
	 C           0.0454400699       -0.0102341793       -0.3224386537
	 C           0.2682098899        2.3009437315        1.0069873291
	 C           0.2262048451        2.3025124534        3.6334411509
	 C           0.0248635955        0.0137705833        4.9496795436
	 C          -0.1795316978       -2.2833098468        3.6434837469
	 C          -0.2075229397       -2.3063704613        1.0190870495
	 C           0.0339925128       -0.0435266103       -3.0853110525
	 H           0.3498637708        4.0875754706       -0.0083321045
	 H           0.3367404903        4.0798025391        4.6548515199
	 H           0.0044618103        0.0200991862        7.0014149701
	 H          -0.3381338946       -4.0532361948        4.6760990378
	 H          -0.3714441986       -4.0964396235        0.0132283631
	 N          -1.1668774255       -1.8914916245       -4.4852932981
	 N           1.1562381694        1.8388491317       -4.3019581675
	 H           1.0577157414        1.9457916647       -6.2186784031
	 H           2.1643378711        3.2327291170       -3.3644877225
	 H          -0.3476131179       -3.6020912703       -4.7673531645
	 H          -2.9587043000       -1.6783866507       -5.1244269751
	            -0.0007316465        0.0038857446        0.0065660985
	            -0.0008541380        0.0020718247       -0.0028981809
	            -0.0007759677       -0.0008236126        0.0021479661
	             0.0002750545        0.0020546857        0.0010574005
	            -0.0000301577       -0.0000898525       -0.0015604162
	             0.0011653914        0.0006005913        0.0007034829
	            -0.0029250955       -0.0134600180       -0.0108209466
	             0.0008247472        0.0005614847       -0.0022741642
	             0.0001724918        0.0008984889        0.0001678206
	             0.0000311497       -0.0000716093        0.0000116871
	            -0.0003128829       -0.0018160576        0.0003300582
	             0.0008689865       -0.0041231908       -0.0006022616
	            -0.0057218979        0.0045974066        0.0096522687
	            -0.0014800225       -0.0033392347       -0.0043222645
	            -0.0003363449        0.0015500327       -0.0008371097
	             0.0096659137        0.0124495875        0.0088281417
	             0.0023460190       -0.0027642656       -0.0038555272
	            -0.0021896684       -0.0021835591       -0.0022977870

	---Fragment 1 Intrafragment Coordinates---
	 - Coordinate -           - BOHR/RAD -       - ANG/DEG -
	 R(1,2)           =         2.675545	       1.415838
	 R(1,6)           =         2.671315	       1.413599
	 R(1,7)           =         2.763097	       1.462168
	 R(2,3)           =         2.626790	       1.390037
	 R(2,8)           =         2.056598	       1.088305
	 R(3,4)           =         2.647897	       1.401207
	 R(3,9)           =         2.052866	       1.086330
	 R(4,5)           =         2.650378	       1.402520
	 R(4,10)          =         2.051847	       1.085790
	 R(5,6)           =         2.624647	       1.388904
	 R(5,11)          =         2.055259	       1.087596
	 R(6,12)          =         2.059847	       1.090024
	 R(7,13)          =         2.610941	       1.381651
	 R(7,14)          =         2.506592	       1.326431
	 R(13,17)         =         1.917525	       1.014711
	 R(13,18)         =         1.914301	       1.013005
	 R(14,15)         =         1.922228	       1.017199
	 R(14,16)         =         1.959086	       1.036704
	 B(1,2,3)         =         2.089784	     119.735791
	 B(1,2,8)         =         2.104152	     120.559011
	 B(1,6,5)         =         2.087005	     119.576601
	 B(1,6,12)        =         2.105146	     120.616008
	 B(1,7,13)        =         2.149081	     123.133270
	 B(1,7,14)        =         2.065120	     118.322652
	 B(2,1,6)         =         2.095375	     120.056118
	 B(2,1,7)         =         2.103185	     120.503638
	 B(2,3,4)         =         2.091769	     119.849548
	 B(2,3,9)         =         2.091102	     119.811343
	 B(3,2,8)         =         2.087184	     119.586816
	 B(3,4,5)         =         2.106009	     120.665428
	 B(3,4,10)        =         2.088805	     119.679724
	 B(4,3,9)         =         2.100290	     120.337780
	 B(4,5,6)         =         2.095809	     120.081023
	 B(4,5,11)        =         2.099847	     120.312352
	 B(5,4,10)        =         2.088301	     119.650858
	 B(5,6,12)        =         2.090652	     119.785525
	 B(6,1,7)         =         2.084501	     119.433099
	 B(6,5,11)        =         2.087468	     119.603080
	 B(7,13,17)       =         2.110361	     120.914800
	 B(7,13,18)       =         2.130272	     122.055602
	 B(7,14,15)       =         2.097655	     120.186798
	 B(7,14,16)       =         2.132266	     122.169849
	 B(13,7,14)       =         2.068242	     118.501544
	 B(15,14,16)      =         2.053238	     117.641889
	 B(17,13,18)      =         2.037689	     116.751004
	 D(1,2,3,4)       =         0.026647	       1.526738
	 D(1,2,3,9)       =        -3.107652	    -178.055315
	 D(1,6,5,4)       =         0.032153	       1.842208
	 D(1,6,5,11)      =        -3.121356	    -178.840539
	*D(1,7,13,17)     =        -1.396264	     -80.000030
	 D(1,7,13,18)     =         1.636058	      93.739238
	 D(1,7,14,15)     =        -3.054637	    -175.017822
	 D(1,7,14,16)     =         0.094820	       5.432775
	 D(2,1,6,5)       =        -0.024754	      -1.418307
	 D(2,1,6,12)      =        -3.136597	    -179.713784
	 D(2,1,7,13)      =        -2.657697	    -152.274803
	 D(2,1,7,14)      =         0.441825	      25.314729
	 D(2,3,4,5)       =        -0.019441	      -1.113908
	 D(2,3,4,10)      =         3.134877	     179.615232
	 D(3,2,1,6)       =        -0.004775	      -0.273590
	 D(3,2,1,7)       =         3.119750	     178.748505
	 D(3,4,5,6)       =        -0.010365	      -0.593892
	 D(3,4,5,11)      =        -3.139957	    -179.906256
	 D(4,3,2,8)       =         3.099600	     177.593983
	 D(4,5,6,12)      =        -3.138940	    -179.847991
	 D(5,4,3,9)       =         3.114818	     178.465916
	 D(5,6,1,7)       =         3.133723	     179.549118
	 D(6,1,2,8)       =        -3.077049	    -176.301941
	 D(6,1,7,13)      =         0.466934	      26.753350
	 D(6,1,7,14)      =        -2.716729	    -155.657118
	 D(6,5,4,10)      =         3.118505	     178.677178
	 D(7,1,2,8)       =         0.047476	       2.720154
	 D(7,1,6,12)      =         0.021880	       1.253640
	 D(8,2,3,9)       =        -0.034698	      -1.988070
	 D(9,3,4,10)      =        -0.014049	      -0.804945
	 D(10,4,5,11)     =        -0.011086	      -0.635186
	 D(11,5,6,12)     =        -0.009263	      -0.530738
	 D(13,7,14,15)    =         0.046868	       2.685336
	 D(13,7,14,16)    =        -3.086860	    -176.864067
	 D(14,7,13,17)    =         1.787470	     102.414515
	 D(14,7,13,18)    =        -1.463393	     -83.846217

	Current energy   :      -381.4308643684

	Energy change for the previous step:
		Projected    :        -0.0035449100
		Actual       :        -0.0061157409
	Energy ratio indicates good step: Trust radius increased to 1.000e+00.


	Performing BFGS update.
	Previous computed or guess Hessian on step 1.
	Steps to be used in Hessian update: 1
	Taking RFO optimization step.
	Going to follow RFO solution 1.
	Using RFO vector 1.
	Norm of target step-size    0.35455
	Projected energy change by RFO approximation:        -0.0038630246

	Back-transformation to cartesian coordinates...
	Could not converge backtransformation.
	Using first guess instead.

	Back-transformation to cartesian coordinates to adjust frozen coordinates...
	Successfully converged to displaced geometry.

	--- Internal Coordinate Step in ANG or DEG, aJ/ANG or AJ/DEG ---
	 ---------------------------------------------------------------------------
	   Coordinate                Previous        Force       Change         New 
	   ----------                --------       ------       ------       ------
	    1 R(1,2)          =      1.415838     0.000934     0.003336     1.419174
	    2 R(1,6)          =      1.413599    -0.016452     0.001378     1.414977
	    3 R(1,7)          =      1.462168    -0.030418    -0.006131     1.456036
	    4 R(2,3)          =      1.390037    -0.017213    -0.002287     1.387751
	    5 R(2,8)          =      1.088305    -0.013541    -0.000859     1.087446
	    6 R(3,4)          =      1.401207    -0.006175     0.001414     1.402621
	    7 R(3,9)          =      1.086330    -0.007177     0.000214     1.086544
	    8 R(4,5)          =      1.402520    -0.026819    -0.000411     1.402109
	    9 R(4,10)         =      1.085790    -0.000093     0.000174     1.085964
	   10 R(5,6)          =      1.388904    -0.000692    -0.000164     1.388739
	   11 R(5,11)         =      1.087596    -0.014447    -0.000243     1.087353
	   12 R(6,12)         =      1.090024    -0.031370    -0.001102     1.088922
	   13 R(7,13)         =      1.381651    -0.007679     0.013825     1.395475
	   14 R(7,14)         =      1.326431    -0.080230    -0.002878     1.323553
	   15 R(13,17)        =      1.014711    -0.033251     0.000705     1.015416
	   16 R(13,18)        =      1.013005    -0.021202     0.000678     1.013682
	   17 R(14,15)        =      1.017199    -0.007731     0.004137     1.021336
	   18 R(14,16)        =      1.036704    -0.148755    -0.006287     1.030416
	   19 B(1,2,3)        =    119.735791     0.000071     0.228056   119.963848
	   20 B(1,2,8)        =    120.559011     0.000094     0.537275   121.096286
	   21 B(1,6,5)        =    119.576601     0.000153     0.401585   119.978185
	   22 B(1,6,12)       =    120.616008    -0.000188    -0.592697   120.023311
	   23 B(1,7,13)       =    123.133270    -0.000219    -0.197604   122.935665
	   24 B(1,7,14)       =    118.322652     0.001125     2.950806   121.273458
	   25 B(2,1,6)        =    120.056118    -0.000198    -0.532375   119.523743
	   26 B(2,1,7)        =    120.503638     0.000544     1.669959   122.173597
	   27 B(2,3,4)        =    119.849548     0.000043     0.048368   119.897917
	   28 B(2,3,9)        =    119.811343     0.000003     0.036670   119.848013
	   29 B(3,2,8)        =    119.586816    -0.000165    -0.779840   118.806975
	   30 B(3,4,5)        =    120.665428    -0.000040    -0.025768   120.639660
	   31 B(3,4,10)       =    119.679724     0.000014    -0.009981   119.669743
	   32 B(4,3,9)        =    120.337780    -0.000046    -0.090109   120.247671
	   33 B(4,5,6)        =    120.081023    -0.000030    -0.151314   119.929709
	   34 B(4,5,11)       =    120.312352    -0.000035    -0.044066   120.268286
	   35 B(5,4,10)       =    119.650858     0.000025     0.025536   119.676394
	   36 B(5,6,12)       =    119.785525     0.000036     0.208917   119.994442
	   37 B(6,1,7)        =    119.433099    -0.000346    -1.147970   118.285129
	   38 B(6,5,11)       =    119.603080     0.000065     0.191159   119.794239
	   39 B(7,13,17)      =    120.914800     0.000039     0.286060   121.200860
	   40 B(7,13,18)      =    122.055602    -0.000229    -1.199659   120.855943
	   41 B(7,14,15)      =    120.186798    -0.000120    -1.346853   118.839945
	   42 B(7,14,16)      =    122.169849     0.000079     1.020797   123.190646
	   43 B(13,7,14)      =    118.501544    -0.000905    -2.742797   115.758747
	   44 B(15,14,16)     =    117.641889     0.000040     0.323702   117.965591
	   45 B(17,13,18)     =    116.751004     0.000188     0.862332   117.613335
	   46 D(1,2,3,4)      =      1.526738    -0.000005    -0.578091     0.948647
	   47 D(1,2,3,9)      =   -178.055315    -0.000001    -0.078124  -178.133439
	   48 D(1,6,5,4)      =      1.842208     0.000002     0.559308     2.401515
	   49 D(1,6,5,11)     =   -178.840539     0.000002     0.231141  -178.609398
	   50 *D(1,7,13,17)   =    -80.000030    -0.000000    -0.000000   -80.000030
	   51 D(1,7,13,18)    =     93.739238    -0.000000    -0.491881    93.247357
	   52 D(1,7,14,15)    =   -175.017822    -0.000017    -2.142835  -177.160657
	   53 D(1,7,14,16)    =      5.432775    -0.000009    -1.867353     3.565421
	   54 D(2,1,6,5)      =     -1.418307    -0.000008    -1.475916    -2.894223
	   55 D(2,1,6,12)     =   -179.713784    -0.000014    -2.447290  -182.161074
	   56 D(2,1,7,13)     =   -152.274803    -0.000031    -9.026509  -161.301312
	   57 D(2,1,7,14)     =     25.314729    -0.000031    -8.766051    16.548678
	   58 D(2,3,4,5)      =     -1.113908    -0.000001    -0.351826    -1.465734
	   59 D(2,3,4,10)     =    179.615232     0.000002     0.294356   179.909587
	   60 D(3,2,1,6)      =     -0.273590     0.000009     1.483276     1.209686
	   61 D(3,2,1,7)      =    178.748505     0.000005     0.911403   179.659908
	   62 D(3,4,5,6)      =     -0.593892     0.000003     0.368650    -0.225242
	   63 D(3,4,5,11)     =   -179.906256     0.000003     0.696774  -179.209481
	   64 D(4,3,2,8)      =    177.593983    -0.000005    -0.789354   176.804629
	   65 D(4,5,6,12)     =   -179.847991     0.000007     1.516570  -178.331420
	   66 D(5,4,3,9)      =    178.465916    -0.000005    -0.853276   177.612640
	   67 D(5,6,1,7)      =    179.549118    -0.000006    -0.953699   178.595419
	   68 D(6,1,2,8)      =   -176.301941     0.000012     1.752353  -174.549588
	   69 D(6,1,7,13)     =     26.753350    -0.000035    -9.586046    17.167304
	   70 D(6,1,7,14)     =   -155.657118    -0.000034    -9.325588  -164.982706
	   71 D(6,5,4,10)     =    178.677178    -0.000000    -0.277832   178.399346
	   72 D(7,1,2,8)      =      2.720154     0.000008     1.180481     3.900634
	   73 D(7,1,6,12)     =      1.253640    -0.000012    -1.925072    -0.671432
	   74 D(8,2,3,9)      =     -1.988070    -0.000001    -0.289386    -2.277456
	   75 D(9,3,4,10)     =     -0.804945    -0.000001    -0.207094    -1.012039
	   76 D(10,4,5,11)    =     -0.635186     0.000000     0.050293    -0.584894
	   77 D(11,5,6,12)    =     -0.530738     0.000007     1.188404     0.657666
	   78 D(13,7,14,15)   =      2.685336    -0.000014    -1.849484     0.835852
	   79 D(13,7,14,16)   =   -176.864067    -0.000006    -1.574003  -178.438070
	   80 D(14,7,13,17)   =    102.414515    -0.000011    -0.374234   102.040281
	   81 D(14,7,13,18)   =    -83.846217    -0.000011    -0.866115   -84.712332
	 ---------------------------------------------------------------------------
	Successfully symmetrized geometry.

  ==> Convergence Check <==

  Measures of convergence in internal coordinates in au.
  Criteria marked as inactive (o), active & met (*), and active & unmet ( ).
  ---------------------------------------------------------------------------------------------
   Step     Total Energy     Delta E     MAX Force     RMS Force      MAX Disp      RMS Disp   
  ---------------------------------------------------------------------------------------------
    Convergence Criteria    1.00e-06 *    3.00e-04 *             o    1.20e-03 *             o
  ---------------------------------------------------------------------------------------------
      2    -381.43086437   -6.12e-03      1.81e-02      3.52e-03 o    1.67e-01      3.93e-02 o  ~
  ---------------------------------------------------------------------------------------------

	Writing optimization data to binary file.
	Structure for next step:
	Cartesian Geometry (in Angstrom)
	    C     0.0322417052   0.0280110355  -0.1638346775
	    C     0.2102127563   1.2301188984   0.5691844073
	    C     0.1934008953   1.2048638021   1.9566035584
	    C     0.0203492605  -0.0123854155   2.6316614119
	    C    -0.1670811061  -1.2047768287   1.9182316533
	    C    -0.1870994265  -1.1856466730   0.5297686927
	    C     0.0341169358   0.0001091838  -1.6196025543
	    H     0.2927123188   2.1893047659   0.0635217865
	    H     0.2994335429   2.1305050184   2.5156409282
	    H     0.0092539442  -0.0280666074   3.7174558093
	    H    -0.3134607509  -2.1431014263   2.4478124350
	    H    -0.3596949896  -2.1066745453  -0.0249103446
	    N    -0.5014511559  -1.0553190470  -2.3589193471
	    N     0.5151533002   1.0110506305  -2.3255729527
	    H     0.4581743249   0.9715776336  -3.3445542425
	    H     0.9574045651   1.8377043089  -1.8980038497
	    H     0.0192477038  -1.9153744323  -2.5012117966
	    H    -1.4609268239  -1.0275793015  -2.6847859175
			--------------------------
			 OPTKING Finished Execution 
			--------------------------

    Structure for next step:
    Molecular point group: c1
    Full point group: C1

    Geometry (in Angstrom), charge = 1, multiplicity = 1:

    C            0.032241705244     0.028011035474    -0.163834677498
    C            0.210212756266     1.230118898438     0.569184407300
    C            0.193400895299     1.204863802074     1.956603558390
    C            0.020349260456    -0.012385415521     2.631661411859
    C           -0.167081106052    -1.204776828746     1.918231653272
    C           -0.187099426496    -1.185646673012     0.529768692744
    C            0.034116935849     0.000109183790    -1.619602554256
    H            0.292712318795     2.189304765902     0.063521786500
    H            0.299433542875     2.130505018358     2.515640928192
    H            0.009253944179    -0.028066607406     3.717455809255
    H           -0.313460750877    -2.143101426259     2.447812435015
    H           -0.359694989621    -2.106674545346    -0.024910344592
    N           -0.501451155853    -1.055319046962    -2.358919347118
    N            0.515153300155     1.011050630492    -2.325572952652
    H            0.458174324869     0.971577633590    -3.344554242547
    H            0.957404565062     1.837704308941    -1.898003849745
    H            0.019247703785    -1.915374432274    -2.501211796578
    H           -1.460926823936    -1.027579301533    -2.684785917541

gradient() will perform analytic gradient computation.

*** tstart() called on rosa.prib.upf.edu
*** at Sat Sep 29 20:26:12 2018

   => Loading Basis Set <=

    Name: 6-31G*
    Role: ORBITAL
    Keyword: BASIS
    atoms 1-7         entry C          line   111 file /shared/joao/test_parameterize/miniconda3/share/psi4/basis/6-31gs.gbs 
    atoms 8-12, 15-18 entry H          line    44 file /shared/joao/test_parameterize/miniconda3/share/psi4/basis/6-31gs.gbs 
    atoms 13-14       entry N          line   128 file /shared/joao/test_parameterize/miniconda3/share/psi4/basis/6-31gs.gbs 


         ---------------------------------------------------------
                                   SCF
            by Justin Turney, Rob Parrish, Andy Simmonett
                             and Daniel Smith
                              RKS Reference
                        4 Threads,   2861 MiB Core
[...]
	 R(1,2)           =         2.671884	       1.413900
	 R(1,6)           =         2.667895	       1.411789
	 R(1,7)           =         2.741967	       1.450987
	 R(2,3)           =         2.621661	       1.387323
	 R(2,8)           =         2.053920	       1.086888
	 R(3,4)           =         2.648147	       1.401339
	 R(3,9)           =         2.050443	       1.085048
	 R(4,5)           =         2.643065	       1.398650
	 R(4,10)          =         2.051970	       1.085856
	 R(5,6)           =         2.626469	       1.389868
	 R(5,11)          =         2.050502	       1.085079
	 R(6,12)          =         2.048772	       1.084163
	 R(7,13)          =         2.597005	       1.374276
	 R(7,14)          =         2.507372	       1.326844
	 R(13,17)         =         1.925609	       1.018988
	 R(13,18)         =         1.926933	       1.019689
	 R(14,15)         =         1.916358	       1.014093
	 R(14,16)         =         1.915958	       1.013881
	 B(1,2,3)         =         2.091845	     119.853867
	 B(1,2,8)         =         2.104553	     120.582030
	 B(1,6,5)         =         2.087841	     119.624490
	 B(1,6,12)        =         2.088324	     119.652165
	 B(1,7,13)        =         2.086239	     119.532690
	 B(1,7,14)        =         2.098897	     120.257937
	 B(2,1,6)         =         2.093221	     119.932736
	 B(2,1,7)         =         2.109466	     120.863493
	 B(2,3,4)         =         2.091979	     119.861565
	 B(2,3,9)         =         2.093828	     119.967493
	 B(3,2,8)         =         2.085587	     119.495346
	 B(3,4,5)         =         2.105289	     120.624200
	 B(3,4,10)        =         2.087857	     119.625420
	 B(4,3,9)         =         2.097235	     120.162725
	 B(4,5,6)         =         2.095862	     120.084044
	 B(4,5,11)        =         2.097055	     120.152402
	 B(5,4,10)        =         2.090024	     119.749529
	 B(5,6,12)        =         2.106115	     120.671493
	 B(6,1,7)         =         2.080495	     119.203601
	 B(6,5,11)        =         2.090230	     119.761366
	 B(7,13,17)       =         2.023647	     115.946447
	 B(7,13,18)       =         1.977628	     113.309734
	 B(7,14,15)       =         2.132033	     122.156490
	 B(7,14,16)       =         2.111246	     120.965501
	 B(13,7,14)       =         2.077932	     119.056751
	 B(15,14,16)      =         2.039398	     116.848892
	 B(17,13,18)      =         1.877596	     107.578300
	 D(1,2,3,4)       =         0.008885	       0.509063
	 D(1,2,3,9)       =         3.132309	     179.468084
	 D(1,6,5,4)       =        -0.012128	      -0.694894
	 D(1,6,5,11)      =         3.120088	     178.767874
	*D(1,7,13,17)     =        -1.396264	     -80.000030
	 D(1,7,13,18)     =         2.703077	     154.874897
	 D(1,7,14,15)     =         3.060120	     175.331949
	 D(1,7,14,16)     =        -0.116816	      -6.693051
	 D(2,1,6,5)       =         0.027753	       1.590119
	 D(2,1,6,12)      =         3.123953	     178.989298
	 D(2,1,7,13)      =         2.805831	     160.762285
	 D(2,1,7,14)      =        -0.551897	     -31.621345
	 D(2,3,4,5)       =         0.006853	       0.392649
	 D(2,3,4,10)      =        -3.140612	    -179.943828
	 D(3,2,1,6)       =        -0.026174	      -1.499683
	 D(3,2,1,7)       =         3.112778	     178.349022
	 D(3,4,5,6)       =        -0.005213	      -0.298663
	 D(3,4,5,11)      =        -3.137392	    -179.759314
	 D(4,3,2,8)       =        -3.080394	    -176.493551
	 D(4,5,6,12)      =        -3.107856	    -178.067025
	 D(5,4,3,9)       =        -3.116535	    -178.564316
	 D(5,6,1,7)       =        -3.111243	    -178.261099
	 D(6,1,2,8)       =         3.062527	     175.469845
	 D(6,1,7,13)      =        -0.338383	     -19.387921
	 D(6,1,7,14)      =         2.587074	     148.228448
	 D(6,5,4,10)      =        -3.140925	    -179.961770
	 D(7,1,2,8)       =        -0.081707	      -4.681450
	 D(7,1,6,12)      =        -0.015043	      -0.861921
	 D(8,2,3,9)       =         0.043031	       2.465470
	 D(9,3,4,10)      =         0.019185	       1.099206
	 D(10,4,5,11)     =         0.010081	       0.577580
	 D(11,5,6,12)     =         0.024360	       1.395743
	 D(13,7,14,15)    =        -0.296587	     -16.993194
	 D(13,7,14,16)    =         2.809663	     160.981806
	 D(14,7,13,17)    =         1.958859	     112.234354
	 D(14,7,13,18)    =        -0.224985	     -12.890718

	Current energy   :      -381.4530063780

	Energy change for the previous step:
		Projected    :        -0.0000007851
		Actual       :        -0.0000003237

	Performing BFGS update.
	Previous computed or guess Hessian on step 1.
	Steps to be used in Hessian update: 13 12
	Taking RFO optimization step.
	Going to follow RFO solution 1.
	Rejecting RFO root 1 because normalization gives large value.
	Rejecting RFO root 2 because normalization gives large value.
	Rejecting RFO root 3 because normalization gives large value.
	Using RFO vector 4.
	Norm of target step-size    0.00138
	Projected energy change by RFO approximation:        -0.0000001544

	Back-transformation to cartesian coordinates...
	Successfully converged to displaced geometry.

	Back-transformation to cartesian coordinates to adjust frozen coordinates...
	Successfully converged to displaced geometry.

	--- Internal Coordinate Step in ANG or DEG, aJ/ANG or AJ/DEG ---
	 ---------------------------------------------------------------------------
	   Coordinate                Previous        Force       Change         New 
	   ----------                --------       ------       ------       ------
	    1 R(1,2)          =      1.413900    -0.000202    -0.000014     1.413886
	    2 R(1,6)          =      1.411789    -0.000044    -0.000032     1.411757
	    3 R(1,7)          =      1.450987    -0.000452     0.000001     1.450988
	    4 R(2,3)          =      1.387323     0.000057     0.000024     1.387347
	    5 R(2,8)          =      1.086888     0.000114    -0.000004     1.086884
	    6 R(3,4)          =      1.401339     0.000496    -0.000003     1.401336
	    7 R(3,9)          =      1.085048     0.000041    -0.000003     1.085045
	    8 R(4,5)          =      1.398650     0.000057    -0.000015     1.398634
	    9 R(4,10)         =      1.085856     0.000023     0.000002     1.085858
	   10 R(5,6)          =      1.389868     0.000130     0.000024     1.389892
	   11 R(5,11)         =      1.085079     0.000088    -0.000005     1.085074
	   12 R(6,12)         =      1.084163     0.000072    -0.000019     1.084144
	   13 R(7,13)         =      1.374276     0.000633    -0.000010     1.374266
	   14 R(7,14)         =      1.326844     0.000488    -0.000035     1.326810
	   15 R(13,17)        =      1.018988     0.001177     0.000044     1.019032
	   16 R(13,18)        =      1.019689     0.000094    -0.000031     1.019658
	   17 R(14,15)        =      1.014093     0.000237    -0.000011     1.014082
	   18 R(14,16)        =      1.013881     0.000862     0.000017     1.013898
	   19 B(1,2,3)        =    119.853867    -0.000001    -0.000908   119.852959
	   20 B(1,2,8)        =    120.582030     0.000002    -0.000567   120.581463
	   21 B(1,6,5)        =    119.624490    -0.000000    -0.002951   119.621540
	   22 B(1,6,12)       =    119.652165     0.000001     0.002062   119.654228
	   23 B(1,7,13)       =    119.532690    -0.000007    -0.001607   119.531083
	   24 B(1,7,14)       =    120.257937    -0.000002    -0.008032   120.249905
	   25 B(2,1,6)        =    119.932736     0.000002     0.003694   119.936430
	   26 B(2,1,7)        =    120.863493     0.000002    -0.002168   120.861325
	   27 B(2,3,4)        =    119.861565     0.000000    -0.001428   119.860136
	   28 B(2,3,9)        =    119.967493    -0.000000     0.001564   119.969057
	   29 B(3,2,8)        =    119.495346    -0.000001     0.000540   119.495886
	   30 B(3,4,5)        =    120.624200    -0.000000     0.000672   120.624872
	   31 B(3,4,10)       =    119.625420     0.000000     0.001141   119.626561
	   32 B(4,3,9)        =    120.162725     0.000000    -0.000123   120.162603
	   33 B(4,5,6)        =    120.084044    -0.000001     0.001263   120.085308
	   34 B(4,5,11)       =    120.152402     0.000001    -0.002669   120.149733
	   35 B(5,4,10)       =    119.749529    -0.000000    -0.001833   119.747696
	   36 B(5,6,12)       =    120.671493    -0.000001     0.001615   120.673108
	   37 B(6,1,7)        =    119.203601    -0.000004    -0.001551   119.202050
	   38 B(6,5,11)       =    119.761366     0.000000     0.001503   119.762869
	   39 B(7,13,17)      =    115.946447     0.000001     0.012555   115.959002
	   40 B(7,13,18)      =    113.309734    -0.000001     0.013448   113.323183
	   41 B(7,14,15)      =    122.156490     0.000001     0.001359   122.157850
	   42 B(7,14,16)      =    120.965501     0.000001    -0.002680   120.962821
	   43 B(13,7,14)      =    119.056751     0.000010     0.008275   119.065026
	   44 B(15,14,16)     =    116.848892    -0.000002     0.002286   116.851177
	   45 B(17,13,18)     =    107.578300    -0.000002    -0.006512   107.571788
	   46 D(1,2,3,4)      =      0.509063    -0.000000    -0.015793     0.493270
	   47 D(1,2,3,9)      =    179.468084    -0.000000    -0.014951   179.453133
	   48 D(1,6,5,4)      =     -0.694894     0.000000     0.002394    -0.692500
	   49 D(1,6,5,11)     =    178.767874     0.000000     0.014436   178.782310
	   50 *D(1,7,13,17)   =    -80.000030     0.000000    -0.000000   -80.000030
	   51 D(1,7,13,18)    =    154.874897     0.000001    -0.013806   154.861091
	   52 D(1,7,14,15)    =    175.331949    -0.000001    -0.025077   175.306871
	   53 D(1,7,14,16)    =     -6.693051    -0.000000     0.008774    -6.684277
	   54 D(2,1,6,5)      =      1.590119    -0.000000    -0.012443     1.577676
	   55 D(2,1,6,12)     =    178.989298    -0.000000     0.005878   178.995176
	   56 D(2,1,7,13)     =    160.762285    -0.000001    -0.007427   160.754858
	   57 D(2,1,7,14)     =    -31.621345     0.000001    -0.013618   -31.634963
	   58 D(2,3,4,5)      =      0.392649     0.000000     0.005690     0.398340
	   59 D(2,3,4,10)     =   -179.943828    -0.000000     0.001679  -179.942149
	   60 D(3,2,1,6)      =     -1.499683     0.000000     0.019183    -1.480501
	   61 D(3,2,1,7)      =    178.349022     0.000000     0.008390   178.357412
	   62 D(3,4,5,6)      =     -0.298663    -0.000000     0.001086    -0.297578
	   63 D(3,4,5,11)     =   -179.759314    -0.000000    -0.011026  -179.770340
	   64 D(4,3,2,8)      =   -176.493551     0.000000     0.004517  -176.489034
	   65 D(4,5,6,12)     =   -178.067025    -0.000000    -0.016128  -178.083152
	   66 D(5,4,3,9)      =   -178.564316     0.000000     0.004829  -178.559487
	   67 D(5,6,1,7)      =   -178.261099    -0.000000    -0.001829  -178.262928
	   68 D(6,1,2,8)      =    175.469845    -0.000000    -0.001318   175.468527
	   69 D(6,1,7,13)     =    -19.387921    -0.000001    -0.018133   -19.406055
	   70 D(6,1,7,14)     =    148.228448     0.000000    -0.024325   148.204124
	   71 D(6,5,4,10)     =   -179.961770     0.000000     0.005092  -179.956678
	   72 D(7,1,2,8)      =     -4.681450    -0.000000    -0.012111    -4.693560
	   73 D(7,1,6,12)     =     -0.861921    -0.000000     0.016492    -0.845428
	   74 D(8,2,3,9)      =      2.465470     0.000000     0.005359     2.470829
	   75 D(9,3,4,10)     =      1.099206    -0.000000     0.000818     1.100025
	   76 D(10,4,5,11)    =      0.577580    -0.000000    -0.007020     0.570559
	   77 D(11,5,6,12)    =      1.395743     0.000000    -0.004085     1.391658
	   78 D(13,7,14,15)   =    -16.993194    -0.000000    -0.032443   -17.025637
	   79 D(13,7,14,16)   =    160.981806     0.000001     0.001408   160.983215
	   80 D(14,7,13,17)   =    112.234354    -0.000001     0.008128   112.242483
	   81 D(14,7,13,18)   =    -12.890718    -0.000000    -0.005677   -12.896396
	 ---------------------------------------------------------------------------
	Successfully symmetrized geometry.

  ==> Convergence Check <==

  Measures of convergence in internal coordinates in au.
  Criteria marked as inactive (o), active & met (*), and active & unmet ( ).
  ---------------------------------------------------------------------------------------------
   Step     Total Energy     Delta E     MAX Force     RMS Force      MAX Disp      RMS Disp   
  ---------------------------------------------------------------------------------------------
    Convergence Criteria    1.00e-06 *    3.00e-04 *             o    1.20e-03 *             o
  ---------------------------------------------------------------------------------------------
     14    -381.45300638   -3.24e-07 *    1.43e-04 *    3.41e-05 o    5.66e-04 *    1.53e-04 o  ~
  ---------------------------------------------------------------------------------------------


  **** Optimization is complete! (in 14 steps) ****

  ==> Optimization Summary <==

  Measures of convergence in internal coordinates in au.
  --------------------------------------------------------------------------------------------------------------- ~
   Step         Total Energy             Delta E       MAX Force       RMS Force        MAX Disp        RMS Disp  ~
  --------------------------------------------------------------------------------------------------------------- ~
      1    -381.436445257454   -381.436445257454      0.00362288      0.00081970      0.13677780      0.02219071  ~
      2    -381.437817733516     -0.001372476062      0.00572928      0.00116901      0.13451814      0.02220442  ~
      3    -381.439542907129     -0.001725173613      0.00785229      0.00203145      0.11798970      0.02224858  ~
      4    -381.440380695625     -0.000837788496      0.02188999      0.00409322      0.13431025      0.02206153  ~
      5    -381.442118772789     -0.001738077164      0.02821471      0.00504118      0.12488540      0.02207113  ~
      6    -381.446356143553     -0.004237370764      0.01510223      0.00244630      0.13165444      0.02223184  ~
      7    -381.448933074957     -0.002576931404      0.00731714      0.00153400      0.12774900      0.02202067  ~
      8    -381.450771822625     -0.001838747668      0.00786900      0.00149753      0.12959108      0.02226519  ~
      9    -381.452204112493     -0.001432289869      0.00414838      0.00089828      0.11479265      0.02227530  ~
     10    -381.452871635626     -0.000667523132      0.00220729      0.00045148      0.07735549      0.01621158  ~
     11    -381.452963655719     -0.000092020093      0.00292527      0.00060341      0.01995976      0.00533770  ~
     12    -381.452990718995     -0.000027063276      0.00096580      0.00024822      0.01222244      0.00310650  ~
     13    -381.453006054310     -0.000015335314      0.00025823      0.00006114      0.00126816      0.00037678  ~
     14    -381.453006378019     -0.000000323709      0.00014283      0.00003415      0.00056623      0.00015283  ~
  --------------------------------------------------------------------------------------------------------------- ~

	Writing optimization data to binary file.
	Final energy is   -381.4530063780192
	Final (previous) structure:
	Cartesian Geometry (in Angstrom)
	    C     0.0437787156  -0.0178266780  -0.1509731764
	    C     0.5587661988   1.0965343708   0.5505257254
	    C     0.5322793349   1.1118830861   1.9375109236
	    C     0.0050300769   0.0183355594   2.6374488159
	    C    -0.4890543868  -1.0957201375   1.9511680834
	    C    -0.4665254711  -1.1244969248   0.5617811350
	    C     0.0279653537  -0.0417174578  -1.6016769499
	    H     1.0207142781   1.9218159390   0.0149520648
	    H     0.9348458109   1.9623169589   2.4779102438
	    H    -0.0146468843   0.0347953397   3.7230013789
	    H    -0.8991941498  -1.9366422171   2.5007418967
	    H    -0.8753647504  -1.9695410678   0.0194148724
	    N    -0.0931841415  -1.2429868590  -2.2581136774
	    N    -0.1174692728   1.0848696378  -2.2873634893
	    H    -0.0633552543   1.1114034202  -3.2996638865
	    H    -0.3195474035   1.9597532510  -1.8165147191
	    H     0.7597696021  -1.7944897973  -2.3396705545
	    H    -0.4928206565  -1.1539654235  -3.1919936868
	Saving final (previous) structure.
	Removing binary optimization data file.
			--------------------------
			 OPTKING Finished Execution 
			--------------------------

    Final optimized geometry and variables:
    Molecular point group: c1
    Full point group: C1

    Geometry (in Angstrom), charge = 1, multiplicity = 1:

    C            0.043778715551    -0.017826677999    -0.150973176378
    C            0.558766198818     1.096534370755     0.550525725366
    C            0.532279334863     1.111883086061     1.937510923569
    C            0.005030076875     0.018335559360     2.637448815871
    C           -0.489054386776    -1.095720137489     1.951168083426
    C           -0.466525471063    -1.124496924802     0.561781134951
    C            0.027965353665    -0.041717457792    -1.601676949860
    H            1.020714278150     1.921815938962     0.014952064776
    H            0.934845810867     1.962316958880     2.477910243846
    H           -0.014646884294     0.034795339705     3.723001378910
    H           -0.899194149823    -1.936642217085     2.500741896721
    H           -0.875364750379    -1.969541067788     0.019414872362
    N           -0.093184141455    -1.242986858996    -2.258113677361
    N           -0.117469272752     1.084869637811    -2.287363489343
    H           -0.063355254322     1.111403420169    -3.299663886472
    H           -0.319547403523     1.959753251017    -1.816514719135
    H            0.759769602143    -1.794489797267    -2.339670554483
    H           -0.492820656545    -1.153965423503    -3.191993686767

	Removing binary optimization data file.
	Cleaning optimization helper files.


Properties will be evaluated at   0.000000,   0.000000,   0.000000 [a0]
OEProp: No title given, name of density matrix used for the following properties is 'SCF density'
  Nuclear Dipole Moment: [e a0]
     X:    -0.2848      Y:    -2.4367      Z:     2.9944

  Electronic Dipole Moment: [e a0]
     X:     0.4531      Y:     2.7797      Z:    -5.1728

  Dipole Moment: [e a0]
     X:     0.1682      Y:     0.3430      Z:    -2.1785     Total:     2.2117

  Dipole Moment: [D]
     X:     0.4276      Y:     0.8719      Z:    -5.5371     Total:     5.6217

  Quadrupole Moment: [D A]
    XX:   -51.2676     YY:   -37.3307     ZZ:   -12.0085
    XY:     1.0401     XZ:    -0.5180     YZ:    -0.8418

  Traceless Quadrupole Moment: [D A]
    XX:   -17.7320     YY:    -3.7952     ZZ:    21.5271
    XY:     1.0401     XZ:    -0.5180     YZ:    -0.8418

  Mulliken Charges: (a.u.)
   Center  Symbol    Alpha    Beta     Spin     Total
       1     C     2.94825  2.94825  0.00000  0.10350
       2     C     3.08467  3.08467  0.00000 -0.16933
       3     C     3.06270  3.06270  0.00000 -0.12541
       4     C     3.04926  3.04926  0.00000 -0.09852
       5     C     3.06255  3.06255  0.00000 -0.12509
       6     C     3.06992  3.06992  0.00000 -0.13983
       7     C     2.76408  2.76408  0.00000  0.47184
       8     H     0.41571  0.41571  0.00000  0.16857
       9     H     0.40468  0.40468  0.00000  0.19063
      10     H     0.40216  0.40216  0.00000  0.19568
      11     H     0.40408  0.40408  0.00000  0.19183
      12     H     0.40213  0.40213  0.00000  0.19575
      13     N     3.85900  3.85900  0.00000 -0.71800
      14     N     3.84580  3.84580  0.00000 -0.69160
      15     H     0.30446  0.30446  0.00000  0.39108
      16     H     0.29941  0.29941  0.00000  0.40118
      17     H     0.30329  0.30329  0.00000  0.39341
      18     H     0.31785  0.31785  0.00000  0.36431

   Total alpha = 32.00000, Total beta = 32.00000, Total charge =  1.00000


    Psi4 stopped on: Saturday, 29 September 2018 08:38PM
    Psi4 wall time for execution: 0:13:56.92

*** Psi4 exiting successfully. Buy a developer a beer!
