
    -----------------------------------------------------------------------
          Psi4: An Open-Source Ab Initio Electronic Structure Package
                               Psi4 1.2.1 release

                         Git: Rev {HEAD} 406f4de 


    R. M. Parrish, L. A. Burns, D. G. A. Smith, A. C. Simmonett,
    A. E. DePrince III, E. G. Hohenstein, U. Bozkaya, A. Yu. Sokolov,
    R. Di Remigio, R. M. Richard, J. F. Gonthier, A. M. James,
    H. R. McAlexander, A. Kumar, M. Saitow, X. Wang, B. P. Pritchard,
    P. Verma, H. F. Schaefer III, K. Patkowski, R. A. King, E. F. Valeev,
    F. A. Evangelista, J. M. Turney, T. D. Crawford, and C. D. Sherrill,
    J. Chem. Theory Comput. 13(7) pp 3185--3197 (2017).
    (doi: 10.1021/acs.jctc.7b00174)


                         Additional Contributions by
    P. Kraus, H. Kruse, M. H. Lechner, M. C. Schieber, and R. A. Shaw

    -----------------------------------------------------------------------


    Psi4 started on: Saturday, 29 September 2018 08:51PM

    Process ID: 2047
    Host:       arancio.prib.upf.edu
    PSIDATADIR: /shared/joao/test_parameterize/miniconda3/share/psi4
    Memory:     500.0 MiB
    Threads:    1
    
  ==> Input File <==

--------------------------------------------------------------------------
set_num_threads(4)
set_memory('3000 MB')

set { scf_mem_safety_factor 0.7 }

set { reference rks }
set { basis 6-31G* }

molecule MOL {
    1 1
    noreorient
    nocom
    symmetry c1
    C   -0.000000  -0.000000  -0.177864
    C    0.036678   1.219374   0.524165
    C    0.031765   1.213120   1.915444
    C    0.000000   0.000000   2.610107
    C   -0.031765  -1.213120   1.915444
    C   -0.036678  -1.219375   0.524165
    C   -0.000000   0.000000  -1.644734
    H    0.018170   2.164705  -0.010854
    H    0.042402   2.152895   2.457886
    H    0.000000   0.000000   3.695756
    H   -0.042402  -2.152895   2.457886
    H   -0.018170  -2.164705  -0.010853
    N    0.361476  -1.094470  -2.308461
    N   -0.361476   1.094470  -2.308460
    H   -0.466897   1.117363  -3.315997
    H   -0.477788   1.968877  -1.813316
    H    0.477788  -1.968877  -1.813317
    H    0.466897  -1.117362  -3.315997
}

set optking { frozen_dihedral = (" 2 1 7 13 ") }

set optking { dynamic_level = 1 
 geom_maxiter = 250
 print_trajectory_xyz_file = True }

energy, wfn = optimize('B3LYP-D3', return_wfn=True)

import os
os.chdir(os.environ['HTMD_PSI4_WORKDIR'])

oeprop(wfn, 'DIPOLE', 'QUADRUPOLE', 'MULLIKEN_CHARGES')

with open('psi4out.xyz', 'w') as f:
    f.write('18 ' )
    f.write('%.12f\n' % energy)
    f.write(MOL.save_string_xyz())
--------------------------------------------------------------------------
  Threads set to 4 by Python driver.

  Memory set to   2.794 GiB by Python driver.
gradient() will perform analytic gradient computation.

*** tstart() called on arancio.prib.upf.edu
*** at Sat Sep 29 20:51:45 2018

   => Loading Basis Set <=

    Name: 6-31G*
    Role: ORBITAL
    Keyword: BASIS
    atoms 1-7         entry C          line   111 file /shared/joao/test_parameterize/miniconda3/share/psi4/basis/6-31gs.gbs 
    atoms 8-12, 15-18 entry H          line    44 file /shared/joao/test_parameterize/miniconda3/share/psi4/basis/6-31gs.gbs 
    atoms 13-14       entry N          line   128 file /shared/joao/test_parameterize/miniconda3/share/psi4/basis/6-31gs.gbs 


         ---------------------------------------------------------
                                   SCF
            by Justin Turney, Rob Parrish, Andy Simmonett
                             and Daniel Smith
                              RKS Reference
                        4 Threads,   2861 MiB Core
         ---------------------------------------------------------

  ==> Geometry <==

    Molecular point group: c1
    Full point group: C1

    Geometry (in Angstrom), charge = 1, multiplicity = 1:

       Center              X                  Y                   Z               Mass       
    ------------   -----------------  -----------------  -----------------  -----------------
         C            0.000000000000     0.000000000000    -0.177864000000    12.000000000000
         C            0.036678000000     1.219374000000     0.524165000000    12.000000000000
         C            0.031765000000     1.213120000000     1.915444000000    12.000000000000
         C            0.000000000000     0.000000000000     2.610107000000    12.000000000000
         C           -0.031765000000    -1.213120000000     1.915444000000    12.000000000000
         C           -0.036678000000    -1.219375000000     0.524165000000    12.000000000000
         C            0.000000000000     0.000000000000    -1.644734000000    12.000000000000
         H            0.018170000000     2.164705000000    -0.010854000000     1.007825032070
         H            0.042402000000     2.152895000000     2.457886000000     1.007825032070
         H            0.000000000000     0.000000000000     3.695756000000     1.007825032070
         H           -0.042402000000    -2.152895000000     2.457886000000     1.007825032070
         H           -0.018170000000    -2.164705000000    -0.010853000000     1.007825032070
         N            0.361476000000    -1.094470000000    -2.308461000000    14.003074004780
         N           -0.361476000000     1.094470000000    -2.308460000000    14.003074004780
         H           -0.466897000000     1.117363000000    -3.315997000000     1.007825032070
         H           -0.477788000000     1.968877000000    -1.813316000000     1.007825032070
         H            0.477788000000    -1.968877000000    -1.813317000000     1.007825032070
         H            0.466897000000    -1.117362000000    -3.315997000000     1.007825032070

  Running in c1 symmetry.

  Rotational constants: A =      0.12190  B =      0.04045  C =      0.03076 [cm^-1]
  Rotational constants: A =   3654.48749  B =   1212.59177  C =    922.30127 [MHz]
  Nuclear repulsion =  417.519445100989856

  Charge       = 1
  Multiplicity = 1
  Electrons    = 64
  Nalpha       = 32
  Nbeta        = 32

  ==> Algorithm <==

  SCF Algorithm Type is DF.
  DIIS enabled.
  MOM disabled.
  Fractional occupation disabled.
  Guess Type is SAD.
  Energy threshold   = 1.00e-08
  Density threshold  = 1.00e-08
  Integral threshold = 0.00e+00

  ==> Primary Basis <==

  Basis Set: 6-31G*
    Blend: 6-31G*
    Number of shells: 72
    Number of basis function: 153
    Number of Cartesian functions: 153
    Spherical Harmonics?: false
    Max angular momentum: 2

  ==> DFT Potential <==

   => Composite Functional: B3LYP-D3ZERO <= 

    B3LYP-d3zero Hyb-GGA Exchange-Correlation Functional

    P. J. Stephens, F. J. Devlin, C. F. Chabalowski, and M. J. Frisch, J. Phys. Chem. 98, 11623 (1994)

    Deriv               =              1
    GGA                 =           TRUE
    Meta                =          FALSE

    Exchange Hybrid     =           TRUE
    MP2 Hybrid          =          FALSE

   => Exchange Functionals <=

    0.0800   Slater exchange
    0.7200         Becke 88

   => Exact (HF) Exchange <=

    0.2000               HF 

   => Correlation Functionals <=

    0.1900   Vosko, Wilk & Nusair (VWN5_RPA)
    0.8100   Lee, Yang & Parr

   => Molecular Quadrature <=

    Radial Scheme       =       TREUTLER
    Pruning Scheme      =           FLAT
    Nuclear Scheme      =       TREUTLER

    BS radius alpha     =              1
    Pruning alpha       =              1
    Radial Points       =             75
    Spherical Points    =            302
    Total Points        =         396590
    Total Blocks        =           2950
    Max Points          =            256
    Max Functions       =            149

   => -D3ZERO: Empirical Dispersion <=

    Grimme's -D3 (zero-damping) Dispersion Correction
    Grimme S.; Antony J.; Ehrlich S.; Krieg H. (2010), J. Chem. Phys., 132: 154104

        S6 =   1.000000E+00
        S8 =   1.703000E+00
       SR6 =   1.261000E+00
       SR8 =   1.000000E+00
    ALPHA6 =   1.400000E+01

   => Loading Basis Set <=

    Name: (6-31G* AUX)
    Role: JKFIT
    Keyword: DF_BASIS_SCF
    atoms 1-7         entry C          line   121 file /shared/joao/test_parameterize/miniconda3/share/psi4/basis/cc-pvdz-jkfit.gbs 
    atoms 8-12, 15-18 entry H          line    51 file /shared/joao/test_parameterize/miniconda3/share/psi4/basis/cc-pvdz-jkfit.gbs 
    atoms 13-14       entry N          line   171 file /shared/joao/test_parameterize/miniconda3/share/psi4/basis/cc-pvdz-jkfit.gbs 

  ==> Pre-Iterations <==

   -------------------------------------------------------
    Irrep   Nso     Nmo     Nalpha   Nbeta   Ndocc  Nsocc
   -------------------------------------------------------
     A        153     153       0       0       0       0
   -------------------------------------------------------
    Total     153     153      32      32      32       0
   -------------------------------------------------------

  ==> Integral Setup <==

  ==> DiskDFJK: Density-Fitted J/K Matrices <==

    J tasked:                  Yes
    K tasked:                  Yes
    wK tasked:                  No
    OpenMP threads:              4
    Integrals threads:           4
    Memory (MB):              2002
    Algorithm:                Core
    Integral Cache:           NONE
    Schwarz Cutoff:          1E-12
    Fitting Condition:       1E-12

   => Auxiliary Basis Set <=

  Basis Set: (6-31G* AUX)
    Blend: CC-PVDZ-JKFIT
    Number of shells: 297
    Number of basis function: 954
    Number of Cartesian functions: 954
    Spherical Harmonics?: false
    Max angular momentum: 3

  Minimum eigenvalue in the overlap matrix is 4.7561655304E-04.
  Using Symmetric Orthogonalization.

  SCF Guess: Superposition of Atomic Densities via on-the-fly atomic UHF.

  ==> Iterations <==

                           Total Energy        Delta E     RMS |[F,P]|

   @DF-RKS iter   0:  -379.46319556551418   -3.79463e+02   6.66352e-02 
   @DF-RKS iter   1:  -380.99778461127050   -1.53459e+00   1.24845e-02 
   @DF-RKS iter   2:  -380.88107167369731    1.16713e-01   1.41560e-02 DIIS
   @DF-RKS iter   3:  -381.45184370805862   -5.70772e-01   2.08965e-03 DIIS
   @DF-RKS iter   4:  -381.46140514713107   -9.56144e-03   8.95927e-04 DIIS
   @DF-RKS iter   5:  -381.46340694178514   -2.00179e-03   2.52127e-04 DIIS
   @DF-RKS iter   6:  -381.46356584201283   -1.58900e-04   8.63232e-05 DIIS
   @DF-RKS iter   7:  -381.46358616772528   -2.03257e-05   2.39106e-05 DIIS
   @DF-RKS iter   8:  -381.46358787542107   -1.70770e-06   6.57177e-06 DIIS
   @DF-RKS iter   9:  -381.46358801357223   -1.38151e-07   2.17422e-06 DIIS
   @DF-RKS iter  10:  -381.46358802685302   -1.32808e-08   6.37641e-07 DIIS
   @DF-RKS iter  11:  -381.46358802791184   -1.05882e-09   1.68209e-07 DIIS
   @DF-RKS iter  12:  -381.46358802798818   -7.63407e-11   8.53594e-08 DIIS
   @DF-RKS iter  13:  -381.46358802801313   -2.49543e-11   1.22168e-08 DIIS
   @DF-RKS iter  14:  -381.46358802801359   -4.54747e-13   6.66304e-09 DIIS

  ==> Post-Iterations <==

    Orbital Energies [Eh]
    ---------------------

    Doubly Occupied:                                                      

       1A    -14.566548     2A    -14.566541     3A    -10.497989  
       4A    -10.376162     5A    -10.361519     6A    -10.361509  
       7A    -10.345616     8A    -10.343598     9A    -10.343526  
      10A     -1.183932    11A     -1.092378    12A     -1.017267  
      13A     -0.928666    14A     -0.906477    15A     -0.848052  
      16A     -0.786254    17A     -0.779442    18A     -0.738838  
      19A     -0.738426    20A     -0.689998    21A     -0.668794  
      22A     -0.633102    23A     -0.613120    24A     -0.598250  
      25A     -0.580598    26A     -0.580492    27A     -0.517637  
      28A     -0.510417    29A     -0.502430    30A     -0.471791  
      31A     -0.411850    32A     -0.408286  

    Virtual:                                                              

      33A     -0.221483    34A     -0.157434    35A     -0.121989  
      36A     -0.115484    37A     -0.078737    38A     -0.070865  
      39A     -0.043184    40A     -0.027798    41A      0.012694  
      42A      0.026702    43A      0.029816    44A      0.065073  
      45A      0.083792    46A      0.090368    47A      0.117012  
      48A      0.138759    49A      0.151750    50A      0.183503  
      51A      0.233197    52A      0.247377    53A      0.301491  
      54A      0.346954    55A      0.349348    56A      0.375065  
      57A      0.392408    58A      0.395960    59A      0.419252  
      60A      0.424982    61A      0.437983    62A      0.446527  
      63A      0.453921    64A      0.470647    65A      0.470985  
      66A      0.473332    67A      0.482176    68A      0.492930  
      69A      0.492986    70A      0.539928    71A      0.565860  
      72A      0.589694    73A      0.623368    74A      0.643752  
      75A      0.664968    76A      0.693495    77A      0.695712  
      78A      0.703753    79A      0.716470    80A      0.751347  
      81A      0.778133    82A      0.790093    83A      0.795485  
      84A      0.815165    85A      0.847154    86A      0.865719  
      87A      0.872715    88A      0.925726    89A      0.969047  
      90A      1.015648    91A      1.022965    92A      1.048905  
      93A      1.051316    94A      1.064868    95A      1.137056  
      96A      1.180884    97A      1.203274    98A      1.275336  
      99A      1.278166   100A      1.316558   101A      1.320016  
     102A      1.343666   103A      1.353027   104A      1.374341  
     105A      1.374811   106A      1.456971   107A      1.522896  
     108A      1.602027   109A      1.631247   110A      1.647709  
     111A      1.673887   112A      1.735670   113A      1.751781  
     114A      1.799206   115A      1.814998   116A      1.868487  
     117A      1.898337   118A      1.905849   119A      1.932778  
     120A      1.980132   121A      1.990500   122A      2.024936  
     123A      2.036095   124A      2.064900   125A      2.116576  
     126A      2.120786   127A      2.153690   128A      2.226931  
     129A      2.233258   130A      2.277599   131A      2.331560  
     132A      2.362319   133A      2.443372   134A      2.470287  
     135A      2.493306   136A      2.505847   137A      2.528068  
     138A      2.589499   139A      2.595765   140A      2.647900  
     141A      2.739790   142A      2.886191   143A      3.005632  
     144A      3.257191   145A      3.642684   146A      3.693740  
     147A      3.906768   148A      3.943525   149A      3.960506  
     150A      4.039277   151A      4.168224   152A      4.258097  
     153A      4.547258  

    Final Occupation by Irrep:
              A 
    DOCC [    32 ]

  Energy converged.

  @DF-RKS Final Energy:  -381.46358802801359

   => Energetics <=

    Nuclear Repulsion Energy =            417.5194451009898557
    One-Electron Energy =               -1330.0770459559867049
    Two-Electron Energy =                 575.5157921457727070
    DFT Exchange-Correlation Energy =     -44.4102990487895042
    Empirical Dispersion Energy =          -0.0114802700000000
    VV10 Nonlocal Energy =                  0.0000000000000000
    Total Energy =                       -381.4635880280136462



Properties will be evaluated at   0.000000,   0.000000,   0.000000 [a0]

Properties computed using the SCF density matrix

  Nuclear Dipole Moment: [e a0]
     X:     0.0000      Y:    -0.0000      Z:     0.0248

  Electronic Dipole Moment: [e a0]
     X:    -0.0000      Y:     0.0000      Z:    -2.2110

  Dipole Moment: [e a0]
     X:    -0.0000      Y:     0.0000      Z:    -2.1862     Total:     2.1862

  Dipole Moment: [D]
     X:    -0.0000      Y:     0.0000      Z:    -5.5569     Total:     5.5569


*** tstop() called on arancio.prib.upf.edu at Sat Sep 29 20:52:11 2018
Module time:
	user time   =      91.95 seconds =       1.53 minutes
	system time =       0.50 seconds =       0.01 minutes
	total time  =         26 seconds =       0.43 minutes
Total time:
	user time   =      91.95 seconds =       1.53 minutes
	system time =       0.50 seconds =       0.01 minutes
	total time  =         26 seconds =       0.43 minutes

*** tstart() called on arancio.prib.upf.edu
*** at Sat Sep 29 20:52:11 2018


         ------------------------------------------------------------
                                   SCF GRAD                          
                          Rob Parrish, Justin Turney,                
                       Andy Simmonett, and Alex Sokolov              
         ------------------------------------------------------------

  ==> Geometry <==

    Molecular point group: c1
    Full point group: C1

    Geometry (in Angstrom), charge = 1, multiplicity = 1:

       Center              X                  Y                   Z               Mass       
    ------------   -----------------  -----------------  -----------------  -----------------
         C            0.000000000000     0.000000000000    -0.177864000000    12.000000000000
         C            0.036678000000     1.219374000000     0.524165000000    12.000000000000
         C            0.031765000000     1.213120000000     1.915444000000    12.000000000000
         C            0.000000000000     0.000000000000     2.610107000000    12.000000000000
         C           -0.031765000000    -1.213120000000     1.915444000000    12.000000000000
         C           -0.036678000000    -1.219375000000     0.524165000000    12.000000000000
         C            0.000000000000     0.000000000000    -1.644734000000    12.000000000000
         H            0.018170000000     2.164705000000    -0.010854000000     1.007825032070
         H            0.042402000000     2.152895000000     2.457886000000     1.007825032070
         H            0.000000000000     0.000000000000     3.695756000000     1.007825032070
         H           -0.042402000000    -2.152895000000     2.457886000000     1.007825032070
         H           -0.018170000000    -2.164705000000    -0.010853000000     1.007825032070
         N            0.361476000000    -1.094470000000    -2.308461000000    14.003074004780
         N           -0.361476000000     1.094470000000    -2.308460000000    14.003074004780
         H           -0.466897000000     1.117363000000    -3.315997000000     1.007825032070
         H           -0.477788000000     1.968877000000    -1.813316000000     1.007825032070
         H            0.477788000000    -1.968877000000    -1.813317000000     1.007825032070
         H            0.466897000000    -1.117362000000    -3.315997000000     1.007825032070

  Nuclear repulsion =  417.519445100989856

  ==> Basis Set <==

  Basis Set: 6-31G*
    Blend: 6-31G*
    Number of shells: 72
    Number of basis function: 153
    Number of Cartesian functions: 153
    Spherical Harmonics?: false
    Max angular momentum: 2

  ==> DFJKGrad: Density-Fitted SCF Gradients <==

    Gradient:                    1
    J tasked:                  Yes
    K tasked:                  Yes
    wK tasked:                  No
    OpenMP threads:              4
    Integrals threads:           4
    Memory (MB):              2002
    Schwarz Cutoff:          0E+00
    Fitting Condition:       1E-12

   => Auxiliary Basis Set <=

  Basis Set: (6-31G* AUX)
    Blend: CC-PVDZ-JKFIT
    Number of shells: 297
    Number of basis function: 954
    Number of Cartesian functions: 954
    Spherical Harmonics?: false
    Max angular momentum: 3

  ==> DFT Potential <==

   => Composite Functional: B3LYP-D3ZERO <= 

    B3LYP-d3zero Hyb-GGA Exchange-Correlation Functional

    P. J. Stephens, F. J. Devlin, C. F. Chabalowski, and M. J. Frisch, J. Phys. Chem. 98, 11623 (1994)

    Deriv               =              1
    GGA                 =           TRUE
    Meta                =          FALSE

    Exchange Hybrid     =           TRUE
    MP2 Hybrid          =          FALSE

   => Exchange Functionals <=

    0.0800   Slater exchange
    0.7200         Becke 88

   => Exact (HF) Exchange <=

    0.2000               HF 

   => Correlation Functionals <=

    0.1900   Vosko, Wilk & Nusair (VWN5_RPA)
    0.8100   Lee, Yang & Parr

   => Molecular Quadrature <=

    Radial Scheme       =       TREUTLER
    Pruning Scheme      =           FLAT
    Nuclear Scheme      =       TREUTLER

    BS radius alpha     =              1
    Pruning alpha       =              1
    Radial Points       =             75
    Spherical Points    =            302
    Total Points        =         396590
    Total Blocks        =           2950
    Max Points          =            256
    Max Functions       =            149


  -Total Gradient:
     Atom            X                  Y                   Z
    ------   -----------------  -----------------  -----------------
       1        0.000000003535     0.000000838923    -0.000601126625
       2        0.006818399856     0.004340959229    -0.001772243310
       3        0.000303781338    -0.001360474684     0.000771669672
       4       -0.000000000342    -0.000000044602     0.000515010553
       5       -0.000303771391     0.001360733133     0.000771869396
       6       -0.006818417623    -0.004342495474    -0.001772637175
       7       -0.000000090887     0.000000134500     0.000073915890
       8       -0.003916961155    -0.001188738674    -0.004048643890
       9       -0.000766079117     0.000080925466    -0.000045781882
      10       -0.000000000342     0.000000004705     0.000111190185
      11        0.000766077324    -0.000080976096    -0.000045813346
      12        0.003916941828     0.001189434746    -0.004048182798
      13        0.003634065537     0.000367636032     0.002432250670
      14       -0.003633846111    -0.000368028948     0.002433539107
      15       -0.002784715425    -0.000527036127    -0.000475151593
      16        0.004193294319     0.001584444926     0.003078588908
      17       -0.004193298868    -0.001584421475     0.003078649328
      18        0.002784617365     0.000527104430    -0.000474278309


*** tstop() called on arancio.prib.upf.edu at Sat Sep 29 20:52:17 2018
Module time:
	user time   =      24.93 seconds =       0.42 minutes
	system time =       0.19 seconds =       0.00 minutes
	total time  =          6 seconds =       0.10 minutes
Total time:
	user time   =     116.94 seconds =       1.95 minutes
	system time =       0.69 seconds =       0.01 minutes
	total time  =         32 seconds =       0.53 minutes

			-----------------------------------------
			 OPTKING 2.0: for geometry optimizations 
			  - R.A. King,  Bethel University        
			-----------------------------------------
	At level 1: Red. Int., RFO, no backsteps, dynamic trust

	Internal coordinates to be generated automatically.
	Detected frag 1 with atoms:  1 2 3 4 5 6 7 8 9 10 11 12 13 14 15 16 17 18
	---Fragment 1 Bond Connectivity---
	 1 : 2 6 7
	 2 : 1 3 8
	 3 : 2 4 9
	 4 : 3 5 10
	 5 : 4 6 11
	 6 : 1 5 12
	 7 : 1 13 14
	 8 : 2
	 9 : 3
	 10 : 4
	 11 : 5
	 12 : 6
	 13 : 7 17 18
	 14 : 7 15 16
	 15 : 14
	 16 : 14
	 17 : 13
	 18 : 13

	Assuming in current code that numbering for constraints corresponds to unified fragment.
	Frozen dihedral atom list: 
	     2     1     7    13
	---Fragment 1 Geometry and Gradient---
	 C           0.0000000000        0.0000000000       -0.3361142489
	 C           0.0693113751        2.3042829136        0.9905282984
	 C           0.0600271506        2.2924645663        3.6196645829
	 C           0.0000000000        0.0000000000        4.9323874075
	 C          -0.0600271506       -2.2924645663        3.6196645829
	 C          -0.0693113751       -2.3042848033        0.9905282984
	 C           0.0000000000        0.0000000000       -3.1080968214
	 H           0.0343363238        4.0906996085       -0.0205110874
	 H           0.0801281675        4.0683819429        4.6447314059
	 H           0.0000000000        0.0000000000        6.9839666940
	 H          -0.0801281675       -4.0683819429        4.6447314059
	 H          -0.0343363238       -4.0906996085       -0.0205091977
	 N           0.6830906436       -2.0682485607       -4.3623590784
	 N          -0.6830906436        2.0682485607       -4.3623571887
	 H          -0.8823074623        2.1115100610       -6.2663261875
	 H          -0.9028884696        3.7206383193       -3.4266706324
	 H           0.9028884696       -3.7206383193       -3.4266725221
	 H           0.8823074623       -2.1115081713       -6.2663261875
	             0.0000000035        0.0000008389       -0.0006011266
	             0.0068183999        0.0043409592       -0.0017722433
	             0.0003037813       -0.0013604747        0.0007716697
	            -0.0000000003       -0.0000000446        0.0005150106
	            -0.0003037714        0.0013607331        0.0007718694
	            -0.0068184176       -0.0043424955       -0.0017726372
	            -0.0000000909        0.0000001345        0.0000739159
	            -0.0039169612       -0.0011887387       -0.0040486439
	            -0.0007660791        0.0000809255       -0.0000457819
	            -0.0000000003        0.0000000047        0.0001111902
	             0.0007660773       -0.0000809761       -0.0000458133
	             0.0039169418        0.0011894347       -0.0040481828
	             0.0036340655        0.0003676360        0.0024322507
	            -0.0036338461       -0.0003680289        0.0024335391
	            -0.0027847154       -0.0005270361       -0.0004751516
	             0.0041932943        0.0015844449        0.0030785889
	            -0.0041932989       -0.0015844215        0.0030786493
	             0.0027846174        0.0005271044       -0.0004742783

	Previous optimization step data not found.  Starting new optimization.

	---Fragment 1 Intrafragment Coordinates---
	 - Coordinate -           - BOHR/RAD -       - ANG/DEG -
	 R(1,2)           =         2.659794	       1.407502
	 R(1,6)           =         2.659796	       1.407503
	 R(1,7)           =         2.771983	       1.466870
	 R(2,3)           =         2.629179	       1.391302
	 R(2,8)           =         2.052976	       1.086388
	 R(3,4)           =         2.642393	       1.398294
	 R(3,9)           =         2.050622	       1.085142
	 R(4,5)           =         2.642393	       1.398294
	 R(4,10)          =         2.051579	       1.085649
	 R(5,6)           =         2.629179	       1.391302
	 R(5,11)          =         2.050622	       1.085142
	 R(6,12)          =         2.052973	       1.086386
	 R(7,13)          =         2.513452	       1.330061
	 R(7,14)          =         2.513451	       1.330061
	 R(13,17)         =         1.911599	       1.011575
	 R(13,18)         =         1.914850	       1.013295
	 R(14,15)         =         1.914852	       1.013296
	 R(14,16)         =         1.911599	       1.011575
	 B(1,2,3)         =         2.088380	     119.655376
	 B(1,2,8)         =         2.103396	     120.515689
	 B(1,6,5)         =         2.088379	     119.655315
	 B(1,6,12)        =         2.103396	     120.515729
	 B(1,7,13)        =         2.093264	     119.935176
	 B(1,7,14)        =         2.093263	     119.935139
	 B(2,1,6)         =         2.097220	     120.161857
	 B(2,1,7)         =         2.092983	     119.919082
	 B(2,3,4)         =         2.095279	     120.050636
	 B(2,3,9)         =         2.089719	     119.732108
	 B(3,2,8)         =         2.090149	     119.756722
	 B(3,4,5)         =         2.101793	     120.423859
	 B(3,4,10)        =         2.090696	     119.788070
	 B(4,3,9)         =         2.098135	     120.214297
	 B(4,5,6)         =         2.095280	     120.050677
	 B(4,5,11)        =         2.098135	     120.214297
	 B(5,4,10)        =         2.090696	     119.788070
	 B(5,6,12)        =         2.090149	     119.756743
	 B(6,1,7)         =         2.092982	     119.919061
	 B(6,5,11)        =         2.089719	     119.732067
	 B(7,13,17)       =         2.092412	     119.886354
	 B(7,13,18)       =         2.144860	     122.891412
	 B(7,14,15)       =         2.144860	     122.891427
	 B(7,14,16)       =         2.092412	     119.886391
	 B(13,7,14)       =         2.096659	     120.129685
	 B(15,14,16)      =         2.043399	     117.078128
	 B(17,13,18)      =         2.043400	     117.078182
	 D(1,2,3,4)       =         0.007799	       0.446825
	 D(1,2,3,9)       =        -3.122896	    -178.928735
	 D(1,6,5,4)       =         0.007799	       0.446822
	 D(1,6,5,11)      =        -3.122896	    -178.928737
	 D(1,7,13,17)     =         0.187843	      10.762636
	 D(1,7,13,18)     =        -3.032164	    -173.730194
	 D(1,7,14,15)     =        -3.032164	    -173.730220
	 D(1,7,14,16)     =         0.187843	      10.762640
	 D(2,1,6,5)       =        -0.003906	      -0.223802
	 D(2,1,6,12)      =        -3.091437	    -177.126283
	*D(2,1,7,13)      =         2.792527	     160.000005
	 D(2,1,7,14)      =        -0.349066	     -19.999995
	 D(2,3,4,5)       =        -0.003942	      -0.225875
	 D(2,3,4,10)      =         3.137650	     179.774125
	 D(3,2,1,6)       =        -0.003906	      -0.223806
	 D(3,2,1,7)       =         3.137687	     179.776196
	 D(3,4,5,6)       =        -0.003942	      -0.225874
	 D(3,4,5,11)      =         3.126699	     179.146646
	 D(4,3,2,8)       =         3.095744	     177.373058
	 D(4,5,6,12)      =         3.095744	     177.373055
	 D(5,4,3,9)       =         3.126699	     179.146646
	 D(5,6,1,7)       =         3.137687	     179.776197
	 D(6,1,2,8)       =        -3.091437	    -177.126287
	 D(6,1,7,13)      =        -0.349066	     -19.999994
	 D(6,1,7,14)      =         2.792527	     160.000006
	 D(6,5,4,10)      =         3.137650	     179.774126
	 D(7,1,2,8)       =         0.050156	       2.873714
	 D(7,1,6,12)      =         0.050156	       2.873716
	 D(8,2,3,9)       =        -0.034950	      -2.002503
	 D(9,3,4,10)      =        -0.014894	      -0.853354
	 D(10,4,5,11)     =        -0.014894	      -0.853354
	 D(11,5,6,12)     =        -0.034950	      -2.002504
	 D(13,7,14,15)    =         0.109428	       6.269780
	 D(13,7,14,16)    =        -2.953749	    -169.237360
	 D(14,7,13,17)    =        -2.953749	    -169.237364
	 D(14,7,13,18)    =         0.109429	       6.269806

	Current energy   :      -381.4635880280

	Generating empirical Hessian (Schlegel '84) for each fragment.
	Taking RFO optimization step.
	Going to follow RFO solution 1.
	Using RFO vector 1.
	Norm of target step-size    0.39693
	Projected energy change by RFO approximation:        -0.0050116700

	Back-transformation to cartesian coordinates...
	Could not converge backtransformation.
	Using first guess instead.

	Back-transformation to cartesian coordinates to adjust frozen coordinates...
	Successfully converged to displaced geometry.

	--- Internal Coordinate Step in ANG or DEG, aJ/ANG or AJ/DEG ---
	 ---------------------------------------------------------------------------
	   Coordinate                Previous        Force       Change         New 
	   ----------                --------       ------       ------       ------
	    1 R(1,2)          =      1.407502     0.020453     0.003200     1.410702
	    2 R(1,6)          =      1.407503     0.020450     0.003193     1.410697
	    3 R(1,7)          =      1.466870     0.083658     0.014649     1.481519
	    4 R(2,3)          =      1.391302    -0.008756    -0.001160     1.390141
	    5 R(2,8)          =      1.086388    -0.008451     0.001858     1.088246
	    6 R(3,4)          =      1.398294    -0.015989    -0.002074     1.396220
	    7 R(3,9)          =      1.085142    -0.000331     0.000568     1.085711
	    8 R(4,5)          =      1.398294    -0.015986    -0.002189     1.396105
	    9 R(4,10)         =      1.085649    -0.000924    -0.000118     1.085531
	   10 R(5,6)          =      1.391302    -0.008751    -0.000834     1.390468
	   11 R(5,11)         =      1.085142    -0.000331     0.001199     1.086341
	   12 R(6,12)         =      1.086386    -0.008444     0.001853     1.088240
	   13 R(7,13)         =      1.330061     0.011060     0.001701     1.331762
	   14 R(7,14)         =      1.330061     0.011064     0.002503     1.332564
	   15 R(13,17)        =      1.011575    -0.019730     0.007083     1.018658
	   16 R(13,18)        =      1.013295    -0.006166     0.003597     1.016892
	   17 R(14,15)        =      1.013296    -0.006173     0.001115     1.014411
	   18 R(14,16)        =      1.011575    -0.019730     0.006539     1.018113
	   19 B(1,2,3)        =    119.655376     0.000256     0.870709   120.526085
	   20 B(1,2,8)        =    120.515689     0.000202     1.039703   121.555392
	   21 B(1,6,5)        =    119.655315     0.000256     0.879487   120.534802
	   22 B(1,6,12)       =    120.515729     0.000202     1.129568   121.645297
	   23 B(1,7,13)       =    119.935176     0.000462     1.352144   121.287320
	   24 B(1,7,14)       =    119.935139     0.000462     1.339323   121.274462
	   25 B(2,1,6)        =    120.161857    -0.000510    -1.516804   118.645053
	   26 B(2,1,7)        =    119.919082     0.000255     0.748688   120.667770
	   27 B(2,3,4)        =    120.050636     0.000031     0.027609   120.078245
	   28 B(2,3,9)        =    119.732108    -0.000011    -0.001267   119.730840
	   29 B(3,2,8)        =    119.756722    -0.000450    -1.890224   117.866498
	   30 B(3,4,5)        =    120.423859    -0.000065    -0.296441   120.127419
	   31 B(3,4,10)       =    119.788070     0.000032     0.155396   119.943466
	   32 B(4,3,9)        =    120.214297    -0.000021    -0.023513   120.190783
	   33 B(4,5,6)        =    120.050677     0.000031     0.012494   120.063171
	   34 B(4,5,11)       =    120.214297    -0.000020    -0.041717   120.172579
	   35 B(5,4,10)       =    119.788070     0.000032     0.140696   119.928766
	   36 B(5,6,12)       =    119.756743    -0.000449    -1.979453   117.777290
	   37 B(6,1,7)        =    119.919061     0.000255     0.746773   120.665834
	   38 B(6,5,11)       =    119.732067    -0.000011     0.031307   119.763374
	   39 B(7,13,17)      =    119.886354     0.000298     1.148997   121.035351
	   40 B(7,13,18)      =    122.891412    -0.000159    -0.852014   122.039399
	   41 B(7,14,15)      =    122.891427    -0.000159    -0.875894   122.015533
	   42 B(7,14,16)      =    119.886391     0.000298     1.396636   121.283028
	   43 B(13,7,14)      =    120.129685    -0.000923    -2.711628   117.418058
	   44 B(15,14,16)     =    117.078128    -0.000133    -0.406678   116.671450
	   45 B(17,13,18)     =    117.078182    -0.000133    -0.181923   116.896259
	   46 D(1,2,3,4)      =      0.446825    -0.000015    -2.105758    -1.658933
	   47 D(1,2,3,9)      =   -178.928735    -0.000021    -2.861770  -181.790506
	   48 D(1,6,5,4)      =      0.446822    -0.000012    -1.491405    -1.044583
	   49 D(1,6,5,11)     =   -178.928737    -0.000019    -2.455722  -181.384459
	   50 D(1,7,13,17)    =     10.762636    -0.000062    -7.842250     2.920386
	   51 D(1,7,13,18)    =   -173.730194    -0.000043    -5.369061  -179.099255
	   52 D(1,7,14,15)    =   -173.730220    -0.000033    -3.642577  -177.372798
	   53 D(1,7,14,16)    =     10.762640    -0.000052    -6.076887     4.685753
	   54 D(2,1,6,5)      =     -0.223802     0.000002     0.139689    -0.084113
	   55 D(2,1,6,12)     =   -177.126283    -0.000037    -5.385079  -182.511362
	   56 *D(2,1,7,13)    =    160.000005    -0.000000    -0.000000   160.000005
	   57 D(2,1,7,14)     =    -19.999995    -0.000010    -1.675596   -21.675591
	   58 D(2,3,4,5)      =     -0.225875     0.000006     0.738921     0.513046
	   59 D(2,3,4,10)     =    179.774125     0.000007     0.954019   180.728144
	   60 D(3,2,1,6)      =     -0.223806     0.000011     1.661002     1.437196
	   61 D(3,2,1,7)      =    179.776196     0.000002    -0.008354   179.767841
	   62 D(3,4,5,6)      =     -0.225874     0.000008     1.063368     0.837494
	   63 D(3,4,5,11)     =    179.146646     0.000015     2.032126   181.178772
	   64 D(4,3,2,8)      =    177.373058     0.000029     3.550721   180.923778
	   65 D(4,5,6,12)     =    177.373055     0.000032     3.917784   181.290839
	   66 D(5,4,3,9)      =    179.146646     0.000012     1.498583   180.645229
	   67 D(5,6,1,7)      =    179.776197     0.000012     1.809012   181.585209
	   68 D(6,1,2,8)      =   -177.126287    -0.000029    -4.115996  -181.242283
	   69 D(6,1,7,13)     =    -19.999994    -0.000010    -1.703232   -21.703226
	   70 D(6,1,7,14)     =    160.000006    -0.000020    -3.378827   156.621179
	   71 D(6,5,4,10)     =    179.774126     0.000007     0.848302   180.622428
	   72 D(7,1,2,8)      =      2.873714    -0.000039    -5.785352    -2.911637
	   73 D(7,1,6,12)     =      2.873716    -0.000027    -3.715757    -0.842041
	   74 D(8,2,3,9)      =     -2.002503     0.000023     2.794708     0.792205
	   75 D(9,3,4,10)     =     -0.853354     0.000013     1.713680     0.860327
	   76 D(10,4,5,11)    =     -0.853354     0.000014     1.817060     0.963706
	   77 D(11,5,6,12)    =     -2.002504     0.000025     2.953467     0.950963
	   78 D(13,7,14,15)   =      6.269780    -0.000043    -5.255682     1.014098
	   79 D(13,7,14,16)   =   -169.237360    -0.000062    -7.689991  -176.927351
	   80 D(14,7,13,17)   =   -169.237364    -0.000052    -6.228925  -175.466289
	   81 D(14,7,13,18)   =      6.269806    -0.000033    -3.755736     2.514070
	 ---------------------------------------------------------------------------
	Successfully symmetrized geometry.

  ==> Convergence Check <==

  Measures of convergence in internal coordinates in au.
  Criteria marked as inactive (o), active & met (*), and active & unmet ( ).
  --------------------------------------------------------------------------------------------- ~
   Step     Total Energy     Delta E     MAX Force     RMS Force      MAX Disp      RMS Disp    ~
  --------------------------------------------------------------------------------------------- ~
    Convergence Criteria    1.00e-06 *    3.00e-04 *             o    1.20e-03 *             o  ~
  --------------------------------------------------------------------------------------------- ~
      1    -381.46358803   -3.81e+02      1.21e-02      2.90e-03 o    1.37e-01      4.39e-02 o  ~
  ---------------------------------------------------------------------------------------------

	Writing optimization data to binary file.
	Structure for next step:
	Cartesian Geometry (in Angstrom)
	    C     0.0249069791   0.0017625299  -0.1718724871
	    C     0.0482032082   1.2142916458   0.5487602020
	    C     0.0503478050   1.2095627046   1.9388919236
	    C    -0.0055984508   0.0003280422   2.6346301322
	    C    -0.0530512475  -1.2080014486   1.9369219184
	    C    -0.0271420697  -1.2110898825   0.5466989371
	    C     0.0173918825   0.0032282571  -1.6533719427
	    H     0.1083133163   2.1761394294   0.0432757184
	    H     0.0978395022   2.1493632882   2.4804517245
	    H    -0.0157455379  -0.0002876702   3.7201137949
	    H    -0.1158915272  -2.1483583305   2.4772152935
	    H    -0.0875368343  -2.1725166657   0.0404610015
	    N     0.3857611140  -1.0717010744  -2.3479371936
	    N    -0.3895847819   1.0689785047  -2.3420473286
	    H    -0.4364086076   1.0687224490  -3.3553769805
	    H    -0.6402979665   1.9372355980  -1.8731897236
	    H     0.6407030120  -1.9387229907  -1.8778923716
	    H     0.3977902041  -1.0789343864  -3.3647326184
			--------------------------
			 OPTKING Finished Execution 
			--------------------------

    Structure for next step:
    Molecular point group: c1
    Full point group: C1

    Geometry (in Angstrom), charge = 1, multiplicity = 1:

    C            0.024906979111     0.001762529905    -0.171872487057
    C            0.048203208210     1.214291645847     0.548760201985
    C            0.050347805009     1.209562704600     1.938891923563
    C           -0.005598450774     0.000328042189     2.634630132186
    C           -0.053051247548    -1.208001448591     1.936921918357
    C           -0.027142069666    -1.211089882485     0.546698937122
    C            0.017391882500     0.003228257089    -1.653371942693
    H            0.108313316272     2.176139429412     0.043275718376
    H            0.097839502162     2.149363288198     2.480451724516
    H           -0.015745537855    -0.000287670192     3.720113794939
    H           -0.115891527237    -2.148358330519     2.477215293497
    H           -0.087536834251    -2.172516665698     0.040461001498
    N            0.385761114030    -1.071701074370    -2.347937193557
    N           -0.389584781928     1.068978504674    -2.342047328569
    H           -0.436408607613     1.068722448972    -3.355376980524
    H           -0.640297966541     1.937235598009    -1.873189723591
    H            0.640703012040    -1.938722990686    -1.877892371644
    H            0.397790204078    -1.078934386354    -3.364732618403

gradient() will perform analytic gradient computation.

*** tstart() called on arancio.prib.upf.edu
*** at Sat Sep 29 20:52:18 2018

   => Loading Basis Set <=

    Name: 6-31G*
    Role: ORBITAL
    Keyword: BASIS
    atoms 1-7         entry C          line   111 file /shared/joao/test_parameterize/miniconda3/share/psi4/basis/6-31gs.gbs 
    atoms 8-12, 15-18 entry H          line    44 file /shared/joao/test_parameterize/miniconda3/share/psi4/basis/6-31gs.gbs 
    atoms 13-14       entry N          line   128 file /shared/joao/test_parameterize/miniconda3/share/psi4/basis/6-31gs.gbs 


         ---------------------------------------------------------
                                   SCF
            by Justin Turney, Rob Parrish, Andy Simmonett
                             and Daniel Smith
                              RKS Reference
                        4 Threads,   2861 MiB Core
         ---------------------------------------------------------

  ==> Geometry <==

    Molecular point group: c1
    Full point group: C1

    Geometry (in Angstrom), charge = 1, multiplicity = 1:

       Center              X                  Y                   Z               Mass       
    ------------   -----------------  -----------------  -----------------  -----------------
         C            0.024906979111     0.001762529905    -0.171872487057    12.000000000000
         C            0.048203208210     1.214291645847     0.548760201985    12.000000000000
         C            0.050347805009     1.209562704600     1.938891923563    12.000000000000
         C           -0.005598450774     0.000328042189     2.634630132186    12.000000000000
         C           -0.053051247548    -1.208001448591     1.936921918357    12.000000000000
         C           -0.027142069666    -1.211089882485     0.546698937122    12.000000000000
         C            0.017391882500     0.003228257089    -1.653371942693    12.000000000000
         H            0.108313316272     2.176139429412     0.043275718376     1.007825032070
         H            0.097839502162     2.149363288198     2.480451724516     1.007825032070
         H           -0.015745537855    -0.000287670192     3.720113794939     1.007825032070
         H           -0.115891527237    -2.148358330519     2.477215293497     1.007825032070
         H           -0.087536834251    -2.172516665698     0.040461001498     1.007825032070
         N            0.385761114030    -1.071701074370    -2.347937193557    14.003074004780
         N           -0.389584781928     1.068978504674    -2.342047328569    14.003074004780
         H           -0.436408607613     1.068722448972    -3.355376980524     1.007825032070
         H           -0.640297966541     1.937235598009    -1.873189723591     1.007825032070
         H            0.640703012040    -1.938722990686    -1.877892371644     1.007825032070
         H            0.397790204078    -1.078934386354    -3.364732618403     1.007825032070

  Running in c1 symmetry.

  Rotational constants: A =      0.12330  B =      0.03934  C =      0.03031 [cm^-1]
  Rotational constants: A =   3696.42376  B =   1179.50401  C =    908.62142 [MHz]
  Nuclear repulsion =  415.587000344107253

  Charge       = 1
  Multiplicity = 1
  Electrons    = 64
  Nalpha       = 32
  Nbeta        = 32

  ==> Algorithm <==

  SCF Algorithm Type is DF.
  DIIS enabled.
  MOM disabled.
  Fractional occupation disabled.
  Guess Type is READ.
  Energy threshold   = 1.00e-08
  Density threshold  = 1.00e-08
  Integral threshold = 0.00e+00

  ==> Primary Basis <==

  Basis Set: 6-31G*
    Blend: 6-31G*
    Number of shells: 72
    Number of basis function: 153
    Number of Cartesian functions: 153
    Spherical Harmonics?: false
    Max angular momentum: 2

  ==> DFT Potential <==

   => Composite Functional: B3LYP-D3ZERO <= 

    B3LYP-d3zero Hyb-GGA Exchange-Correlation Functional

    P. J. Stephens, F. J. Devlin, C. F. Chabalowski, and M. J. Frisch, J. Phys. Chem. 98, 11623 (1994)

    Deriv               =              1
    GGA                 =           TRUE
    Meta                =          FALSE

    Exchange Hybrid     =           TRUE
    MP2 Hybrid          =          FALSE

   => Exchange Functionals <=

    0.0800   Slater exchange
    0.7200         Becke 88

   => Exact (HF) Exchange <=

    0.2000               HF 

   => Correlation Functionals <=

    0.1900   Vosko, Wilk & Nusair (VWN5_RPA)
    0.8100   Lee, Yang & Parr

   => Molecular Quadrature <=

    Radial Scheme       =       TREUTLER
    Pruning Scheme      =           FLAT
    Nuclear Scheme      =       TREUTLER

    BS radius alpha     =              1
    Pruning alpha       =              1
    Radial Points       =             75
    Spherical Points    =            302
    Total Points        =         396673
    Total Blocks        =           2959
    Max Points          =            256
    Max Functions       =            148

   => -D3ZERO: Empirical Dispersion <=

    Grimme's -D3 (zero-damping) Dispersion Correction
    Grimme S.; Antony J.; Ehrlich S.; Krieg H. (2010), J. Chem. Phys., 132: 154104

        S6 =   1.000000E+00
        S8 =   1.703000E+00
       SR6 =   1.261000E+00
       SR8 =   1.000000E+00
    ALPHA6 =   1.400000E+01

   => Loading Basis Set <=

    Name: (6-31G* AUX)
    Role: JKFIT
    Keyword: DF_BASIS_SCF
    atoms 1-7         entry C          line   121 file /shared/joao/test_parameterize/miniconda3/share/psi4/basis/cc-pvdz-jkfit.gbs 
    atoms 8-12, 15-18 entry H          line    51 file /shared/joao/test_parameterize/miniconda3/share/psi4/basis/cc-pvdz-jkfit.gbs 
    atoms 13-14       entry N          line   171 file /shared/joao/test_parameterize/miniconda3/share/psi4/basis/cc-pvdz-jkfit.gbs 

  Reading orbitals from file 180, no projection.

  ==> Pre-Iterations <==

   -------------------------------------------------------
    Irrep   Nso     Nmo     Nalpha   Nbeta   Ndocc  Nsocc
   -------------------------------------------------------
     A        153     153       0       0       0       0
   -------------------------------------------------------
    Total     153     153      32      32      32       0
   -------------------------------------------------------

  ==> Integral Setup <==

  ==> DiskDFJK: Density-Fitted J/K Matrices <==

    J tasked:                  Yes
    K tasked:                  Yes
    wK tasked:                  No
    OpenMP threads:              4
    Integrals threads:           4
    Memory (MB):              2002
    Algorithm:                Core
    Integral Cache:           NONE
    Schwarz Cutoff:          1E-12
    Fitting Condition:       1E-12

   => Auxiliary Basis Set <=

  Basis Set: (6-31G* AUX)
    Blend: CC-PVDZ-JKFIT
    Number of shells: 297
    Number of basis function: 954
    Number of Cartesian functions: 954
    Spherical Harmonics?: false
    Max angular momentum: 3

  Minimum eigenvalue in the overlap matrix is 4.7315814264E-04.
  Using Symmetric Orthogonalization.

  SCF Guess: Orbitals guess was supplied from a previous computation.

  ==> Iterations <==

                           Total Energy        Delta E     RMS |[F,P]|

   @DF-RKS iter   0:  -381.42795210007444   -3.81428e+02   1.61856e-03 
   @DF-RKS iter   1:  -381.46643012567040   -3.84780e-02   2.19807e-04 
   @DF-RKS iter   2:  -381.46636471781073    6.54079e-05   2.95992e-04 DIIS
   @DF-RKS iter   3:  -381.46664627495034   -2.81557e-04   7.17469e-05 DIIS
   @DF-RKS iter   4:  -381.46665967719912   -1.34022e-05   3.42905e-05 DIIS
   @DF-RKS iter   5:  -381.46666288596140   -3.20876e-06   8.33294e-06 DIIS
   @DF-RKS iter   6:  -381.46666308347102   -1.97510e-07   2.42022e-06 DIIS
   @DF-RKS iter   7:  -381.46666310024449   -1.67735e-08   3.67839e-07 DIIS
   @DF-RKS iter   8:  -381.46666310054451   -3.00020e-10   1.90616e-07 DIIS
   @DF-RKS iter   9:  -381.46666310065041   -1.05899e-10   3.79261e-08 DIIS
   @DF-RKS iter  10:  -381.46666310065388   -3.46745e-12   2.15242e-08 DIIS
   @DF-RKS iter  11:  -381.46666310065490   -1.02318e-12   3.84141e-09 DIIS

  ==> Post-Iterations <==

    Orbital Energies [Eh]
    ---------------------

    Doubly Occupied:                                                      

       1A    -14.567158     2A    -14.566875     3A    -10.499759  
       4A    -10.379133     5A    -10.360237     6A    -10.359973  
       7A    -10.344240     8A    -10.341784     9A    -10.341671  
      10A     -1.183255    11A     -1.087222    12A     -1.015683  
      13A     -0.926982    14A     -0.904258    15A     -0.846699  
      16A     -0.786056    17A     -0.774131    18A     -0.737704  
      19A     -0.736803    20A     -0.682943    21A     -0.669298  
      22A     -0.629533    23A     -0.614159    24A     -0.596899  
      25A     -0.581423    26A     -0.576492    27A     -0.517762  
      28A     -0.508567    29A     -0.499973    30A     -0.469474  
      31A     -0.412190    32A     -0.406872  

    Virtual:                                                              

      33A     -0.220580    34A     -0.156099    35A     -0.121536  
      36A     -0.116159    37A     -0.075875    38A     -0.072134  
      39A     -0.040460    40A     -0.033943    41A      0.011154  
      42A      0.022364    43A      0.027012    44A      0.064471  
      45A      0.075063    46A      0.077562    47A      0.116634  
      48A      0.132857    49A      0.155953    50A      0.181014  
      51A      0.219283    52A      0.244729    53A      0.299893  
      54A      0.348796    55A      0.351154    56A      0.374563  
      57A      0.391383    58A      0.396760    59A      0.419559  
      60A      0.420200    61A      0.439406    62A      0.453163  
      63A      0.454633    64A      0.469301    65A      0.472785  
      66A      0.473091    67A      0.483774    68A      0.498847  
      69A      0.502250    70A      0.537541    71A      0.558156  
      72A      0.592215    73A      0.619815    74A      0.648896  
      75A      0.662447    76A      0.684120    77A      0.690798  
      78A      0.703918    79A      0.714465    80A      0.735873  
      81A      0.775718    82A      0.778927    83A      0.789121  
      84A      0.804919    85A      0.837226    86A      0.850179  
      87A      0.864094    88A      0.930004    89A      0.968829  
      90A      1.008201    91A      1.026821    92A      1.044891  
      93A      1.065945    94A      1.073463    95A      1.132866  
      96A      1.181987    97A      1.202214    98A      1.271611  
      99A      1.288156   100A      1.315883   101A      1.317880  
     102A      1.340460   103A      1.353341   104A      1.366494  
     105A      1.396104   106A      1.458629   107A      1.502851  
     108A      1.606991   109A      1.613161   110A      1.647419  
     111A      1.661379   112A      1.739327   113A      1.744187  
     114A      1.800889   115A      1.817159   116A      1.847169  
     117A      1.895937   118A      1.922871   119A      1.946510  
     120A      1.975263   121A      1.987189   122A      2.023677  
     123A      2.025558   124A      2.084622   125A      2.106921  
     126A      2.114130   127A      2.154012   128A      2.216457  
     129A      2.230700   130A      2.259771   131A      2.320643  
     132A      2.351768   133A      2.441142   134A      2.466202  
     135A      2.487519   136A      2.506838   137A      2.531052  
     138A      2.592770   139A      2.609242   140A      2.638680  
     141A      2.735781   142A      2.886230   143A      2.991755  
     144A      3.256081   145A      3.636452   146A      3.671911  
     147A      3.899454   148A      3.946565   149A      3.960323  
     150A      4.045060   151A      4.169452   152A      4.257626  
     153A      4.544422  

    Final Occupation by Irrep:
              A 
    DOCC [    32 ]

  Energy converged.

  @DF-RKS Final Energy:  -381.46666310065490

   => Energetics <=

    Nuclear Repulsion Energy =            415.5870003441072527
    One-Electron Energy =               -1326.3191876990163109
    Two-Electron Energy =                 573.6690622127354118
    DFT Exchange-Correlation Energy =     -44.3919484984813337
    Empirical Dispersion Energy =          -0.0115894600000000
    VV10 Nonlocal Energy =                  0.0000000000000000
    Total Energy =                       -381.4666631006548982



Properties will be evaluated at   0.000000,   0.000000,   0.000000 [a0]

Properties computed using the SCF density matrix

  Nuclear Dipole Moment: [e a0]
     X:     0.4769      Y:     0.0644      Z:     0.2729

  Electronic Dipole Moment: [e a0]
     X:    -0.4920      Y:    -0.0676      Z:    -2.4932

  Dipole Moment: [e a0]
     X:    -0.0151      Y:    -0.0033      Z:    -2.2204     Total:     2.2204

  Dipole Moment: [D]
     X:    -0.0385      Y:    -0.0083      Z:    -5.6436     Total:     5.6437


*** tstop() called on arancio.prib.upf.edu at Sat Sep 29 20:52:40 2018
Module time:
	user time   =      78.09 seconds =       1.30 minutes
	system time =       0.37 seconds =       0.01 minutes
	total time  =         22 seconds =       0.37 minutes
Total time:
	user time   =     196.02 seconds =       3.27 minutes
	system time =       1.10 seconds =       0.02 minutes
	total time  =         55 seconds =       0.92 minutes

*** tstart() called on arancio.prib.upf.edu
*** at Sat Sep 29 20:52:40 2018


         ------------------------------------------------------------
                                   SCF GRAD                          
                          Rob Parrish, Justin Turney,                
                       Andy Simmonett, and Alex Sokolov              
         ------------------------------------------------------------

  ==> Geometry <==

    Molecular point group: c1
    Full point group: C1

    Geometry (in Angstrom), charge = 1, multiplicity = 1:

       Center              X                  Y                   Z               Mass       
    ------------   -----------------  -----------------  -----------------  -----------------
         C            0.024906979111     0.001762529905    -0.171872487057    12.000000000000
         C            0.048203208210     1.214291645847     0.548760201985    12.000000000000
         C            0.050347805009     1.209562704600     1.938891923563    12.000000000000
         C           -0.005598450774     0.000328042189     2.634630132186    12.000000000000
         C           -0.053051247548    -1.208001448591     1.936921918357    12.000000000000
         C           -0.027142069666    -1.211089882485     0.546698937122    12.000000000000
         C            0.017391882500     0.003228257089    -1.653371942693    12.000000000000
         H            0.108313316272     2.176139429412     0.043275718376     1.007825032070
         H            0.097839502162     2.149363288198     2.480451724516     1.007825032070
         H           -0.015745537855    -0.000287670192     3.720113794939     1.007825032070
         H           -0.115891527237    -2.148358330519     2.477215293497     1.007825032070
         H           -0.087536834251    -2.172516665698     0.040461001498     1.007825032070
         N            0.385761114030    -1.071701074370    -2.347937193557    14.003074004780
         N           -0.389584781928     1.068978504674    -2.342047328569    14.003074004780
         H           -0.436408607613     1.068722448972    -3.355376980524     1.007825032070
         H           -0.640297966541     1.937235598009    -1.873189723591     1.007825032070
         H            0.640703012040    -1.938722990686    -1.877892371644     1.007825032070
         H            0.397790204078    -1.078934386354    -3.364732618403     1.007825032070

  Nuclear repulsion =  415.587000344107253

  ==> Basis Set <==

  Basis Set: 6-31G*
    Blend: 6-31G*
    Number of shells: 72
    Number of basis function: 153
    Number of Cartesian functions: 153
    Spherical Harmonics?: false
    Max angular momentum: 2

  ==> DFJKGrad: Density-Fitted SCF Gradients <==

    Gradient:                    1
    J tasked:                  Yes
    K tasked:                  Yes
    wK tasked:                  No
    OpenMP threads:              4
    Integrals threads:           4
    Memory (MB):              2002
    Schwarz Cutoff:          0E+00
    Fitting Condition:       1E-12

   => Auxiliary Basis Set <=

  Basis Set: (6-31G* AUX)
    Blend: CC-PVDZ-JKFIT
    Number of shells: 297
    Number of basis function: 954
    Number of Cartesian functions: 954
    Spherical Harmonics?: false
    Max angular momentum: 3

  ==> DFT Potential <==

   => Composite Functional: B3LYP-D3ZERO <= 

    B3LYP-d3zero Hyb-GGA Exchange-Correlation Functional

    P. J. Stephens, F. J. Devlin, C. F. Chabalowski, and M. J. Frisch, J. Phys. Chem. 98, 11623 (1994)

    Deriv               =              1
    GGA                 =           TRUE
    Meta                =          FALSE

    Exchange Hybrid     =           TRUE
    MP2 Hybrid          =          FALSE

   => Exchange Functionals <=

    0.0800   Slater exchange
    0.7200         Becke 88

   => Exact (HF) Exchange <=

    0.2000               HF 

   => Correlation Functionals <=

    0.1900   Vosko, Wilk & Nusair (VWN5_RPA)
    0.8100   Lee, Yang & Parr

   => Molecular Quadrature <=

    Radial Scheme       =       TREUTLER
    Pruning Scheme      =           FLAT
    Nuclear Scheme      =       TREUTLER

    BS radius alpha     =              1
    Pruning alpha       =              1
    Radial Points       =             75
    Spherical Points    =            302
    Total Points        =         396673
    Total Blocks        =           2959
    Max Points          =            256
    Max Functions       =            148


  -Total Gradient:
     Atom            X                  Y                   Z
    ------   -----------------  -----------------  -----------------
       1        0.001455351134    -0.000506013307     0.002356626503
       2       -0.001558562537    -0.001464301591     0.003074215295
       3        0.000427341345    -0.000291769659    -0.000026819305
       4        0.000097223744     0.000029308922    -0.001175976594
       5       -0.000370938177     0.000422245157    -0.000094114858
       6       -0.000110832388     0.001735565231     0.002928608589
       7        0.003197210913     0.000710943686    -0.001068936045
       8       -0.000898281321     0.001503196301     0.000428075091
       9        0.000370131275     0.000240840249     0.000550634700
      10       -0.000038249647    -0.000022613520    -0.000066039827
      11       -0.000374567254    -0.000583446624     0.000836122195
      12        0.000612359228    -0.001580751279     0.000507746117
      13       -0.001156545070     0.007586180945    -0.003843483936
      14       -0.001008732497    -0.007712543517    -0.005534325231
      15       -0.001424123958    -0.001408107180    -0.001692258628
      16        0.000735937241     0.006847983401     0.002992023644
      17       -0.001111779418    -0.007064134382     0.003773703969
      18        0.001153083537     0.001559391868    -0.003958434135


*** tstop() called on arancio.prib.upf.edu at Sat Sep 29 20:52:46 2018
Module time:
	user time   =      23.81 seconds =       0.40 minutes
	system time =       0.18 seconds =       0.00 minutes
	total time  =          6 seconds =       0.10 minutes
Total time:
	user time   =     219.89 seconds =       3.66 minutes
	system time =       1.29 seconds =       0.02 minutes
	total time  =         61 seconds =       1.02 minutes

			-----------------------------------------
			 OPTKING 2.0: for geometry optimizations 
			  - R.A. King,  Bethel University        
			-----------------------------------------
	At level 1: Red. Int., RFO, no backsteps, dynamic trust

	Previous internal coordinate definitions found.
	---Fragment 1 Geometry and Gradient---
	 C           0.0470673693        0.0033306988       -0.3247919303
	 C           0.0910908622        2.2946786561        1.0370064944
	 C           0.0951435629        2.2857422522        3.6639747368
	 C          -0.0105795387        0.0006199099        4.9787294113
	 C          -0.1002523289       -2.2827919060        3.6602519665
	 C          -0.0512910783       -2.2886282002        1.0331112683
	 C           0.0328658949        0.0061005218       -3.1244201675
	 H           0.2046825043        4.1123075486        0.0817792559
	 H           0.1848898641        4.0617079748        4.6873744452
	 H          -0.0297547544       -0.0005436179        7.0299962556
	 H          -0.2190032476       -4.0598088800        4.6812584769
	 H          -0.1654206433       -4.1054615173        0.0764602119
	 N           0.7289828582       -2.0252215269       -4.4369582730
	 N          -0.7362085434        2.0200766158       -4.4258280413
	 H          -0.8246927504        2.0195927406       -6.3407435658
	 H          -1.2099878002        3.6608447351       -3.5398155725
	 H           1.2107532253       -3.6636554999       -3.5487022894
	 H           0.7517145441       -2.0388905056       -6.3584231592
	             0.0014553511       -0.0005060133        0.0023566265
	            -0.0015585625       -0.0014643016        0.0030742153
	             0.0004273413       -0.0002917697       -0.0000268193
	             0.0000972237        0.0000293089       -0.0011759766
	            -0.0003709382        0.0004222452       -0.0000941149
	            -0.0001108324        0.0017355652        0.0029286086
	             0.0031972109        0.0007109437       -0.0010689360
	            -0.0008982813        0.0015031963        0.0004280751
	             0.0003701313        0.0002408402        0.0005506347
	            -0.0000382496       -0.0000226135       -0.0000660398
	            -0.0003745673       -0.0005834466        0.0008361222
	             0.0006123592       -0.0015807513        0.0005077461
	            -0.0011565451        0.0075861809       -0.0038434839
	            -0.0010087325       -0.0077125435       -0.0055343252
	            -0.0014241240       -0.0014081072       -0.0016922586
	             0.0007359372        0.0068479834        0.0029920236
	            -0.0011117794       -0.0070641344        0.0037737040
	             0.0011530835        0.0015593919       -0.0039584341

	---Fragment 1 Intrafragment Coordinates---
	 - Coordinate -           - BOHR/RAD -       - ANG/DEG -
	 R(1,2)           =         2.665841	       1.410702
	 R(1,6)           =         2.665830	       1.410697
	 R(1,7)           =         2.799666	       1.481519
	 R(2,3)           =         2.626987	       1.390141
	 R(2,8)           =         2.056487	       1.088246
	 R(3,4)           =         2.638473	       1.396220
	 R(3,9)           =         2.051696	       1.085711
	 R(4,5)           =         2.638256	       1.396105
	 R(4,10)          =         2.051357	       1.085531
	 R(5,6)           =         2.627603	       1.390468
	 R(5,11)          =         2.052887	       1.086341
	 R(6,12)          =         2.056475	       1.088240
	 R(7,13)          =         2.516665	       1.331762
	 R(7,14)          =         2.518181	       1.332564
	 R(13,17)         =         1.924985	       1.018658
	 R(13,18)         =         1.921648	       1.016892
	 R(14,15)         =         1.916959	       1.014411
	 R(14,16)         =         1.923956	       1.018113
	 B(1,2,3)         =         2.103577	     120.526085
	 B(1,2,8)         =         2.121542	     121.555392
	 B(1,6,5)         =         2.103729	     120.534802
	 B(1,6,12)        =         2.123111	     121.645297
	 B(1,7,13)        =         2.116863	     121.287320
	 B(1,7,14)        =         2.116639	     121.274462
	 B(2,1,6)         =         2.070747	     118.645053
	 B(2,1,7)         =         2.106050	     120.667770
	 B(2,3,4)         =         2.095761	     120.078245
	 B(2,3,9)         =         2.089697	     119.730840
	 B(3,2,8)         =         2.057158	     117.866498
	 B(3,4,5)         =         2.096619	     120.127419
	 B(3,4,10)        =         2.093408	     119.943466
	 B(4,3,9)         =         2.097725	     120.190783
	 B(4,5,6)         =         2.095498	     120.063171
	 B(4,5,11)        =         2.097407	     120.172579
	 B(5,4,10)        =         2.093152	     119.928766
	 B(5,6,12)        =         2.055601	     117.777290
	 B(6,1,7)         =         2.106016	     120.665834
	 B(6,5,11)        =         2.090265	     119.763374
	 B(7,13,17)       =         2.112465	     121.035351
	 B(7,13,18)       =         2.129989	     122.039399
	 B(7,14,15)       =         2.129573	     122.015533
	 B(7,14,16)       =         2.116788	     121.283028
	 B(13,7,14)       =         2.049332	     117.418058
	 B(15,14,16)      =         2.036301	     116.671450
	 B(17,13,18)      =         2.040225	     116.896259
	 D(1,2,3,4)       =        -0.028954	      -1.658933
	 D(1,2,3,9)       =         3.110342	     178.209494
	 D(1,6,5,4)       =        -0.018231	      -1.044583
	 D(1,6,5,11)      =         3.117429	     178.615541
	 D(1,7,13,17)     =         0.050970	       2.920386
	 D(1,7,13,18)     =        -3.125872	    -179.099255
	 D(1,7,14,15)     =        -3.095739	    -177.372798
	 D(1,7,14,16)     =         0.081782	       4.685753
	 D(2,1,6,5)       =        -0.001468	      -0.084113
	 D(2,1,6,12)      =         3.097761	     177.488638
	*D(2,1,7,13)      =         2.792527	     160.000005
	 D(2,1,7,14)      =        -0.378310	     -21.675591
	 D(2,3,4,5)       =         0.008954	       0.513046
	 D(2,3,4,10)      =        -3.128884	    -179.271856
	 D(3,2,1,6)       =         0.025084	       1.437196
	 D(3,2,1,7)       =         3.137541	     179.767841
	 D(3,4,5,6)       =         0.014617	       0.837494
	 D(3,4,5,11)      =        -3.121019	    -178.821228
	 D(4,3,2,8)       =        -3.125470	    -179.076222
	 D(4,5,6,12)      =        -3.119063	    -178.709161
	 D(5,4,3,9)       =        -3.130331	    -179.354771
	 D(5,6,1,7)       =        -3.113926	    -178.414791
	 D(6,1,2,8)       =         3.119911	     178.757717
	 D(6,1,7,13)      =        -0.378793	     -21.703226
	 D(6,1,7,14)      =         2.733555	     156.621179
	 D(6,5,4,10)      =        -3.130729	    -179.377572
	 D(7,1,2,8)       =        -0.050818	      -2.911637
	 D(7,1,6,12)      =        -0.014696	      -0.842041
	 D(8,2,3,9)       =         0.013827	       0.792205
	 D(9,3,4,10)      =         0.015016	       0.860327
	 D(10,4,5,11)     =         0.016820	       0.963706
	 D(11,5,6,12)     =         0.016597	       0.950963
	 D(13,7,14,15)    =         0.017699	       1.014098
	 D(13,7,14,16)    =        -3.087965	    -176.927351
	 D(14,7,13,17)    =        -3.062464	    -175.466289
	 D(14,7,13,18)    =         0.043879	       2.514070

	Current energy   :      -381.4666631007

	Energy change for the previous step:
		Projected    :        -0.0050116700
		Actual       :        -0.0030750726

	Performing BFGS update.
	Previous computed or guess Hessian on step 1.
	Steps to be used in Hessian update: 1
	Taking RFO optimization step.
	Going to follow RFO solution 1.
	Using RFO vector 1.
	Norm of target step-size    0.32784
	Projected energy change by RFO approximation:         0.0003867363

	Back-transformation to cartesian coordinates...
	Could not converge backtransformation.
	Using first guess instead.

	Back-transformation to cartesian coordinates to adjust frozen coordinates...
	Successfully converged to displaced geometry.

	--- Internal Coordinate Step in ANG or DEG, aJ/ANG or AJ/DEG ---
	 ---------------------------------------------------------------------------
	   Coordinate                Previous        Force       Change         New 
	   ----------                --------       ------       ------       ------
	    1 R(1,2)          =      1.410702    -0.022867    -0.002423     1.408280
	    2 R(1,6)          =      1.410697    -0.023457    -0.002426     1.408271
	    3 R(1,7)          =      1.481519    -0.076828    -0.009051     1.472469
	    4 R(2,3)          =      1.390141     0.000492    -0.000201     1.389940
	    5 R(2,8)          =      1.088246    -0.008896    -0.000179     1.088067
	    6 R(3,4)          =      1.396220     0.011063     0.001064     1.397284
	    7 R(3,9)          =      1.085711    -0.004116    -0.000551     1.085160
	    8 R(4,5)          =      1.396105     0.011335     0.001036     1.397140
	    9 R(4,10)         =      1.085531     0.000535     0.000073     1.085604
	   10 R(5,6)          =      1.390468    -0.000727    -0.000357     1.390111
	   11 R(5,11)         =      1.086341    -0.007769    -0.000952     1.085389
	   12 R(6,12)         =      1.088240    -0.009277    -0.000368     1.087872
	   13 R(7,13)         =      1.331762    -0.000924     0.000435     1.332197
	   14 R(7,14)         =      1.332564    -0.007309     0.000063     1.332628
	   15 R(13,17)        =      1.018658    -0.061596     0.001299     1.019958
	   16 R(13,18)        =      1.016892    -0.032624    -0.000955     1.015938
	   17 R(14,15)        =      1.014411    -0.014467     0.000245     1.014656
	   18 R(14,16)        =      1.018113    -0.057972    -0.000704     1.017410
	   19 B(1,2,3)        =    120.526085    -0.000104    -0.127214   120.398871
	   20 B(1,2,8)        =    121.555392    -0.000032     0.040892   121.596284
	   21 B(1,6,5)        =    120.534802    -0.000111    -0.147456   120.387346
	   22 B(1,6,12)       =    121.645297    -0.000036     0.075765   121.721062
	   23 B(1,7,13)       =    121.287320    -0.000328    -0.568535   120.718785
	   24 B(1,7,14)       =    121.274462    -0.000336    -0.594599   120.679863
	   25 B(2,1,6)        =    118.645053     0.000271     0.320024   118.965077
	   26 B(2,1,7)        =    120.667770    -0.000130    -0.158839   120.508931
	   27 B(2,3,4)        =    120.078245    -0.000020     0.007296   120.085541
	   28 B(2,3,9)        =    119.730840    -0.000017    -0.130391   119.600450
	   29 B(3,2,8)        =    117.866498     0.000136    -0.018555   117.847943
	   30 B(3,4,5)        =    120.127419    -0.000026    -0.078090   120.049329
	   31 B(3,4,10)       =    119.943466     0.000011     0.033361   119.976827
	   32 B(4,3,9)        =    120.190783     0.000037     0.118788   120.309572
	   33 B(4,5,6)        =    120.063171    -0.000008     0.034800   120.097971
	   34 B(4,5,11)       =    120.172579     0.000038     0.122134   120.294713
	   35 B(5,4,10)       =    119.928766     0.000015     0.044715   119.973481
	   36 B(5,6,12)       =    117.777290     0.000146    -0.015476   117.761814
	   37 B(6,1,7)        =    120.665834    -0.000141    -0.199861   120.465973
	   38 B(6,5,11)       =    119.763374    -0.000030    -0.165092   119.598281
	   39 B(7,13,17)      =    121.035351    -0.000006     0.039747   121.075098
	   40 B(7,13,18)      =    122.039399     0.000089     0.105323   122.144722
	   41 B(7,14,15)      =    122.015533     0.000089     0.080788   122.096321
	   42 B(7,14,16)      =    121.283028    -0.000048     0.043806   121.326834
	   43 B(13,7,14)      =    117.418058     0.000664     1.162624   118.580682
	   44 B(15,14,16)     =    116.671450    -0.000039    -0.095883   116.575568
	   45 B(17,13,18)     =    116.896259    -0.000080    -0.136293   116.759966
	   46 D(1,2,3,4)      =     -1.658933     0.000007     0.418405    -1.240528
	   47 D(1,2,3,9)      =    178.209494     0.000004    -0.213892   177.995602
	   48 D(1,6,5,4)      =     -1.044583     0.000007     0.686825    -0.357758
	   49 D(1,6,5,11)     =    178.615541     0.000004    -0.063317   178.552224
	   50 D(1,7,13,17)    =      2.920386    -0.000044    -7.985958    -5.065572
	   51 D(1,7,13,18)    =   -179.099255    -0.000022    -4.277550  -183.376805
	   52 D(1,7,14,15)    =   -177.372798    -0.000025    -4.583369  -181.956167
	   53 D(1,7,14,16)    =      4.685753    -0.000038    -7.067254    -2.381500
	   54 D(2,1,6,5)      =     -0.084113    -0.000004    -0.564410    -0.648522
	   55 D(2,1,6,12)     =    177.488638    -0.000006    -2.371754   175.116884
	   56 *D(2,1,7,13)    =    160.000005    -0.000000     0.000000   160.000005
	   57 D(2,1,7,14)     =    -21.675591     0.000004    -0.001679   -21.677270
	   58 D(2,3,4,5)      =      0.513046    -0.000003    -0.295608     0.217438
	   59 D(2,3,4,10)     =   -179.271856    -0.000003    -0.291524  -179.563380
	   60 D(3,2,1,6)      =      1.437196    -0.000002     0.011522     1.448718
	   61 D(3,2,1,7)      =    179.767841    -0.000007    -1.123341   178.644500
	   62 D(3,4,5,6)      =      0.837494    -0.000003    -0.255428     0.582066
	   63 D(3,4,5,11)     =   -178.821228    -0.000000     0.500973  -178.320254
	   64 D(4,3,2,8)      =   -179.076222     0.000010     2.316104  -176.760117
	   65 D(4,5,6,12)     =   -178.709161     0.000010     2.421700  -176.287461
	   66 D(5,4,3,9)      =   -179.354771    -0.000000     0.341547  -179.013224
	   67 D(5,6,1,7)      =   -178.414791     0.000001     0.569249  -177.845542
	   68 D(6,1,2,8)      =    178.757717    -0.000005    -1.960363   176.797354
	   69 D(6,1,7,13)     =    -21.703226    -0.000003    -1.143267   -22.846493
	   70 D(6,1,7,14)     =    156.621179     0.000001    -1.144946   155.476232
	   71 D(6,5,4,10)     =   -179.377572    -0.000003    -0.259536  -179.637108
	   72 D(7,1,2,8)      =     -2.911637    -0.000010    -3.095227    -6.006864
	   73 D(7,1,6,12)     =     -0.842041    -0.000001    -1.238095    -2.080136
	   74 D(8,2,3,9)      =      0.792205     0.000007     1.683807     2.476013
	   75 D(9,3,4,10)     =      0.860327    -0.000001     0.345631     1.205958
	   76 D(10,4,5,11)    =      0.963706     0.000000     0.496864     1.460571
	   77 D(11,5,6,12)    =      0.950963     0.000006     1.671557     2.622520
	   78 D(13,7,14,15)   =      1.014098    -0.000024    -4.612272    -3.598174
	   79 D(13,7,14,16)   =   -176.927351    -0.000037    -7.096156  -184.023508
	   80 D(14,7,13,17)   =   -175.466289    -0.000044    -7.956613  -183.422902
	   81 D(14,7,13,18)   =      2.514070    -0.000022    -4.248205    -1.734135
	 ---------------------------------------------------------------------------
	Successfully symmetrized geometry.

  ==> Convergence Check <==

  Measures of convergence in internal coordinates in au.
  Criteria marked as inactive (o), active & met (*), and active & unmet ( ).
  ---------------------------------------------------------------------------------------------
   Step     Total Energy     Delta E     MAX Force     RMS Force      MAX Disp      RMS Disp   
  ---------------------------------------------------------------------------------------------
    Convergence Criteria    1.00e-06 *    3.00e-04 *             o    1.20e-03 *             o
  ---------------------------------------------------------------------------------------------
      2    -381.46666310   -3.08e-03      9.33e-03      2.27e-03 o    1.39e-01      3.64e-02 o  ~
  ---------------------------------------------------------------------------------------------

	Writing optimization data to binary file.
	Structure for next step:
	Cartesian Geometry (in Angstrom)
	    C     0.0374342841   0.0009975356  -0.1774002647
	    C     0.0644053877   1.2136862320   0.5380788168
	    C     0.0537450254   1.2106645338   1.9279749966
	    C    -0.0100708305   0.0015200293   2.6253269001
	    C    -0.0587182044  -1.2073649056   1.9265909296
	    C    -0.0315577249  -1.2108010188   0.5367497692
	    C     0.0186467104   0.0019928603  -1.6497487558
	    H     0.1690411644   2.1715567320   0.0326825276
	    H     0.1078033444   2.1512381844   2.4664649219
	    H    -0.0254554010   0.0015503016   3.7108221416
	    H    -0.1357798983  -2.1474439396   2.4636041212
	    H    -0.1334346563  -2.1681906334   0.0303001300
	    N     0.3857625476  -1.0793910762  -2.3357388936
	    N    -0.3976257817   1.0736103791  -2.3237288508
	    H    -0.3921527832   1.1084121478  -3.3377730483
	    H    -0.7446498392   1.8997159032  -1.8418088936
	    H     0.7590984195  -1.9018184620  -1.8618751608
	    H     0.3335082362  -1.1199348034  -3.3495213868
			--------------------------
			 OPTKING Finished Execution 
			--------------------------

    Structure for next step:
    Molecular point group: c1
    Full point group: C1

    Geometry (in Angstrom), charge = 1, multiplicity = 1:

    C            0.037434284138     0.000997535575    -0.177400264709
    C            0.064405387705     1.213686232030     0.538078816759
    C            0.053745025363     1.210664533817     1.927974996572
    C           -0.010070830500     0.001520029328     2.625326900061
    C           -0.058718204436    -1.207364905648     1.926590929603
    C           -0.031557724945    -1.210801018807     0.536749769168
    C            0.018646710356     0.001992860287    -1.649748755759
    H            0.169041164357     2.171556732011     0.032682527558
    H            0.107803344360     2.151238184413     2.466464921897
    H           -0.025455401046     0.001550301618     3.710822141583
    H           -0.135779898325    -2.147443939604     2.463604121160
    H           -0.133434656251    -2.168190633401     0.030300129985
    N            0.385762547558    -1.079391076243    -2.335738893634
    N           -0.397625781670     1.073610379056    -2.323728850789
    H           -0.392152783159     1.108412147839    -3.337773048263
    H           -0.744649839154     1.899715903164    -1.841808893614
    H            0.759098419500    -1.901818462005    -1.861875160808
    H            0.333508236151    -1.119934803431    -3.349521386768

gradient() will perform analytic gradient computation.

*** tstart() called on arancio.prib.upf.edu
*** at Sat Sep 29 20:52:46 2018

   => Loading Basis Set <=

    Name: 6-31G*
    Role: ORBITAL
    Keyword: BASIS
    atoms 1-7         entry C          line   111 file /shared/joao/test_parameterize/miniconda3/share/psi4/basis/6-31gs.gbs 
    atoms 8-12, 15-18 entry H          line    44 file /shared/joao/test_parameterize/miniconda3/share/psi4/basis/6-31gs.gbs 
    atoms 13-14       entry N          line   128 file /shared/joao/test_parameterize/miniconda3/share/psi4/basis/6-31gs.gbs 


         ---------------------------------------------------------
                                   SCF
            by Justin Turney, Rob Parrish, Andy Simmonett
                             and Daniel Smith
                              RKS Reference
                        4 Threads,   2861 MiB Core
         ---------------------------------------------------------

  ==> Geometry <==

    Molecular point group: c1
    Full point group: C1

    Geometry (in Angstrom), charge = 1, multiplicity = 1:

[...]
	             0.0000023838       -0.0000011799       -0.0000000951
	            -0.0000029689       -0.0000001541       -0.0000002799
	            -0.0000008373        0.0000010810       -0.0000006603
	            -0.0000033431        0.0000024499        0.0000043594
	            -0.0036200841       -0.0012166606        0.0000718594
	            -0.0000454841        0.0000196632        0.0000108050
	             0.0000165278       -0.0000029494        0.0000005748
	             0.0000138098       -0.0000093234       -0.0000104261
	            -0.0000128666        0.0000074981       -0.0000177170
	            -0.0000183504        0.0000096939        0.0000028627

	---Fragment 1 Intrafragment Coordinates---
	 - Coordinate -           - BOHR/RAD -       - ANG/DEG -
	 R(1,2)           =         2.662596	       1.408985
	 R(1,6)           =         2.662515	       1.408942
	 R(1,7)           =         2.771309	       1.466514
	 R(2,3)           =         2.627159	       1.390233
	 R(2,8)           =         2.052849	       1.086321
	 R(3,4)           =         2.642267	       1.398227
	 R(3,9)           =         2.050487	       1.085071
	 R(4,5)           =         2.641587	       1.397868
	 R(4,10)          =         2.051551	       1.085634
	 R(5,6)           =         2.627864	       1.390606
	 R(5,11)          =         2.050513	       1.085084
	 R(6,12)          =         2.052077	       1.085912
	 R(7,13)          =         2.517779	       1.332351
	 R(7,14)          =         2.516407	       1.331625
	 R(13,17)         =         1.910527	       1.011007
	 R(13,18)         =         1.914080	       1.012888
	 R(14,15)         =         1.914036	       1.012864
	 R(14,16)         =         1.910047	       1.010753
	 B(1,2,3)         =         2.095333	     120.053711
	 B(1,2,8)         =         2.108800	     120.825349
	 B(1,6,5)         =         2.094698	     120.017352
	 B(1,6,12)        =         2.110315	     120.912157
	 B(1,7,13)        =         2.101880	     120.428862
	 B(1,7,14)        =         2.101394	     120.401033
	 B(2,1,6)         =         2.085962	     119.516796
	 B(2,1,7)         =         2.099541	     120.294819
	 B(2,3,4)         =         2.095272	     120.050237
	 B(2,3,9)         =         2.089281	     119.706957
	 B(3,2,8)         =         2.076888	     118.996941
	 B(3,4,5)         =         2.099099	     120.269541
	 B(3,4,10)        =         2.091970	     119.861042
	 B(4,3,9)         =         2.098585	     120.240077
	 B(4,5,6)         =         2.095760	     120.078209
	 B(4,5,11)        =         2.098492	     120.234723
	 B(5,4,10)        =         2.092107	     119.868915
	 B(5,6,12)        =         2.076772	     118.990293
	 B(6,1,7)         =         2.095560	     120.066772
	 B(6,5,11)        =         2.088782	     119.678364
	 B(7,13,17)       =         2.100161	     120.330353
	 B(7,13,18)       =         2.136230	     122.396988
	 B(7,14,15)       =         2.138049	     122.501211
	 B(7,14,16)       =         2.102621	     120.471336
	 B(13,7,14)       =         2.078993	     119.117552
	 B(15,14,16)      =         2.037745	     116.754214
	 B(17,13,18)      =         2.035110	     116.603206
	 D(1,2,3,4)       =        -0.009865	      -0.565201
	 D(1,2,3,9)       =         3.121266	     178.835346
	 D(1,6,5,4)       =         0.011393	       0.652760
	 D(1,6,5,11)      =         3.134301	     179.582238
	 D(1,7,13,17)     =        -0.273894	     -15.692987
	 D(1,7,13,18)     =         3.036973	     174.005712
	 D(1,7,14,15)     =         3.059937	     175.321488
	 D(1,7,14,16)     =        -0.189886	     -10.879690
	 D(2,1,6,5)       =        -0.024027	      -1.376647
	 D(2,1,6,12)      =         3.060157	     175.334057
	*D(2,1,7,13)      =         2.792527	     160.000005
	 D(2,1,7,14)      =        -0.395485	     -22.659633
	 D(2,3,4,5)       =        -0.002957	      -0.169402
	 D(2,3,4,10)      =        -3.140042	    -179.911167
	 D(3,2,1,6)       =         0.023268	       1.333154
	 D(3,2,1,7)       =         3.094943	     177.327144
	 D(3,4,5,6)       =         0.002186	       0.125264
	 D(3,4,5,11)      =        -3.120617	    -178.798205
	 D(4,3,2,8)       =        -3.081396	    -176.550997
	 D(4,5,6,12)      =        -3.073891	    -176.120984
	 D(5,4,3,9)       =        -3.134031	    -179.566724
	 D(5,6,1,7)       =        -3.095864	    -177.379914
	 D(6,1,2,8)       =         3.093499	     177.244441
	 D(6,1,7,13)      =        -0.419370	     -24.028118
	 D(6,1,7,14)      =         2.675803	     153.312245
	 D(6,5,4,10)      =         3.139272	     179.867010
	 D(7,1,2,8)       =        -0.118012	      -6.761569
	 D(7,1,6,12)      =        -0.011680	      -0.669211
	 D(8,2,3,9)       =         0.049734	       2.849551
	 D(9,3,4,10)      =         0.012069	       0.691511
	 D(10,4,5,11)     =         0.016468	       0.943541
	 D(11,5,6,12)     =         0.049017	       2.808494
	 D(13,7,14,15)    =        -0.127471	      -7.303527
	 D(13,7,14,16)    =         2.905891	     166.495295
	 D(14,7,13,17)    =         2.913527	     166.932778
	 D(14,7,13,18)    =        -0.058792	      -3.368523

	Current energy   :      -381.4692759263

	Energy change for the previous step:
		Projected    :         0.0000000210
		Actual       :        -0.0000001688

	Performing BFGS update.
	Previous computed or guess Hessian on step 1.
	Steps to be used in Hessian update: 7 6
	Taking RFO optimization step.
	Going to follow RFO solution 1.
	Rejecting RFO root 1 because normalization gives large value.
	Rejecting RFO root 2 because normalization gives large value.
	Using RFO vector 3.
	Norm of target step-size    0.00137
	Projected energy change by RFO approximation:         0.0000000541

	Back-transformation to cartesian coordinates...
	Successfully converged to displaced geometry.

	Back-transformation to cartesian coordinates to adjust frozen coordinates...
	Successfully converged to displaced geometry.

	--- Internal Coordinate Step in ANG or DEG, aJ/ANG or AJ/DEG ---
	 ---------------------------------------------------------------------------
	   Coordinate                Previous        Force       Change         New 
	   ----------                --------       ------       ------       ------
	    1 R(1,2)          =      1.408985     0.000047     0.000011     1.408996
	    2 R(1,6)          =      1.408942    -0.000030    -0.000000     1.408942
	    3 R(1,7)          =      1.466514     0.000177     0.000016     1.466530
	    4 R(2,3)          =      1.390233     0.000044     0.000005     1.390237
	    5 R(2,8)          =      1.086321     0.000016     0.000003     1.086324
	    6 R(3,4)          =      1.398227    -0.000007    -0.000004     1.398224
	    7 R(3,9)          =      1.085071     0.000006     0.000001     1.085072
	    8 R(4,5)          =      1.397868     0.000010     0.000000     1.397868
	    9 R(4,10)         =      1.085634    -0.000004    -0.000001     1.085633
	   10 R(5,6)          =      1.390606     0.000028     0.000001     1.390607
	   11 R(5,11)         =      1.085084     0.000005     0.000001     1.085085
	   12 R(6,12)         =      1.085912     0.000033     0.000006     1.085919
	   13 R(7,13)         =      1.332351    -0.000151    -0.000011     1.332341
	   14 R(7,14)         =      1.331625    -0.000048    -0.000003     1.331623
	   15 R(13,17)        =      1.011007     0.000148     0.000038     1.011045
	   16 R(13,18)        =      1.012888     0.000024     0.000003     1.012891
	   17 R(14,15)        =      1.012864     0.000005     0.000002     1.012866
	   18 R(14,16)        =      1.010753     0.000160     0.000034     1.010787
	   19 B(1,2,3)        =    120.053711     0.000000     0.001914   120.055625
	   20 B(1,2,8)        =    120.825349     0.000000    -0.000938   120.824411
	   21 B(1,6,5)        =    120.017352     0.000000     0.001580   120.018932
	   22 B(1,6,12)       =    120.912157    -0.000000    -0.003172   120.908985
	   23 B(1,7,13)       =    120.428862    -0.000002    -0.005844   120.423017
	   24 B(1,7,14)       =    120.401033     0.000001     0.002571   120.403603
	   25 B(2,1,6)        =    119.516796    -0.000000    -0.003019   119.513776
	   26 B(2,1,7)        =    120.294819     0.000001     0.004763   120.299583
	   27 B(2,3,4)        =    120.050237     0.000000     0.000184   120.050421
	   28 B(2,3,9)        =    119.706957    -0.000000    -0.000053   119.706904
	   29 B(3,2,8)        =    118.996941    -0.000000    -0.000232   118.996709
	   30 B(3,4,5)        =    120.269541    -0.000000    -0.001377   120.268164
	   31 B(3,4,10)       =    119.861042     0.000000     0.000684   119.861726
	   32 B(4,3,9)        =    120.240077     0.000000    -0.000184   120.239892
	   33 B(4,5,6)        =    120.078209     0.000000     0.000857   120.079066
	   34 B(4,5,11)       =    120.234723    -0.000000    -0.000240   120.234483
	   35 B(5,4,10)       =    119.868915     0.000000     0.000714   119.869629
	   36 B(5,6,12)       =    118.990293     0.000000     0.000988   118.991281
	   37 B(6,1,7)        =    120.066772    -0.000001    -0.001749   120.065023
	   38 B(6,5,11)       =    119.678364    -0.000000    -0.000465   119.677899
	   39 B(7,13,17)      =    120.330353    -0.000002    -0.010701   120.319651
	   40 B(7,13,18)      =    122.396988     0.000002     0.008351   122.405338
	   41 B(7,14,15)      =    122.501211     0.000001     0.005518   122.506729
	   42 B(7,14,16)      =    120.471336    -0.000001    -0.005834   120.465502
	   43 B(13,7,14)      =    119.117552     0.000001     0.003026   119.120579
	   44 B(15,14,16)     =    116.754214    -0.000000    -0.003766   116.750448
	   45 B(17,13,18)     =    116.603206    -0.000000    -0.003262   116.599945
	   46 D(1,2,3,4)      =     -0.565201     0.000000     0.006433    -0.558769
	   47 D(1,2,3,9)      =    178.835346     0.000000     0.000565   178.835911
	   48 D(1,6,5,4)      =      0.652760    -0.000000    -0.004327     0.648434
	   49 D(1,6,5,11)     =    179.582238     0.000000     0.005031   179.587269
	   50 D(1,7,13,17)    =    -15.692987    -0.000000    -0.013579   -15.706565
	   51 D(1,7,13,18)    =    174.005712     0.000000     0.027027   174.032740
	   52 D(1,7,14,15)    =    175.321488     0.000000     0.034303   175.355791
	   53 D(1,7,14,16)    =    -10.879690    -0.000000    -0.011948   -10.891638
	   54 D(2,1,6,5)      =     -1.376647     0.000000     0.006685    -1.369962
	   55 D(2,1,6,12)     =    175.334057     0.000000    -0.005632   175.328425
	   56 *D(2,1,7,13)    =    160.000005    -0.000000    -0.000000   160.000005
	   57 D(2,1,7,14)     =    -22.659633     0.000000    -0.006172   -22.665805
	   58 D(2,3,4,5)      =     -0.169402     0.000000    -0.004098    -0.173500
	   59 D(2,3,4,10)     =   -179.911167    -0.000000    -0.009714  -179.920881
	   60 D(3,2,1,6)      =      1.333154    -0.000000    -0.007736     1.325418
	   61 D(3,2,1,7)      =    177.327144    -0.000000    -0.007891   177.319253
	   62 D(3,4,5,6)      =      0.125264    -0.000000     0.003044     0.128308
	   63 D(3,4,5,11)     =   -178.798205    -0.000000    -0.006365  -178.804569
	   64 D(4,3,2,8)      =   -176.550997     0.000000    -0.005565  -176.556561
	   65 D(4,5,6,12)     =   -176.120984    -0.000000     0.007892  -176.113092
	   66 D(5,4,3,9)      =   -179.566724     0.000000     0.001800  -179.564924
	   67 D(5,6,1,7)      =   -177.379914    -0.000000     0.006575  -177.373340
	   68 D(6,1,2,8)      =    177.244441    -0.000000     0.004516   177.248957
	   69 D(6,1,7,13)     =    -24.028118     0.000000    -0.000205   -24.028323
	   70 D(6,1,7,14)     =    153.312245     0.000000    -0.006378   153.305867
	   71 D(6,5,4,10)     =    179.867010     0.000000     0.008660   179.875669
	   72 D(7,1,2,8)      =     -6.761569    -0.000000     0.004360    -6.757209
	   73 D(7,1,6,12)     =     -0.669211     0.000000    -0.005742    -0.674952
	   74 D(8,2,3,9)      =      2.849551     0.000000    -0.011433     2.838118
	   75 D(9,3,4,10)     =      0.691511    -0.000000    -0.003815     0.687695
	   76 D(10,4,5,11)    =      0.943541     0.000000    -0.000749     0.942792
	   77 D(11,5,6,12)    =      2.808494     0.000000     0.017250     2.825744
	   78 D(13,7,14,15)   =     -7.303527     0.000000     0.027976    -7.275551
	   79 D(13,7,14,16)   =    166.495295    -0.000000    -0.018275   166.477020
	   80 D(14,7,13,17)   =    166.932778    -0.000000    -0.007477   166.925301
	   81 D(14,7,13,18)   =     -3.368523     0.000000     0.033129    -3.335394
	 ---------------------------------------------------------------------------
	Successfully symmetrized geometry.

  ==> Convergence Check <==

  Measures of convergence in internal coordinates in au.
  Criteria marked as inactive (o), active & met (*), and active & unmet ( ).
  ---------------------------------------------------------------------------------------------
   Step     Total Energy     Delta E     MAX Force     RMS Force      MAX Disp      RMS Disp   
  ---------------------------------------------------------------------------------------------
    Convergence Criteria    1.00e-06 *    3.00e-04 *             o    1.20e-03 *             o
  ---------------------------------------------------------------------------------------------
      8    -381.46927593   -1.69e-07 *    2.85e-05 *    8.49e-06 o    5.99e-04 *    1.52e-04 o  ~
  ---------------------------------------------------------------------------------------------


  **** Optimization is complete! (in 8 steps) ****

  ==> Optimization Summary <==

  Measures of convergence in internal coordinates in au.
  --------------------------------------------------------------------------------------------------------------- ~
   Step         Total Energy             Delta E       MAX Force       RMS Force        MAX Disp        RMS Disp  ~
  --------------------------------------------------------------------------------------------------------------- ~
      1    -381.466663100655   -381.466663100655      0.00932532      0.00226730      0.08747694      0.02222951  ~
      2    -381.468080635298     -0.001417534643      0.00305271      0.00080936      0.09454958      0.02219110  ~
      3    -381.468843197150     -0.000762561852      0.00144544      0.00040247      0.09947662      0.02215370  ~
      4    -381.469206297261     -0.000363100110      0.00329228      0.00048027      0.05647703      0.01164649  ~
      5    -381.469264227680     -0.000057930419      0.00059621      0.00017696      0.01462665      0.00375493  ~
      6    -381.469272357838     -0.000008130158      0.00049941      0.00011374      0.00537321      0.00137596  ~
      7    -381.469275757498     -0.000003399660      0.00009322      0.00001788      0.00168535      0.00044067  ~
      8    -381.469275926281     -0.000000168782      0.00002849      0.00000849      0.00059870      0.00015241  ~
  --------------------------------------------------------------------------------------------------------------- ~

	Writing optimization data to binary file.
	Final energy is   -381.4692759262805
	Final (previous) structure:
	Cartesian Geometry (in Angstrom)
	    C     0.0540048736   0.0009849040  -0.1768330198
	    C     0.1098692709   1.2165751957   0.5334192698
	    C     0.0810326248   1.2127987853   1.9233479185
	    C    -0.0153686226   0.0033928435   2.6183903969
	    C    -0.0867329836  -1.2061609305   1.9213100283
	    C    -0.0594828107  -1.2119595753   0.5309835644
	    C     0.0250643631   0.0015332067  -1.6430610080
	    H     0.2419725132   2.1603785860   0.0120009004
	    H     0.1434702063   2.1509133773   2.4650321554
	    H    -0.0391006254   0.0041187609   3.7037647892
	    H    -0.1811338887  -2.1429210366   2.4607331549
	    H    -0.1799202595  -2.1549605078   0.0061504767
	    N     0.3672365995  -1.0906368169  -2.3251483180
	    N    -0.3939159424   1.0762521589  -2.3083886672
	    H    -0.3622923961   1.1373174452  -3.3189159671
	    H    -0.8473358108   1.8365624121  -1.8205758448
	    H     0.8687068034  -1.8409565940  -1.8694254905
	    H     0.2739260848  -1.1532322146  -3.3317843393
	Saving final (previous) structure.
	Removing binary optimization data file.
			--------------------------
			 OPTKING Finished Execution 
			--------------------------

    Final optimized geometry and variables:
    Molecular point group: c1
    Full point group: C1

    Geometry (in Angstrom), charge = 1, multiplicity = 1:

    C            0.054004873636     0.000984903987    -0.176833019803
    C            0.109869270860     1.216575195699     0.533419269807
    C            0.081032624805     1.212798785283     1.923347918531
    C           -0.015368622630     0.003392843550     2.618390396888
    C           -0.086732983596    -1.206160930512     1.921310028329
    C           -0.059482810676    -1.211959575253     0.530983564399
    C            0.025064363138     0.001533206698    -1.643061008007
    H            0.241972513231     2.160378586015     0.012000900389
    H            0.143470206342     2.150913377336     2.465032155433
    H           -0.039100625426     0.004118760884     3.703764789231
    H           -0.181133888679    -2.142921036552     2.460733154920
    H           -0.179920259470    -2.154960507787     0.006150476734
    N            0.367236599548    -1.090636816919    -2.325148318000
    N           -0.393915942374     1.076252158885    -2.308388667192
    H           -0.362292396141     1.137317445232    -3.318915967074
    H           -0.847335810790     1.836562412075    -1.820575844771
    H            0.868706803376    -1.840956593981    -1.869425490493
    H            0.273926084845    -1.153232214638    -3.331784339321

	Removing binary optimization data file.
	Cleaning optimization helper files.


Properties will be evaluated at   0.000000,   0.000000,   0.000000 [a0]
OEProp: No title given, name of density matrix used for the following properties is 'SCF density'
  Nuclear Dipole Moment: [e a0]
     X:     0.7216      Y:    -0.0009      Z:     0.2222

  Electronic Dipole Moment: [e a0]
     X:    -0.7344      Y:     0.0020      Z:    -2.4170

  Dipole Moment: [e a0]
     X:    -0.0128      Y:     0.0010      Z:    -2.1949     Total:     2.1949

  Dipole Moment: [D]
     X:    -0.0324      Y:     0.0026      Z:    -5.5788     Total:     5.5789

  Quadrupole Moment: [D A]
    XX:   -52.8884     YY:   -34.7417     ZZ:   -12.9004
    XY:    -3.9325     XZ:     0.0072     YZ:     0.1688

  Traceless Quadrupole Moment: [D A]
    XX:   -19.3782     YY:    -1.2315     ZZ:    20.6098
    XY:    -3.9325     XZ:     0.0072     YZ:     0.1688

  Mulliken Charges: (a.u.)
   Center  Symbol    Alpha    Beta     Spin     Total
       1     C     2.94354  2.94354  0.00000  0.11292
       2     C     3.08707  3.08707  0.00000 -0.17414
       3     C     3.06226  3.06226  0.00000 -0.12452
       4     C     3.05124  3.05124  0.00000 -0.10248
       5     C     3.06154  3.06154  0.00000 -0.12308
       6     C     3.08380  3.08380  0.00000 -0.16760
       7     C     2.71257  2.71257  0.00000  0.57486
       8     H     0.41591  0.41591  0.00000  0.16817
       9     H     0.40512  0.40512  0.00000  0.18976
      10     H     0.40316  0.40316  0.00000  0.19368
      11     H     0.40509  0.40509  0.00000  0.18982
      12     H     0.41644  0.41644  0.00000  0.16712
      13     N     3.86979  3.86979  0.00000 -0.73959
      14     N     3.86912  3.86912  0.00000 -0.73823
      15     H     0.30587  0.30587  0.00000  0.38826
      16     H     0.30065  0.30065  0.00000  0.39870
      17     H     0.30091  0.30091  0.00000  0.39819
      18     H     0.30591  0.30591  0.00000  0.38818

   Total alpha = 32.00000, Total beta = 32.00000, Total charge =  1.00000


    Psi4 stopped on: Saturday, 29 September 2018 08:56PM
    Psi4 wall time for execution: 0:04:28.79

*** Psi4 exiting successfully. Buy a developer a beer!
