
    -----------------------------------------------------------------------
          Psi4: An Open-Source Ab Initio Electronic Structure Package
                               Psi4 1.2.1 release

                         Git: Rev {HEAD} 406f4de 


    R. M. Parrish, L. A. Burns, D. G. A. Smith, A. C. Simmonett,
    A. E. DePrince III, E. G. Hohenstein, U. Bozkaya, A. Yu. Sokolov,
    R. Di Remigio, R. M. Richard, J. F. Gonthier, A. M. James,
    H. R. McAlexander, A. Kumar, M. Saitow, X. Wang, B. P. Pritchard,
    P. Verma, H. F. Schaefer III, K. Patkowski, R. A. King, E. F. Valeev,
    F. A. Evangelista, J. M. Turney, T. D. Crawford, and C. D. Sherrill,
    J. Chem. Theory Comput. 13(7) pp 3185--3197 (2017).
    (doi: 10.1021/acs.jctc.7b00174)


                         Additional Contributions by
    P. Kraus, H. Kruse, M. H. Lechner, M. C. Schieber, and R. A. Shaw

    -----------------------------------------------------------------------


    Psi4 started on: Saturday, 29 September 2018 08:41PM

    Process ID: 3676
    Host:       rosa.prib.upf.edu
    PSIDATADIR: /shared/joao/test_parameterize/miniconda3/share/psi4
    Memory:     500.0 MiB
    Threads:    1
    
  ==> Input File <==

--------------------------------------------------------------------------
set_num_threads(4)
set_memory('3000 MB')

set { scf_mem_safety_factor 0.7 }

set { reference rks }
set { basis 6-31G* }

molecule MOL {
    1 1
    noreorient
    nocom
    symmetry c1
    C   -0.000000  -0.000000  -0.177864
    C    0.036678   1.219374   0.524165
    C    0.031765   1.213120   1.915444
    C    0.000000   0.000000   2.610107
    C   -0.031765  -1.213120   1.915444
    C   -0.036678  -1.219375   0.524165
    C   -0.000000   0.000000  -1.644734
    H    0.018170   2.164705  -0.010854
    H    0.042402   2.152895   2.457886
    H    0.000000   0.000000   3.695756
    H   -0.042402  -2.152895   2.457886
    H   -0.018170  -2.164705  -0.010853
    N   -0.767101  -0.860283  -2.308461
    N    0.767101   0.860283  -2.308460
    H    0.734216   0.963026  -3.315997
    H    1.466204   1.398215  -1.813316
    H   -1.466204  -1.398215  -1.813317
    H   -0.734216  -0.963025  -3.315997
}

set optking { frozen_dihedral = (" 2 1 7 13 ") }

set optking { dynamic_level = 1 
 geom_maxiter = 250
 print_trajectory_xyz_file = True }

energy, wfn = optimize('B3LYP-D3', return_wfn=True)

import os
os.chdir(os.environ['HTMD_PSI4_WORKDIR'])

oeprop(wfn, 'DIPOLE', 'QUADRUPOLE', 'MULLIKEN_CHARGES')

with open('psi4out.xyz', 'w') as f:
    f.write('18 ' )
    f.write('%.12f\n' % energy)
    f.write(MOL.save_string_xyz())
--------------------------------------------------------------------------
  Threads set to 4 by Python driver.

  Memory set to   2.794 GiB by Python driver.
gradient() will perform analytic gradient computation.

*** tstart() called on rosa.prib.upf.edu
*** at Sat Sep 29 20:41:17 2018

   => Loading Basis Set <=

    Name: 6-31G*
    Role: ORBITAL
    Keyword: BASIS
    atoms 1-7         entry C          line   111 file /shared/joao/test_parameterize/miniconda3/share/psi4/basis/6-31gs.gbs 
    atoms 8-12, 15-18 entry H          line    44 file /shared/joao/test_parameterize/miniconda3/share/psi4/basis/6-31gs.gbs 
    atoms 13-14       entry N          line   128 file /shared/joao/test_parameterize/miniconda3/share/psi4/basis/6-31gs.gbs 


         ---------------------------------------------------------
                                   SCF
            by Justin Turney, Rob Parrish, Andy Simmonett
                             and Daniel Smith
                              RKS Reference
                        4 Threads,   2861 MiB Core
         ---------------------------------------------------------

  ==> Geometry <==

    Molecular point group: c1
    Full point group: C1

    Geometry (in Angstrom), charge = 1, multiplicity = 1:

       Center              X                  Y                   Z               Mass       
    ------------   -----------------  -----------------  -----------------  -----------------
         C            0.000000000000     0.000000000000    -0.177864000000    12.000000000000
         C            0.036678000000     1.219374000000     0.524165000000    12.000000000000
         C            0.031765000000     1.213120000000     1.915444000000    12.000000000000
         C            0.000000000000     0.000000000000     2.610107000000    12.000000000000
         C           -0.031765000000    -1.213120000000     1.915444000000    12.000000000000
         C           -0.036678000000    -1.219375000000     0.524165000000    12.000000000000
         C            0.000000000000     0.000000000000    -1.644734000000    12.000000000000
         H            0.018170000000     2.164705000000    -0.010854000000     1.007825032070
         H            0.042402000000     2.152895000000     2.457886000000     1.007825032070
         H            0.000000000000     0.000000000000     3.695756000000     1.007825032070
         H           -0.042402000000    -2.152895000000     2.457886000000     1.007825032070
         H           -0.018170000000    -2.164705000000    -0.010853000000     1.007825032070
         N           -0.767101000000    -0.860283000000    -2.308461000000    14.003074004780
         N            0.767101000000     0.860283000000    -2.308460000000    14.003074004780
         H            0.734216000000     0.963026000000    -3.315997000000     1.007825032070
         H            1.466204000000     1.398215000000    -1.813316000000     1.007825032070
         H           -1.466204000000    -1.398215000000    -1.813317000000     1.007825032070
         H           -0.734216000000    -0.963025000000    -3.315997000000     1.007825032070

  Running in c1 symmetry.

  Rotational constants: A =      0.12190  B =      0.03936  C =      0.03143 [cm^-1]
  Rotational constants: A =   3654.48648  B =   1179.83924  C =    942.19516 [MHz]
  Nuclear repulsion =  416.799722068299786

  Charge       = 1
  Multiplicity = 1
  Electrons    = 64
  Nalpha       = 32
  Nbeta        = 32

  ==> Algorithm <==

  SCF Algorithm Type is DF.
  DIIS enabled.
  MOM disabled.
  Fractional occupation disabled.
  Guess Type is SAD.
  Energy threshold   = 1.00e-08
  Density threshold  = 1.00e-08
  Integral threshold = 0.00e+00

  ==> Primary Basis <==

  Basis Set: 6-31G*
    Blend: 6-31G*
    Number of shells: 72
    Number of basis function: 153
    Number of Cartesian functions: 153
    Spherical Harmonics?: false
    Max angular momentum: 2

  ==> DFT Potential <==

   => Composite Functional: B3LYP-D3ZERO <= 

    B3LYP-d3zero Hyb-GGA Exchange-Correlation Functional

    P. J. Stephens, F. J. Devlin, C. F. Chabalowski, and M. J. Frisch, J. Phys. Chem. 98, 11623 (1994)

    Deriv               =              1
    GGA                 =           TRUE
    Meta                =          FALSE

    Exchange Hybrid     =           TRUE
    MP2 Hybrid          =          FALSE

   => Exchange Functionals <=

    0.0800   Slater exchange
    0.7200         Becke 88

   => Exact (HF) Exchange <=

    0.2000               HF 

   => Correlation Functionals <=

    0.1900   Vosko, Wilk & Nusair (VWN5_RPA)
    0.8100   Lee, Yang & Parr

   => Molecular Quadrature <=

    Radial Scheme       =       TREUTLER
    Pruning Scheme      =           FLAT
    Nuclear Scheme      =       TREUTLER

    BS radius alpha     =              1
    Pruning alpha       =              1
    Radial Points       =             75
    Spherical Points    =            302
    Total Points        =         396976
    Total Blocks        =           3026
    Max Points          =            256
    Max Functions       =            149

   => -D3ZERO: Empirical Dispersion <=

    Grimme's -D3 (zero-damping) Dispersion Correction
    Grimme S.; Antony J.; Ehrlich S.; Krieg H. (2010), J. Chem. Phys., 132: 154104

        S6 =   1.000000E+00
        S8 =   1.703000E+00
       SR6 =   1.261000E+00
       SR8 =   1.000000E+00
    ALPHA6 =   1.400000E+01

   => Loading Basis Set <=

    Name: (6-31G* AUX)
    Role: JKFIT
    Keyword: DF_BASIS_SCF
    atoms 1-7         entry C          line   121 file /shared/joao/test_parameterize/miniconda3/share/psi4/basis/cc-pvdz-jkfit.gbs 
    atoms 8-12, 15-18 entry H          line    51 file /shared/joao/test_parameterize/miniconda3/share/psi4/basis/cc-pvdz-jkfit.gbs 
    atoms 13-14       entry N          line   171 file /shared/joao/test_parameterize/miniconda3/share/psi4/basis/cc-pvdz-jkfit.gbs 

  ==> Pre-Iterations <==

   -------------------------------------------------------
    Irrep   Nso     Nmo     Nalpha   Nbeta   Ndocc  Nsocc
   -------------------------------------------------------
     A        153     153       0       0       0       0
   -------------------------------------------------------
    Total     153     153      32      32      32       0
   -------------------------------------------------------

  ==> Integral Setup <==

  ==> DiskDFJK: Density-Fitted J/K Matrices <==

    J tasked:                  Yes
    K tasked:                  Yes
    wK tasked:                  No
    OpenMP threads:              4
    Integrals threads:           4
    Memory (MB):              2002
    Algorithm:                Core
    Integral Cache:           NONE
    Schwarz Cutoff:          1E-12
    Fitting Condition:       1E-12

   => Auxiliary Basis Set <=

  Basis Set: (6-31G* AUX)
    Blend: CC-PVDZ-JKFIT
    Number of shells: 297
    Number of basis function: 954
    Number of Cartesian functions: 954
    Spherical Harmonics?: false
    Max angular momentum: 3

  Minimum eigenvalue in the overlap matrix is 4.8733203863E-04.
  Using Symmetric Orthogonalization.

  SCF Guess: Superposition of Atomic Densities via on-the-fly atomic UHF.

  ==> Iterations <==

                           Total Energy        Delta E     RMS |[F,P]|

   @DF-RKS iter   0:  -379.63432566809286   -3.79634e+02   6.82807e-02 
   @DF-RKS iter   1:  -381.04878539179879   -1.41446e+00   1.16883e-02 
   @DF-RKS iter   2:  -380.97317640727721    7.56090e-02   1.27561e-02 DIIS
   @DF-RKS iter   3:  -381.46362800562565   -4.90452e-01   1.55019e-03 DIIS
   @DF-RKS iter   4:  -381.46881724250704   -5.18924e-03   7.64110e-04 DIIS
   @DF-RKS iter   5:  -381.47026484000031   -1.44760e-03   2.32714e-04 DIIS
   @DF-RKS iter   6:  -381.47039344662772   -1.28607e-04   8.15412e-05 DIIS
   @DF-RKS iter   7:  -381.47041145090424   -1.80043e-05   1.43191e-05 DIIS
   @DF-RKS iter   8:  -381.47041193532351   -4.84419e-07   6.62056e-06 DIIS
   @DF-RKS iter   9:  -381.47041207227244   -1.36949e-07   2.01357e-06 DIIS
   @DF-RKS iter  10:  -381.47041208444739   -1.21750e-08   6.27467e-07 DIIS
   @DF-RKS iter  11:  -381.47041208556345   -1.11606e-09   7.21454e-08 DIIS
   @DF-RKS iter  12:  -381.47041208557295   -9.49285e-12   4.83492e-08 DIIS
   @DF-RKS iter  13:  -381.47041208557994   -6.99174e-12   1.82877e-08 DIIS
   @DF-RKS iter  14:  -381.47041208558045   -5.11591e-13   5.68598e-09 DIIS

  ==> Post-Iterations <==

    Orbital Energies [Eh]
    ---------------------

    Doubly Occupied:                                                      

       1A    -14.568554     2A    -14.568547     3A    -10.497511  
       4A    -10.372711     5A    -10.355402     6A    -10.355393  
       7A    -10.342215     8A    -10.339755     9A    -10.339696  
      10A     -1.184111    11A     -1.092181    12A     -1.013718  
      13A     -0.926278    14A     -0.901478    15A     -0.845208  
      16A     -0.785817    17A     -0.772426    18A     -0.742586  
      19A     -0.732270    20A     -0.688936    21A     -0.669025  
      22A     -0.624511    23A     -0.617775    24A     -0.585347  
      25A     -0.578615    26A     -0.571980    27A     -0.518196  
      28A     -0.504686    29A     -0.497306    30A     -0.473271  
      31A     -0.411205    32A     -0.405059  

    Virtual:                                                              

      33A     -0.215472    34A     -0.156815    35A     -0.131563  
      36A     -0.107809    37A     -0.066396    38A     -0.061367  
      39A     -0.038699    40A     -0.033229    41A      0.006952  
      42A      0.018361    43A      0.021319    44A      0.055498  
      45A      0.062158    46A      0.082743    47A      0.128925  
      48A      0.151074    49A      0.153979    50A      0.158635  
      51A      0.201428    52A      0.242176    53A      0.297872  
      54A      0.349116    55A      0.355643    56A      0.382246  
      57A      0.387131    58A      0.397529    59A      0.421067  
      60A      0.422691    61A      0.443549    62A      0.448211  
      63A      0.453176    64A      0.471720    65A      0.471892  
      66A      0.475933    67A      0.485342    68A      0.513498  
      69A      0.524553    70A      0.533820    71A      0.539020  
      72A      0.587611    73A      0.605126    74A      0.653455  
      75A      0.657870    76A      0.683253    77A      0.686890  
      78A      0.704648    79A      0.715681    80A      0.716501  
      81A      0.736576    82A      0.766929    83A      0.775350  
      84A      0.799566    85A      0.810359    86A      0.829646  
      87A      0.850617    88A      0.942443    89A      0.962655  
      90A      0.992813    91A      1.000525    92A      1.027285  
      93A      1.061371    94A      1.075508    95A      1.144877  
      96A      1.167401    97A      1.223038    98A      1.272085  
      99A      1.284106   100A      1.307874   101A      1.321483  
     102A      1.344010   103A      1.363230   104A      1.372160  
     105A      1.444106   106A      1.454243   107A      1.470275  
     108A      1.611618   109A      1.623486   110A      1.655767  
     111A      1.665890   112A      1.736316   113A      1.754343  
     114A      1.794921   115A      1.826510   116A      1.855432  
     117A      1.901691   118A      1.907066   119A      1.961927  
     120A      1.974755   121A      1.998291   122A      2.016427  
     123A      2.043735   124A      2.064300   125A      2.125578  
     126A      2.131362   127A      2.153246   128A      2.217407  
     129A      2.224018   130A      2.261586   131A      2.355923  
     132A      2.367425   133A      2.438400   134A      2.454392  
     135A      2.490558   136A      2.521219   137A      2.552806  
     138A      2.587836   139A      2.605409   140A      2.630256  
     141A      2.737523   142A      2.883317   143A      2.979546  
     144A      3.259291   145A      3.637833   146A      3.654217  
     147A      3.915186   148A      3.949352   149A      3.964938  
     150A      4.057344   151A      4.175840   152A      4.258015  
     153A      4.546620  

    Final Occupation by Irrep:
              A 
    DOCC [    32 ]

  Energy converged.

  @DF-RKS Final Energy:  -381.47041208558045

   => Energetics <=

    Nuclear Repulsion Energy =            416.7997220682997863
    One-Electron Energy =               -1328.8291254783484874
    Two-Electron Energy =                 574.9763744868636195
    DFT Exchange-Correlation Energy =     -44.4054198423953892
    Empirical Dispersion Energy =          -0.0119633200000000
    VV10 Nonlocal Energy =                  0.0000000000000000
    Total Energy =                       -381.4704120855804490



Properties will be evaluated at   0.000000,   0.000000,   0.000000 [a0]

Properties computed using the SCF density matrix

  Nuclear Dipole Moment: [e a0]
     X:    -0.0000      Y:    -0.0000      Z:     0.0248

  Electronic Dipole Moment: [e a0]
     X:     0.0000      Y:     0.0000      Z:    -2.3025

  Dipole Moment: [e a0]
     X:     0.0000      Y:     0.0000      Z:    -2.2777     Total:     2.2777

  Dipole Moment: [D]
     X:     0.0000      Y:     0.0000      Z:    -5.7894     Total:     5.7894


*** tstop() called on rosa.prib.upf.edu at Sat Sep 29 20:41:47 2018
Module time:
	user time   =     103.85 seconds =       1.73 minutes
	system time =       1.34 seconds =       0.02 minutes
	total time  =         30 seconds =       0.50 minutes
Total time:
	user time   =     103.85 seconds =       1.73 minutes
	system time =       1.34 seconds =       0.02 minutes
	total time  =         30 seconds =       0.50 minutes

*** tstart() called on rosa.prib.upf.edu
*** at Sat Sep 29 20:41:47 2018


         ------------------------------------------------------------
                                   SCF GRAD                          
                          Rob Parrish, Justin Turney,                
                       Andy Simmonett, and Alex Sokolov              
         ------------------------------------------------------------

  ==> Geometry <==

    Molecular point group: c1
    Full point group: C1

    Geometry (in Angstrom), charge = 1, multiplicity = 1:

       Center              X                  Y                   Z               Mass       
    ------------   -----------------  -----------------  -----------------  -----------------
         C            0.000000000000     0.000000000000    -0.177864000000    12.000000000000
         C            0.036678000000     1.219374000000     0.524165000000    12.000000000000
         C            0.031765000000     1.213120000000     1.915444000000    12.000000000000
         C            0.000000000000     0.000000000000     2.610107000000    12.000000000000
         C           -0.031765000000    -1.213120000000     1.915444000000    12.000000000000
         C           -0.036678000000    -1.219375000000     0.524165000000    12.000000000000
         C            0.000000000000     0.000000000000    -1.644734000000    12.000000000000
         H            0.018170000000     2.164705000000    -0.010854000000     1.007825032070
         H            0.042402000000     2.152895000000     2.457886000000     1.007825032070
         H            0.000000000000     0.000000000000     3.695756000000     1.007825032070
         H           -0.042402000000    -2.152895000000     2.457886000000     1.007825032070
         H           -0.018170000000    -2.164705000000    -0.010853000000     1.007825032070
         N           -0.767101000000    -0.860283000000    -2.308461000000    14.003074004780
         N            0.767101000000     0.860283000000    -2.308460000000    14.003074004780
         H            0.734216000000     0.963026000000    -3.315997000000     1.007825032070
         H            1.466204000000     1.398215000000    -1.813316000000     1.007825032070
         H           -1.466204000000    -1.398215000000    -1.813317000000     1.007825032070
         H           -0.734216000000    -0.963025000000    -3.315997000000     1.007825032070

  Nuclear repulsion =  416.799722068299786

  ==> Basis Set <==

  Basis Set: 6-31G*
    Blend: 6-31G*
    Number of shells: 72
    Number of basis function: 153
    Number of Cartesian functions: 153
    Spherical Harmonics?: false
    Max angular momentum: 2

  ==> DFJKGrad: Density-Fitted SCF Gradients <==

    Gradient:                    1
    J tasked:                  Yes
    K tasked:                  Yes
    wK tasked:                  No
    OpenMP threads:              4
    Integrals threads:           4
    Memory (MB):              2002
    Schwarz Cutoff:          0E+00
    Fitting Condition:       1E-12

   => Auxiliary Basis Set <=

  Basis Set: (6-31G* AUX)
    Blend: CC-PVDZ-JKFIT
    Number of shells: 297
    Number of basis function: 954
    Number of Cartesian functions: 954
    Spherical Harmonics?: false
    Max angular momentum: 3

  ==> DFT Potential <==

   => Composite Functional: B3LYP-D3ZERO <= 

    B3LYP-d3zero Hyb-GGA Exchange-Correlation Functional

    P. J. Stephens, F. J. Devlin, C. F. Chabalowski, and M. J. Frisch, J. Phys. Chem. 98, 11623 (1994)

    Deriv               =              1
    GGA                 =           TRUE
    Meta                =          FALSE

    Exchange Hybrid     =           TRUE
    MP2 Hybrid          =          FALSE

   => Exchange Functionals <=

    0.0800   Slater exchange
    0.7200         Becke 88

   => Exact (HF) Exchange <=

    0.2000               HF 

   => Correlation Functionals <=

    0.1900   Vosko, Wilk & Nusair (VWN5_RPA)
    0.8100   Lee, Yang & Parr

   => Molecular Quadrature <=

    Radial Scheme       =       TREUTLER
    Pruning Scheme      =           FLAT
    Nuclear Scheme      =       TREUTLER

    BS radius alpha     =              1
    Pruning alpha       =              1
    Radial Points       =             75
    Spherical Points    =            302
    Total Points        =         396976
    Total Blocks        =           3026
    Max Points          =            256
    Max Functions       =            149


  -Total Gradient:
     Atom            X                  Y                   Z
    ------   -----------------  -----------------  -----------------
       1        0.000000047034     0.000000545665    -0.000908542727
       2       -0.000278631934    -0.000281931763     0.000457108741
       3        0.000088180959     0.000239951242    -0.000173240222
       4       -0.000000000357    -0.000000061740    -0.000005512410
       5       -0.000088183431    -0.000239728915    -0.000173108302
       6        0.000278638664     0.000280500106     0.000456715871
       7        0.000000186572     0.000000229758     0.001035503877
       8       -0.000291690031     0.000110691389     0.000325570916
       9        0.000021494335    -0.000017922540     0.000008215627
      10        0.000000001350     0.000000004160    -0.000010911276
      11       -0.000021495133     0.000017916654     0.000008157924
      12        0.000291681186    -0.000109928510     0.000326051485
      13       -0.000393664908     0.000054700942    -0.000477797369
      14        0.000393445678    -0.000055092108    -0.000476476332
      15       -0.000011688720    -0.000043280174     0.000141858056
      16        0.000107889201    -0.000169694093    -0.000347061337
      17       -0.000107866908     0.000169710001    -0.000347020610
      18        0.000011656450     0.000043389943     0.000142798827


*** tstop() called on rosa.prib.upf.edu at Sat Sep 29 20:41:54 2018
Module time:
	user time   =      29.09 seconds =       0.48 minutes
	system time =       0.43 seconds =       0.01 minutes
	total time  =          7 seconds =       0.12 minutes
Total time:
	user time   =     133.00 seconds =       2.22 minutes
	system time =       1.77 seconds =       0.03 minutes
	total time  =         37 seconds =       0.62 minutes

			-----------------------------------------
			 OPTKING 2.0: for geometry optimizations 
			  - R.A. King,  Bethel University        
			-----------------------------------------
	At level 1: Red. Int., RFO, no backsteps, dynamic trust

	Internal coordinates to be generated automatically.
	Detected frag 1 with atoms:  1 2 3 4 5 6 7 8 9 10 11 12 13 14 15 16 17 18
	---Fragment 1 Bond Connectivity---
	 1 : 2 6 7
	 2 : 1 3 8
	 3 : 2 4 9
	 4 : 3 5 10
	 5 : 4 6 11
	 6 : 1 5 12
	 7 : 1 13 14
	 8 : 2
	 9 : 3
	 10 : 4
	 11 : 5
	 12 : 6
	 13 : 7 17 18
	 14 : 7 15 16
	 15 : 14
	 16 : 14
	 17 : 13
	 18 : 13

	Assuming in current code that numbering for constraints corresponds to unified fragment.
	Frozen dihedral atom list: 
	     2     1     7    13
	---Fragment 1 Geometry and Gradient---
	 C           0.0000000000        0.0000000000       -0.3361142489
	 C           0.0693113751        2.3042829136        0.9905282984
	 C           0.0600271506        2.2924645663        3.6196645829
	 C           0.0000000000        0.0000000000        4.9323874075
	 C          -0.0600271506       -2.2924645663        3.6196645829
	 C          -0.0693113751       -2.3042848033        0.9905282984
	 C           0.0000000000        0.0000000000       -3.1080968214
	 H           0.0343363238        4.0906996085       -0.0205110874
	 H           0.0801281675        4.0683819429        4.6447314059
	 H           0.0000000000        0.0000000000        6.9839666940
	 H          -0.0801281675       -4.0683819429        4.6447314059
	 H          -0.0343363238       -4.0906996085       -0.0205091977
	 N          -1.4496108063       -1.6256992668       -4.3623590784
	 N           1.4496108063        1.6256992668       -4.3623571887
	 H           1.3874671624        1.8198553988       -6.2663261875
	 H           2.7707240149        2.6422434249       -3.4266706324
	 H          -2.7707240149       -2.6422434249       -3.4266725221
	 H          -1.3874671624       -1.8198535091       -6.2663261875
	             0.0000000470        0.0000005457       -0.0009085427
	            -0.0002786319       -0.0002819318        0.0004571087
	             0.0000881810        0.0002399512       -0.0001732402
	            -0.0000000004       -0.0000000617       -0.0000055124
	            -0.0000881834       -0.0002397289       -0.0001731083
	             0.0002786387        0.0002805001        0.0004567159
	             0.0000001866        0.0000002298        0.0010355039
	            -0.0002916900        0.0001106914        0.0003255709
	             0.0000214943       -0.0000179225        0.0000082156
	             0.0000000014        0.0000000042       -0.0000109113
	            -0.0000214951        0.0000179167        0.0000081579
	             0.0002916812       -0.0001099285        0.0003260515
	            -0.0003936649        0.0000547009       -0.0004777974
	             0.0003934457       -0.0000550921       -0.0004764763
	            -0.0000116887       -0.0000432802        0.0001418581
	             0.0001078892       -0.0001696941       -0.0003470613
	            -0.0001078669        0.0001697100       -0.0003470206
	             0.0000116564        0.0000433899        0.0001427988

	Previous optimization step data not found.  Starting new optimization.

	---Fragment 1 Intrafragment Coordinates---
	 - Coordinate -           - BOHR/RAD -       - ANG/DEG -
	 R(1,2)           =         2.659794	       1.407502
	 R(1,6)           =         2.659796	       1.407503
	 R(1,7)           =         2.771983	       1.466870
	 R(2,3)           =         2.629179	       1.391302
	 R(2,8)           =         2.052976	       1.086388
	 R(3,4)           =         2.642393	       1.398294
	 R(3,9)           =         2.050622	       1.085142
	 R(4,5)           =         2.642393	       1.398294
	 R(4,10)          =         2.051579	       1.085649
	 R(5,6)           =         2.629179	       1.391302
	 R(5,11)          =         2.050622	       1.085142
	 R(6,12)          =         2.052973	       1.086386
	 R(7,13)          =         2.513452	       1.330062
	 R(7,14)          =         2.513452	       1.330061
	 R(13,17)         =         1.911599	       1.011575
	 R(13,18)         =         1.914849	       1.013295
	 R(14,15)         =         1.914852	       1.013296
	 R(14,16)         =         1.911599	       1.011575
	 B(1,2,3)         =         2.088380	     119.655376
	 B(1,2,8)         =         2.103396	     120.515689
	 B(1,6,5)         =         2.088379	     119.655315
	 B(1,6,12)        =         2.103396	     120.515729
	 B(1,7,13)        =         2.093263	     119.935164
	 B(1,7,14)        =         2.093263	     119.935126
	 B(2,1,6)         =         2.097220	     120.161857
	 B(2,1,7)         =         2.092983	     119.919082
	 B(2,3,4)         =         2.095279	     120.050636
	 B(2,3,9)         =         2.089719	     119.732108
	 B(3,2,8)         =         2.090149	     119.756722
	 B(3,4,5)         =         2.101793	     120.423859
	 B(3,4,10)        =         2.090696	     119.788070
	 B(4,3,9)         =         2.098135	     120.214297
	 B(4,5,6)         =         2.095280	     120.050677
	 B(4,5,11)        =         2.098135	     120.214297
	 B(5,4,10)        =         2.090696	     119.788070
	 B(5,6,12)        =         2.090149	     119.756743
	 B(6,1,7)         =         2.092982	     119.919061
	 B(6,5,11)        =         2.089719	     119.732067
	 B(7,13,17)       =         2.092412	     119.886353
	 B(7,13,18)       =         2.144859	     122.891369
	 B(7,14,15)       =         2.144859	     122.891369
	 B(7,14,16)       =         2.092412	     119.886390
	 B(13,7,14)       =         2.096659	     120.129710
	 B(15,14,16)      =         2.043400	     117.078183
	 B(17,13,18)      =         2.043400	     117.078217
	 D(1,2,3,4)       =         0.007799	       0.446825
	 D(1,2,3,9)       =        -3.122896	    -178.928735
	 D(1,6,5,4)       =         0.007799	       0.446822
	 D(1,6,5,11)      =        -3.122896	    -178.928737
	 D(1,7,13,17)     =         0.187844	      10.762695
	 D(1,7,13,18)     =        -3.032165	    -173.730277
	 D(1,7,14,15)     =        -3.032165	    -173.730238
	 D(1,7,14,16)     =         0.187845	      10.762699
	 D(2,1,6,5)       =        -0.003906	      -0.223802
	 D(2,1,6,12)      =        -3.091437	    -177.126283
	*D(2,1,7,13)      =        -2.443461	    -140.000009
	 D(2,1,7,14)      =         0.698132	      39.999991
	 D(2,3,4,5)       =        -0.003942	      -0.225875
	 D(2,3,4,10)      =         3.137650	     179.774125
	 D(3,2,1,6)       =        -0.003906	      -0.223806
	 D(3,2,1,7)       =         3.137687	     179.776196
	 D(3,4,5,6)       =        -0.003942	      -0.225874
	 D(3,4,5,11)      =         3.126699	     179.146646
	 D(4,3,2,8)       =         3.095744	     177.373058
	 D(4,5,6,12)      =         3.095744	     177.373055
	 D(5,4,3,9)       =         3.126699	     179.146646
	 D(5,6,1,7)       =         3.137687	     179.776197
	 D(6,1,2,8)       =        -3.091437	    -177.126287
	 D(6,1,7,13)      =         0.698132	      39.999993
	 D(6,1,7,14)      =        -2.443461	    -140.000007
	 D(6,5,4,10)      =         3.137650	     179.774126
	 D(7,1,2,8)       =         0.050156	       2.873714
	 D(7,1,6,12)      =         0.050156	       2.873716
	 D(8,2,3,9)       =        -0.034950	      -2.002503
	 D(9,3,4,10)      =        -0.014894	      -0.853354
	 D(10,4,5,11)     =        -0.014894	      -0.853354
	 D(11,5,6,12)     =        -0.034950	      -2.002504
	 D(13,7,14,15)    =         0.109428	       6.269762
	 D(13,7,14,16)    =        -2.953748	    -169.237301
	 D(14,7,13,17)    =        -2.953748	    -169.237305
	 D(14,7,13,18)    =         0.109427	       6.269723

	Current energy   :      -381.4704120856

	Generating empirical Hessian (Schlegel '84) for each fragment.
	Taking RFO optimization step.
	Going to follow RFO solution 1.
	Using RFO vector 1.
	Norm of target step-size    0.07699
	Projected energy change by RFO approximation:        -0.0001701056

	Back-transformation to cartesian coordinates...
	Could not converge backtransformation.
	Using first guess instead.

	Back-transformation to cartesian coordinates to adjust frozen coordinates...
	Successfully converged to displaced geometry.

	--- Internal Coordinate Step in ANG or DEG, aJ/ANG or AJ/DEG ---
	 ---------------------------------------------------------------------------
	   Coordinate                Previous        Force       Change         New 
	   ----------                --------       ------       ------       ------
	    1 R(1,2)          =      1.407502    -0.003490    -0.000518     1.406984
	    2 R(1,6)          =      1.407503    -0.003493    -0.000369     1.407134
	    3 R(1,7)          =      1.466870    -0.002647    -0.000457     1.466413
	    4 R(2,3)          =      1.391302     0.001414     0.000230     1.391531
	    5 R(2,8)          =      1.086388     0.000491     0.000192     1.086580
	    6 R(3,4)          =      1.398294     0.000733     0.000170     1.398464
	    7 R(3,9)          =      1.085142     0.000088     0.000019     1.085162
	    8 R(4,5)          =      1.398294     0.000735     0.000133     1.398427
	    9 R(4,10)         =      1.085649     0.000082     0.000041     1.085690
	   10 R(5,6)          =      1.391302     0.001416     0.000214     1.391516
	   11 R(5,11)         =      1.085142     0.000089     0.000106     1.085248
	   12 R(6,12)         =      1.086386     0.000498     0.000192     1.086578
	   13 R(7,13)         =      1.330062    -0.003692    -0.000373     1.329689
	   14 R(7,14)         =      1.330061    -0.003688    -0.000056     1.330005
	   15 R(13,17)        =      1.011575     0.001524     0.000496     1.012071
	   16 R(13,18)        =      1.013295     0.001212     0.000260     1.013555
	   17 R(14,15)        =      1.013296     0.001204     0.000256     1.013551
	   18 R(14,16)        =      1.011575     0.001524     0.000399     1.011974
	   19 B(1,2,3)        =    119.655376    -0.000027    -0.089462   119.565914
	   20 B(1,2,8)        =    120.515689    -0.000012    -0.070947   120.444742
	   21 B(1,6,5)        =    119.655315    -0.000027    -0.089534   119.565780
	   22 B(1,6,12)       =    120.515729    -0.000013    -0.065764   120.449965
	   23 B(1,7,13)       =    119.935164    -0.000048    -0.145348   119.789816
	   24 B(1,7,14)       =    119.935126    -0.000048    -0.149637   119.785490
	   25 B(2,1,6)        =    120.161857     0.000054     0.152280   120.314137
	   26 B(2,1,7)        =    119.919082    -0.000027    -0.078741   119.840341
	   27 B(2,3,4)        =    120.050636    -0.000002     0.002327   120.052963
	   28 B(2,3,9)        =    119.732108    -0.000000    -0.007938   119.724170
	   29 B(3,2,8)        =    119.756722     0.000040     0.179330   119.936051
	   30 B(3,4,5)        =    120.423859     0.000003     0.021728   120.445588
	   31 B(3,4,10)       =    119.788070    -0.000002    -0.008583   119.779487
	   32 B(4,3,9)        =    120.214297     0.000002     0.006196   120.220493
	   33 B(4,5,6)        =    120.050677    -0.000002    -0.001574   120.049104
	   34 B(4,5,11)       =    120.214297     0.000002     0.007610   120.221907
	   35 B(5,4,10)       =    119.788070    -0.000002    -0.013349   119.774721
	   36 B(5,6,12)       =    119.756743     0.000040     0.167453   119.924196
	   37 B(6,1,7)        =    119.919061    -0.000027    -0.086315   119.832746
	   38 B(6,5,11)       =    119.732067    -0.000000    -0.004280   119.727787
	   39 B(7,13,17)      =    119.886353    -0.000026    -0.113799   119.772554
	   40 B(7,13,18)      =    122.891369     0.000016     0.079474   122.970843
	   41 B(7,14,15)      =    122.891369     0.000016     0.090881   122.982250
	   42 B(7,14,16)      =    119.886390    -0.000026    -0.095984   119.790406
	   43 B(13,7,14)      =    120.129710     0.000096     0.283405   120.413115
	   44 B(15,14,16)     =    117.078183     0.000011     0.038889   117.117072
	   45 B(17,13,18)     =    117.078217     0.000011     0.068019   117.146236
	   46 D(1,2,3,4)      =      0.446825    -0.000000    -0.123012     0.323813
	   47 D(1,2,3,9)      =   -178.928735    -0.000001    -0.188171  -179.116906
	   48 D(1,6,5,4)      =      0.446822     0.000002     0.356331     0.803153
	   49 D(1,6,5,11)     =   -178.928737     0.000001     0.129935  -178.798802
	   50 D(1,7,13,17)    =     10.762695    -0.000006    -1.175344     9.587351
	   51 D(1,7,13,18)    =   -173.730277    -0.000003    -0.613370  -174.343646
	   52 D(1,7,14,15)    =   -173.730238     0.000003     0.619131  -173.111107
	   53 D(1,7,14,16)    =     10.762699    -0.000001     0.056629    10.819328
	   54 D(2,1,6,5)      =     -0.223802    -0.000003    -0.663861    -0.887663
	   55 D(2,1,6,12)     =   -177.126283    -0.000004    -0.941093  -178.067375
	   56 *D(2,1,7,13)    =   -140.000009     0.000000     0.000000  -140.000009
	   57 D(2,1,7,14)     =     39.999991    -0.000005    -1.232572    38.767420
	   58 D(2,3,4,5)      =     -0.225875    -0.000001    -0.183322    -0.409198
	   59 D(2,3,4,10)     =    179.774125    -0.000000    -0.018790   179.755335
	   60 D(3,2,1,6)      =     -0.223806     0.000002     0.546989     0.323183
	   61 D(3,2,1,7)      =    179.776196    -0.000003    -0.755313   179.020883
	   62 D(3,4,5,6)      =     -0.225874     0.000000     0.064731    -0.161144
	   63 D(3,4,5,11)     =    179.146646     0.000001     0.292180   179.438827
	   64 D(4,3,2,8)      =    177.373058     0.000002     0.307989   177.681047
	   65 D(4,5,6,12)     =    177.373055     0.000003     0.624837   177.997892
	   66 D(5,4,3,9)      =    179.146646    -0.000000    -0.117926   179.028720
	   67 D(5,6,1,7)      =    179.776197     0.000002     0.638342   180.414539
	   68 D(6,1,2,8)      =   -177.126287    -0.000000     0.105933  -177.020354
	   69 D(6,1,7,13)     =     39.999993    -0.000005    -1.295980    38.704012
	   70 D(6,1,7,14)     =   -140.000007    -0.000010    -2.528552  -142.528559
	   71 D(6,5,4,10)     =    179.774126    -0.000001    -0.099794   179.674332
	   72 D(7,1,2,8)      =      2.873714    -0.000005    -1.196369     1.677345
	   73 D(7,1,6,12)     =      2.873716     0.000000     0.361110     3.234826
	   74 D(8,2,3,9)      =     -2.002503     0.000001     0.242830    -1.759672
	   75 D(9,3,4,10)     =     -0.853354     0.000000     0.046606    -0.806747
	   76 D(10,4,5,11)    =     -0.853354     0.000001     0.127656    -0.725698
	   77 D(11,5,6,12)    =     -2.002504     0.000002     0.398441    -1.604063
	   78 D(13,7,14,15)   =      6.269762    -0.000003    -0.621239     5.648522
	   79 D(13,7,14,16)   =   -169.237301    -0.000006    -1.183742  -170.421043
	   80 D(14,7,13,17)   =   -169.237305    -0.000001     0.065081  -169.172224
	   81 D(14,7,13,18)   =      6.269723     0.000003     0.627054     6.896778
	 ---------------------------------------------------------------------------
	Successfully symmetrized geometry.

  ==> Convergence Check <==

  Measures of convergence in internal coordinates in au.
  Criteria marked as inactive (o), active & met (*), and active & unmet ( ).
  --------------------------------------------------------------------------------------------- ~
   Step     Total Energy     Delta E     MAX Force     RMS Force      MAX Disp      RMS Disp    ~
  --------------------------------------------------------------------------------------------- ~
    Convergence Criteria    1.00e-06 *    3.00e-04 *             o    1.20e-03 *             o  ~
  --------------------------------------------------------------------------------------------- ~
      1    -381.47041209   -3.81e+02      1.27e-03      2.86e-04 o    4.41e-02      8.56e-03 o  ~
  ---------------------------------------------------------------------------------------------

	Writing optimization data to binary file.
	Structure for next step:
	Cartesian Geometry (in Angstrom)
	    C     0.0178105888  -0.0040547500  -0.1783587858
	    C     0.0536767715   1.2166125685   0.5204178476
	    C     0.0387649049   1.2119297381   1.9118614273
	    C    -0.0047375792  -0.0003420620   2.6077108112
	    C    -0.0421588154  -1.2143177011   1.9145582516
	    C    -0.0396736880  -1.2225461289   0.5230688045
	    C     0.0115503289  -0.0054612552  -1.6447581471
	    H     0.0493860734   2.1599897528  -0.0187267943
	    H     0.0518287237   2.1523035627   2.4532504561
	    H    -0.0121959411   0.0010599877   3.6933746866
	    H    -0.0666835453  -2.1532444407   2.4582296629
	    H    -0.0358897141  -2.1674528651  -0.0133907642
	    N    -0.7565691635  -0.8697849276  -2.3012720740
	    N     0.7554830106   0.8741046827  -2.3094696324
	    H     0.7119616075   0.9845368997  -3.3160465399
	    H     1.4428345759   1.4274291415  -1.8140189645
	    H    -1.4385765868  -1.4207940609  -1.7957604916
	    H    -0.7368115518  -0.9699681422  -3.3096697541
			--------------------------
			 OPTKING Finished Execution 
			--------------------------

    Structure for next step:
    Molecular point group: c1
    Full point group: C1

    Geometry (in Angstrom), charge = 1, multiplicity = 1:

    C            0.017810588820    -0.004054749977    -0.178358785809
    C            0.053676771513     1.216612568452     0.520417847598
    C            0.038764904858     1.211929738054     1.911861427323
    C           -0.004737579236    -0.000342061980     2.607710811224
    C           -0.042158815438    -1.214317701092     1.914558251586
    C           -0.039673687995    -1.222546128861     0.523068804532
    C            0.011550328950    -0.005461255228    -1.644758147079
    H            0.049386073404     2.159989752795    -0.018726794310
    H            0.051828723650     2.152303562673     2.453250456085
    H           -0.012195941087     0.001059987737     3.693374686577
    H           -0.066683545306    -2.153244440693     2.458229662854
    H           -0.035889714088    -2.167452865054    -0.013390764170
    N           -0.756569163490    -0.869784927578    -2.301272074004
    N            0.755483010631     0.874104682678    -2.309469632372
    H            0.711961607496     0.984536899673    -3.316046539859
    H            1.442834575871     1.427429141482    -1.814018964505
    H           -1.438576586789    -1.420794060852    -1.795760491581
    H           -0.736811551763    -0.969968142229    -3.309669754087

gradient() will perform analytic gradient computation.

*** tstart() called on rosa.prib.upf.edu
*** at Sat Sep 29 20:41:55 2018

   => Loading Basis Set <=

    Name: 6-31G*
    Role: ORBITAL
    Keyword: BASIS
    atoms 1-7         entry C          line   111 file /shared/joao/test_parameterize/miniconda3/share/psi4/basis/6-31gs.gbs 
    atoms 8-12, 15-18 entry H          line    44 file /shared/joao/test_parameterize/miniconda3/share/psi4/basis/6-31gs.gbs 
    atoms 13-14       entry N          line   128 file /shared/joao/test_parameterize/miniconda3/share/psi4/basis/6-31gs.gbs 


         ---------------------------------------------------------
                                   SCF
            by Justin Turney, Rob Parrish, Andy Simmonett
                             and Daniel Smith
                              RKS Reference
                        4 Threads,   2861 MiB Core
         ---------------------------------------------------------

  ==> Geometry <==

    Molecular point group: c1
    Full point group: C1

    Geometry (in Angstrom), charge = 1, multiplicity = 1:

       Center              X                  Y                   Z               Mass       
    ------------   -----------------  -----------------  -----------------  -----------------
         C            0.017810588820    -0.004054749977    -0.178358785809    12.000000000000
         C            0.053676771513     1.216612568452     0.520417847598    12.000000000000
         C            0.038764904858     1.211929738054     1.911861427323    12.000000000000
         C           -0.004737579236    -0.000342061980     2.607710811224    12.000000000000
         C           -0.042158815438    -1.214317701092     1.914558251586    12.000000000000
         C           -0.039673687995    -1.222546128861     0.523068804532    12.000000000000
         C            0.011550328950    -0.005461255228    -1.644758147079    12.000000000000
         H            0.049386073404     2.159989752795    -0.018726794310     1.007825032070
         H            0.051828723650     2.152303562673     2.453250456085     1.007825032070
         H           -0.012195941087     0.001059987737     3.693374686577     1.007825032070
         H           -0.066683545306    -2.153244440693     2.458229662854     1.007825032070
         H           -0.035889714088    -2.167452865054    -0.013390764170     1.007825032070
         N           -0.756569163490    -0.869784927578    -2.301272074004    14.003074004780
         N            0.755483010631     0.874104682678    -2.309469632372    14.003074004780
         H            0.711961607496     0.984536899673    -3.316046539859     1.007825032070
         H            1.442834575871     1.427429141482    -1.814018964505     1.007825032070
         H           -1.438576586789    -1.420794060852    -1.795760491581     1.007825032070
         H           -0.736811551763    -0.969968142229    -3.309669754087     1.007825032070

  Running in c1 symmetry.

  Rotational constants: A =      0.12175  B =      0.03952  C =      0.03142 [cm^-1]
  Rotational constants: A =   3650.01392  B =   1184.85434  C =    942.05826 [MHz]
  Nuclear repulsion =  416.978079606966389

  Charge       = 1
  Multiplicity = 1
  Electrons    = 64
  Nalpha       = 32
  Nbeta        = 32

  ==> Algorithm <==

  SCF Algorithm Type is DF.
  DIIS enabled.
  MOM disabled.
  Fractional occupation disabled.
  Guess Type is READ.
  Energy threshold   = 1.00e-08
  Density threshold  = 1.00e-08
  Integral threshold = 0.00e+00

  ==> Primary Basis <==

  Basis Set: 6-31G*
    Blend: 6-31G*
    Number of shells: 72
    Number of basis function: 153
    Number of Cartesian functions: 153
    Spherical Harmonics?: false
    Max angular momentum: 2

  ==> DFT Potential <==

   => Composite Functional: B3LYP-D3ZERO <= 

    B3LYP-d3zero Hyb-GGA Exchange-Correlation Functional

    P. J. Stephens, F. J. Devlin, C. F. Chabalowski, and M. J. Frisch, J. Phys. Chem. 98, 11623 (1994)

    Deriv               =              1
    GGA                 =           TRUE
    Meta                =          FALSE

    Exchange Hybrid     =           TRUE
    MP2 Hybrid          =          FALSE

   => Exchange Functionals <=

    0.0800   Slater exchange
    0.7200         Becke 88

   => Exact (HF) Exchange <=

    0.2000               HF 

   => Correlation Functionals <=

    0.1900   Vosko, Wilk & Nusair (VWN5_RPA)
    0.8100   Lee, Yang & Parr

   => Molecular Quadrature <=

    Radial Scheme       =       TREUTLER
    Pruning Scheme      =           FLAT
    Nuclear Scheme      =       TREUTLER

    BS radius alpha     =              1
    Pruning alpha       =              1
    Radial Points       =             75
    Spherical Points    =            302
    Total Points        =         396966
    Total Blocks        =           3009
    Max Points          =            256
    Max Functions       =            149

   => -D3ZERO: Empirical Dispersion <=

    Grimme's -D3 (zero-damping) Dispersion Correction
    Grimme S.; Antony J.; Ehrlich S.; Krieg H. (2010), J. Chem. Phys., 132: 154104

        S6 =   1.000000E+00
        S8 =   1.703000E+00
       SR6 =   1.261000E+00
       SR8 =   1.000000E+00
    ALPHA6 =   1.400000E+01

   => Loading Basis Set <=

    Name: (6-31G* AUX)
    Role: JKFIT
    Keyword: DF_BASIS_SCF
    atoms 1-7         entry C          line   121 file /shared/joao/test_parameterize/miniconda3/share/psi4/basis/cc-pvdz-jkfit.gbs 
    atoms 8-12, 15-18 entry H          line    51 file /shared/joao/test_parameterize/miniconda3/share/psi4/basis/cc-pvdz-jkfit.gbs 
    atoms 13-14       entry N          line   171 file /shared/joao/test_parameterize/miniconda3/share/psi4/basis/cc-pvdz-jkfit.gbs 

  Reading orbitals from file 180, no projection.

  ==> Pre-Iterations <==

   -------------------------------------------------------
    Irrep   Nso     Nmo     Nalpha   Nbeta   Ndocc  Nsocc
   -------------------------------------------------------
     A        153     153       0       0       0       0
   -------------------------------------------------------
    Total     153     153      32      32      32       0
   -------------------------------------------------------

  ==> Integral Setup <==

  ==> DiskDFJK: Density-Fitted J/K Matrices <==

    J tasked:                  Yes
    K tasked:                  Yes
    wK tasked:                  No
    OpenMP threads:              4
    Integrals threads:           4
    Memory (MB):              2002
    Algorithm:                Core
    Integral Cache:           NONE
    Schwarz Cutoff:          1E-12
    Fitting Condition:       1E-12

   => Auxiliary Basis Set <=

  Basis Set: (6-31G* AUX)
    Blend: CC-PVDZ-JKFIT
    Number of shells: 297
    Number of basis function: 954
    Number of Cartesian functions: 954
    Spherical Harmonics?: false
    Max angular momentum: 3

  Minimum eigenvalue in the overlap matrix is 4.8709834662E-04.
  Using Symmetric Orthogonalization.

  SCF Guess: Orbitals guess was supplied from a previous computation.

  ==> Iterations <==

                           Total Energy        Delta E     RMS |[F,P]|

   @DF-RKS iter   0:  -381.46994093094958   -3.81470e+02   5.96510e-04 
   @DF-RKS iter   1:  -381.47042479400773   -4.83863e-04   3.76454e-05 
   @DF-RKS iter   2:  -381.47043155454770   -6.76054e-06   2.90147e-05 DIIS
   @DF-RKS iter   3:  -381.47043319106552   -1.63652e-06   1.79904e-05 DIIS
   @DF-RKS iter   4:  -381.47043414558726   -9.54522e-07   4.14184e-06 DIIS
   @DF-RKS iter   5:  -381.47043418855077   -4.29635e-08   1.98868e-06 DIIS
   @DF-RKS iter   6:  -381.47043420042803   -1.18773e-08   3.89026e-07 DIIS
   @DF-RKS iter   7:  -381.47043420080570   -3.77668e-10   1.62514e-07 DIIS
   @DF-RKS iter   8:  -381.47043420088102   -7.53175e-11   3.68988e-08 DIIS
   @DF-RKS iter   9:  -381.47043420088431   -3.29692e-12   1.11116e-08 DIIS
   @DF-RKS iter  10:  -381.47043420088465   -3.41061e-13   4.47535e-09 DIIS

  ==> Post-Iterations <==

    Orbital Energies [Eh]
    ---------------------

    Doubly Occupied:                                                      

       1A    -14.568504     2A    -14.568464     3A    -10.497262  
       4A    -10.372677     5A    -10.355831     6A    -10.355641  
       7A    -10.342542     8A    -10.340137     9A    -10.340075  
      10A     -1.183934    11A     -1.092378    12A     -1.014000  
      13A     -0.926402    14A     -0.901837    15A     -0.845213  
      16A     -0.785673    17A     -0.773105    18A     -0.742405  
      19A     -0.732392    20A     -0.688958    21A     -0.668931  
      22A     -0.624946    23A     -0.617814    24A     -0.586042  
      25A     -0.578620    26A     -0.572554    27A     -0.518260  
      28A     -0.505014    29A     -0.497790    30A     -0.473184  
      31A     -0.411351    32A     -0.405369  

    Virtual:                                                              

      33A     -0.215682    34A     -0.157285    35A     -0.130415  
      36A     -0.107748    37A     -0.067035    38A     -0.061317  
      39A     -0.038734    40A     -0.034328    41A      0.007250  
      42A      0.018976    43A      0.021197    44A      0.055633  
      45A      0.061956    46A      0.083519    47A      0.128082  
      48A      0.150706    49A      0.155141    50A      0.157992  
      51A      0.201292    52A      0.242582    53A      0.298137  
      54A      0.348942    55A      0.355604    56A      0.381587  
      57A      0.387522    58A      0.397459    59A      0.422178  
      60A      0.422713    61A      0.443001    62A      0.447682  
      63A      0.452943    64A      0.471451    65A      0.471853  
      66A      0.475748    67A      0.485417    68A      0.512385  
      69A      0.527259    70A      0.532070    71A      0.539310  
      72A      0.587797    73A      0.605860    74A      0.654560  
      75A      0.656954    76A      0.682785    77A      0.687384  
      78A      0.704440    79A      0.716061    80A      0.717520  
      81A      0.738476    82A      0.768833    83A      0.775109  
      84A      0.799897    85A      0.810684    86A      0.830661  
      87A      0.850073    88A      0.942351    89A      0.962572  
      90A      0.992207    91A      1.003925    92A      1.027142  
      93A      1.060069    94A      1.075252    95A      1.144759  
      96A      1.168589    97A      1.223126    98A      1.272222  
      99A      1.286427   100A      1.307564   101A      1.321064  
     102A      1.342809   103A      1.360821   104A      1.375403  
     105A      1.444157   106A      1.454473   107A      1.470331  
     108A      1.608971   109A      1.622541   110A      1.656189  
     111A      1.666593   112A      1.737024   113A      1.755079  
     114A      1.794320   115A      1.825911   116A      1.857021  
     117A      1.902324   118A      1.907451   119A      1.959828  
     120A      1.974928   121A      1.997618   122A      2.016528  
     123A      2.044722   124A      2.065735   125A      2.124349  
     126A      2.131368   127A      2.151905   128A      2.216711  
     129A      2.225145   130A      2.263577   131A      2.354057  
     132A      2.367711   133A      2.440692   134A      2.454406  
     135A      2.489869   136A      2.519498   137A      2.552094  
     138A      2.588057   139A      2.603788   140A      2.630626  
     141A      2.737873   142A      2.883889   143A      2.981664  
     144A      3.259521   145A      3.637763   146A      3.656996  
     147A      3.914398   148A      3.948663   149A      3.964431  
     150A      4.056026   151A      4.175168   152A      4.257896  
     153A      4.546668  

    Final Occupation by Irrep:
              A 
    DOCC [    32 ]

  Energy converged.

  @DF-RKS Final Energy:  -381.47043420088465

   => Energetics <=

    Nuclear Repulsion Energy =            416.9780796069663893
    One-Electron Energy =               -1329.1747405011410592
    Two-Electron Energy =                 575.1437573216330748
    DFT Exchange-Correlation Energy =     -44.4055724283430990
    Empirical Dispersion Energy =          -0.0119582000000000
    VV10 Nonlocal Energy =                  0.0000000000000000
    Total Energy =                       -381.4704342008846538



Properties will be evaluated at   0.000000,   0.000000,   0.000000 [a0]

Properties computed using the SCF density matrix

  Nuclear Dipole Moment: [e a0]
     X:     0.3206      Y:    -0.1228      Z:    -0.0207

  Electronic Dipole Moment: [e a0]
     X:    -0.3305      Y:     0.1289      Z:    -2.2469

  Dipole Moment: [e a0]
     X:    -0.0099      Y:     0.0061      Z:    -2.2676     Total:     2.2676

  Dipole Moment: [D]
     X:    -0.0253      Y:     0.0154      Z:    -5.7637     Total:     5.7638


*** tstop() called on rosa.prib.upf.edu at Sat Sep 29 20:42:17 2018
Module time:
	user time   =      77.83 seconds =       1.30 minutes
	system time =       1.15 seconds =       0.02 minutes
	total time  =         22 seconds =       0.37 minutes
Total time:
	user time   =     211.72 seconds =       3.53 minutes
	system time =       2.94 seconds =       0.05 minutes
	total time  =         60 seconds =       1.00 minutes

*** tstart() called on rosa.prib.upf.edu
*** at Sat Sep 29 20:42:17 2018


         ------------------------------------------------------------
                                   SCF GRAD                          
                          Rob Parrish, Justin Turney,                
                       Andy Simmonett, and Alex Sokolov              
         ------------------------------------------------------------

  ==> Geometry <==

    Molecular point group: c1
    Full point group: C1

    Geometry (in Angstrom), charge = 1, multiplicity = 1:

       Center              X                  Y                   Z               Mass       
    ------------   -----------------  -----------------  -----------------  -----------------
         C            0.017810588820    -0.004054749977    -0.178358785809    12.000000000000
         C            0.053676771513     1.216612568452     0.520417847598    12.000000000000
         C            0.038764904858     1.211929738054     1.911861427323    12.000000000000
         C           -0.004737579236    -0.000342061980     2.607710811224    12.000000000000
         C           -0.042158815438    -1.214317701092     1.914558251586    12.000000000000
         C           -0.039673687995    -1.222546128861     0.523068804532    12.000000000000
         C            0.011550328950    -0.005461255228    -1.644758147079    12.000000000000
         H            0.049386073404     2.159989752795    -0.018726794310     1.007825032070
         H            0.051828723650     2.152303562673     2.453250456085     1.007825032070
         H           -0.012195941087     0.001059987737     3.693374686577     1.007825032070
         H           -0.066683545306    -2.153244440693     2.458229662854     1.007825032070
         H           -0.035889714088    -2.167452865054    -0.013390764170     1.007825032070
         N           -0.756569163490    -0.869784927578    -2.301272074004    14.003074004780
         N            0.755483010631     0.874104682678    -2.309469632372    14.003074004780
         H            0.711961607496     0.984536899673    -3.316046539859     1.007825032070
         H            1.442834575871     1.427429141482    -1.814018964505     1.007825032070
         H           -1.438576586789    -1.420794060852    -1.795760491581     1.007825032070
         H           -0.736811551763    -0.969968142229    -3.309669754087     1.007825032070

  Nuclear repulsion =  416.978079606966389

  ==> Basis Set <==

  Basis Set: 6-31G*
    Blend: 6-31G*
    Number of shells: 72
    Number of basis function: 153
    Number of Cartesian functions: 153
    Spherical Harmonics?: false
    Max angular momentum: 2

  ==> DFJKGrad: Density-Fitted SCF Gradients <==

    Gradient:                    1
    J tasked:                  Yes
    K tasked:                  Yes
    wK tasked:                  No
    OpenMP threads:              4
    Integrals threads:           4
    Memory (MB):              2002
    Schwarz Cutoff:          0E+00
    Fitting Condition:       1E-12

   => Auxiliary Basis Set <=

  Basis Set: (6-31G* AUX)
    Blend: CC-PVDZ-JKFIT
    Number of shells: 297
    Number of basis function: 954
    Number of Cartesian functions: 954
    Spherical Harmonics?: false
    Max angular momentum: 3

  ==> DFT Potential <==

   => Composite Functional: B3LYP-D3ZERO <= 

    B3LYP-d3zero Hyb-GGA Exchange-Correlation Functional

    P. J. Stephens, F. J. Devlin, C. F. Chabalowski, and M. J. Frisch, J. Phys. Chem. 98, 11623 (1994)

    Deriv               =              1
    GGA                 =           TRUE
    Meta                =          FALSE

    Exchange Hybrid     =           TRUE
    MP2 Hybrid          =          FALSE

   => Exchange Functionals <=

    0.0800   Slater exchange
    0.7200         Becke 88

   => Exact (HF) Exchange <=

    0.2000               HF 

   => Correlation Functionals <=

    0.1900   Vosko, Wilk & Nusair (VWN5_RPA)
    0.8100   Lee, Yang & Parr

   => Molecular Quadrature <=

    Radial Scheme       =       TREUTLER
    Pruning Scheme      =           FLAT
    Nuclear Scheme      =       TREUTLER

    BS radius alpha     =              1
    Pruning alpha       =              1
    Radial Points       =             75
    Spherical Points    =            302
    Total Points        =         396966
    Total Blocks        =           3009
    Max Points          =            256
    Max Functions       =            149


  -Total Gradient:
     Atom            X                  Y                   Z
    ------   -----------------  -----------------  -----------------
       1        0.001141661841     0.000725132743    -0.000305741890
       2       -0.001183762624    -0.000026923234    -0.000047171055
       3       -0.000086980986     0.000050247779    -0.000045628926
       4        0.000058280084    -0.000083658836     0.000125182052
       5        0.000152875455     0.000128074837     0.000025658917
       6       -0.000061490092    -0.000112872671    -0.000257356487
       7        0.001398821893    -0.002099369977     0.000344759659
       8        0.000075474105     0.000069387589    -0.000207368527
       9        0.000062178278     0.000013083696    -0.000026757182
      10       -0.000030097471    -0.000006268349     0.000029467716
      11       -0.000036511790    -0.000069767610    -0.000008336663
      12       -0.000259978763    -0.000047560507    -0.000143358222
      13       -0.000771477225     0.000677730647     0.000227295526
      14       -0.000102883030     0.000487980137     0.000154242606
      15       -0.000036160940     0.000072120429    -0.000122282636
      16        0.000049118660     0.000279067935     0.000143713352
      17       -0.000335892521    -0.000092820991     0.000211579203
      18       -0.000033940788     0.000031796918    -0.000117811158


*** tstop() called on rosa.prib.upf.edu at Sat Sep 29 20:42:24 2018
Module time:
	user time   =      27.36 seconds =       0.46 minutes
	system time =       0.73 seconds =       0.01 minutes
	total time  =          7 seconds =       0.12 minutes
Total time:
	user time   =     239.15 seconds =       3.99 minutes
	system time =       3.68 seconds =       0.06 minutes
	total time  =         67 seconds =       1.12 minutes

			-----------------------------------------
			 OPTKING 2.0: for geometry optimizations 
			  - R.A. King,  Bethel University        
			-----------------------------------------
	At level 1: Red. Int., RFO, no backsteps, dynamic trust

	Previous internal coordinate definitions found.
	---Fragment 1 Geometry and Gradient---
	 C           0.0336571351       -0.0076623670       -0.3370492586
	 C           0.1014343979        2.2990645642        0.9834472066
	 C           0.0732550537        2.2902152972        3.6128945017
	 C          -0.0089527273       -0.0006464035        4.9278592670
	 C          -0.0796686153       -2.2947278934        3.6179907610
	 C          -0.0749724050       -2.3102773684        0.9884567892
	 C           0.0218269585       -0.0103202767       -3.1081424528
	 H           0.0933261535        4.0817890826       -0.0353885126
	 H           0.0979420935        4.0672642883        4.6359714974
	 H          -0.0230469886        0.0020030865        6.9794666638
	 H          -0.1260136382       -4.0690422901        4.6453808345
	 H          -0.0678217306       -4.0958923209       -0.0253048770
	 N          -1.4297085196       -1.6436553076       -4.3487739771
	 N           1.4276559881        1.6518184617       -4.3642651174
	 H           1.3454124553        1.8605051081       -6.2664198042
	 H           2.7265622035        2.6974501515       -3.4279990428
	 H          -2.7185157702       -2.6849116662       -3.3934955293
	 H          -1.3923720444       -1.8329741464       -6.2543694255
	             0.0011416618        0.0007251327       -0.0003057419
	            -0.0011837626       -0.0000269232       -0.0000471711
	            -0.0000869810        0.0000502478       -0.0000456289
	             0.0000582801       -0.0000836588        0.0001251821
	             0.0001528755        0.0001280748        0.0000256589
	            -0.0000614901       -0.0001128727       -0.0002573565
	             0.0013988219       -0.0020993700        0.0003447597
	             0.0000754741        0.0000693876       -0.0002073685
	             0.0000621783        0.0000130837       -0.0000267572
	            -0.0000300975       -0.0000062683        0.0000294677
	            -0.0000365118       -0.0000697676       -0.0000083367
	            -0.0002599788       -0.0000475605       -0.0001433582
	            -0.0007714772        0.0006777306        0.0002272955
	            -0.0001028830        0.0004879801        0.0001542426
	            -0.0000361609        0.0000721204       -0.0001222826
	             0.0000491187        0.0002790679        0.0001437134
	            -0.0003358925       -0.0000928210        0.0002115792
	            -0.0000339408        0.0000317969       -0.0001178112

	---Fragment 1 Intrafragment Coordinates---
	 - Coordinate -           - BOHR/RAD -       - ANG/DEG -
	 R(1,2)           =         2.658814	       1.406984
	 R(1,6)           =         2.659098	       1.407134
	 R(1,7)           =         2.771120	       1.466413
	 R(2,3)           =         2.629613	       1.391531
	 R(2,8)           =         2.053338	       1.086580
	 R(3,4)           =         2.642714	       1.398464
	 R(3,9)           =         2.050658	       1.085162
	 R(4,5)           =         2.642644	       1.398427
	 R(4,10)          =         2.051658	       1.085690
	 R(5,6)           =         2.629584	       1.391516
	 R(5,11)          =         2.050822	       1.085248
	 R(6,12)          =         2.053335	       1.086578
	 R(7,13)          =         2.512749	       1.329689
	 R(7,14)          =         2.513345	       1.330005
	 R(13,17)         =         1.912536	       1.012071
	 R(13,18)         =         1.915341	       1.013555
	 R(14,15)         =         1.915335	       1.013551
	 R(14,16)         =         1.912354	       1.011974
	 B(1,2,3)         =         2.086819	     119.565914
	 B(1,2,8)         =         2.102157	     120.444742
	 B(1,6,5)         =         2.086817	     119.565780
	 B(1,6,12)        =         2.102248	     120.449965
	 B(1,7,13)        =         2.090727	     119.789816
	 B(1,7,14)        =         2.090651	     119.785490
	 B(2,1,6)         =         2.099878	     120.314137
	 B(2,1,7)         =         2.091609	     119.840341
	 B(2,3,4)         =         2.095319	     120.052963
	 B(2,3,9)         =         2.089581	     119.724170
	 B(3,2,8)         =         2.093279	     119.936051
	 B(3,4,5)         =         2.102172	     120.445588
	 B(3,4,10)        =         2.090546	     119.779487
	 B(4,3,9)         =         2.098243	     120.220493
	 B(4,5,6)         =         2.095252	     120.049104
	 B(4,5,11)        =         2.098268	     120.221907
	 B(5,4,10)        =         2.090463	     119.774721
	 B(5,6,12)        =         2.093072	     119.924196
	 B(6,1,7)         =         2.091476	     119.832746
	 B(6,5,11)        =         2.089644	     119.727787
	 B(7,13,17)       =         2.090425	     119.772554
	 B(7,13,18)       =         2.146246	     122.970843
	 B(7,14,15)       =         2.146445	     122.982250
	 B(7,14,16)       =         2.090737	     119.790406
	 B(13,7,14)       =         2.101605	     120.413115
	 B(15,14,16)      =         2.044079	     117.117072
	 B(17,13,18)      =         2.044588	     117.146236
	 D(1,2,3,4)       =         0.005652	       0.323813
	 D(1,2,3,9)       =        -3.126180	    -179.116906
	 D(1,6,5,4)       =         0.014018	       0.803153
	 D(1,6,5,11)      =        -3.120628	    -178.798802
	 D(1,7,13,17)     =         0.167331	       9.587351
	 D(1,7,13,18)     =        -3.042871	    -174.343646
	 D(1,7,14,15)     =        -3.021359	    -173.111107
	 D(1,7,14,16)     =         0.188833	      10.819328
	 D(2,1,6,5)       =        -0.015493	      -0.887663
	 D(2,1,6,12)      =        -3.107862	    -178.067375
	*D(2,1,7,13)      =        -2.443461	    -140.000009
	 D(2,1,7,14)      =         0.676619	      38.767420
	 D(2,3,4,5)       =        -0.007142	      -0.409198
	 D(2,3,4,10)      =         3.137322	     179.755335
	 D(3,2,1,6)       =         0.005641	       0.323183
	 D(3,2,1,7)       =         3.124504	     179.020883
	 D(3,4,5,6)       =        -0.002812	      -0.161144
	 D(3,4,5,11)      =         3.131798	     179.438827
	 D(4,3,2,8)       =         3.101119	     177.681047
	 D(4,5,6,12)      =         3.106649	     177.997892
	 D(5,4,3,9)       =         3.124641	     179.028720
	 D(5,6,1,7)       =        -3.134358	    -179.585461
	 D(6,1,2,8)       =        -3.089588	    -177.020354
	 D(6,1,7,13)      =         0.675512	      38.704012
	 D(6,1,7,14)      =        -2.487593	    -142.528559
	 D(6,5,4,10)      =         3.135909	     179.674332
	 D(7,1,2,8)       =         0.029275	       1.677345
	 D(7,1,6,12)      =         0.056458	       3.234826
	 D(8,2,3,9)       =        -0.030712	      -1.759672
	 D(9,3,4,10)      =        -0.014080	      -0.806747
	 D(10,4,5,11)     =        -0.012666	      -0.725698
	 D(11,5,6,12)     =        -0.027996	      -1.604063
	 D(13,7,14,15)    =         0.098585	       5.648522
	 D(13,7,14,16)    =        -2.974408	    -170.421043
	 D(14,7,13,17)    =        -2.952612	    -169.172224
	 D(14,7,13,18)    =         0.120371	       6.896778

	Current energy   :      -381.4704342009

	Energy change for the previous step:
		Projected    :        -0.0001701056
		Actual       :        -0.0000221153
	Energy ratio indicates iffy step: Trust radius decreased to 1.250e-01.


	Performing BFGS update.
	Previous computed or guess Hessian on step 1.
	Steps to be used in Hessian update: 1
	Taking RFO optimization step.
	Going to follow RFO solution 1.
	Using RFO vector 1.
	Norm of target step-size    0.03129
	Projected energy change by RFO approximation:        -0.0000431876

	Back-transformation to cartesian coordinates...
	Successfully converged to displaced geometry.

	Back-transformation to cartesian coordinates to adjust frozen coordinates...
	Successfully converged to displaced geometry.

	--- Internal Coordinate Step in ANG or DEG, aJ/ANG or AJ/DEG ---
	 ---------------------------------------------------------------------------
	   Coordinate                Previous        Force       Change         New 
	   ----------                --------       ------       ------       ------
	    1 R(1,2)          =      1.406984     0.001692     0.000126     1.407110
	    2 R(1,6)          =      1.407134     0.001173     0.000033     1.407167
	    3 R(1,7)          =      1.466413     0.006997     0.000740     1.467153
	    4 R(2,3)          =      1.391531    -0.000228    -0.000017     1.391514
	    5 R(2,8)          =      1.086580    -0.001338    -0.000177     1.086402
	    6 R(3,4)          =      1.398464    -0.001693    -0.000165     1.398299
	    7 R(3,9)          =      1.085162     0.000005     0.000001     1.085162
	    8 R(4,5)          =      1.398427    -0.000901    -0.000085     1.398342
	    9 R(4,10)         =      1.085690    -0.000254    -0.000036     1.085655
	   10 R(5,6)          =      1.391516    -0.000652    -0.000049     1.391467
	   11 R(5,11)         =      1.085248    -0.000473    -0.000080     1.085168
	   12 R(6,12)         =      1.086578    -0.000911    -0.000128     1.086450
	   13 R(7,13)         =      1.329689    -0.000804    -0.000090     1.329600
	   14 R(7,14)         =      1.330005    -0.003426    -0.000363     1.329642
	   15 R(13,17)        =      1.012071    -0.003156    -0.000348     1.011722
	   16 R(13,18)        =      1.013555    -0.000925    -0.000097     1.013458
	   17 R(14,15)        =      1.013551    -0.001069    -0.000109     1.013443
	   18 R(14,16)        =      1.011974    -0.002119    -0.000228     1.011746
	   19 B(1,2,3)        =    119.565914     0.000009     0.012966   119.578880
	   20 B(1,2,8)        =    120.444742     0.000007     0.015865   120.460607
	   21 B(1,6,5)        =    119.565780     0.000013     0.020871   119.586651
	   22 B(1,6,12)       =    120.449965     0.000001    -0.001833   120.448132
	   23 B(1,7,13)       =    119.789816     0.000027     0.044121   119.833937
	   24 B(1,7,14)       =    119.785490     0.000031     0.050382   119.835871
	   25 B(2,1,6)        =    120.314137    -0.000024    -0.030532   120.283605
	   26 B(2,1,7)        =    119.840341     0.000002    -0.002795   119.837546
	   27 B(2,3,4)        =    120.052963     0.000002     0.001098   120.054061
	   28 B(2,3,9)        =    119.724170     0.000001     0.005740   119.729910
	   29 B(3,2,8)        =    119.936051    -0.000016    -0.035366   119.900686
	   30 B(3,4,5)        =    120.445588     0.000002     0.001694   120.447281
	   31 B(3,4,10)       =    119.779487    -0.000002    -0.002992   119.776496
	   32 B(4,3,9)        =    120.220493    -0.000003    -0.007406   120.213087
	   33 B(4,5,6)        =    120.049104    -0.000001    -0.004320   120.044783
	   34 B(4,5,11)       =    120.221907    -0.000003    -0.006855   120.215052
	   35 B(5,4,10)       =    119.774721    -0.000001     0.001465   119.776186
	   36 B(5,6,12)       =    119.924196    -0.000014    -0.024166   119.900030
	   37 B(6,1,7)        =    119.832746     0.000022     0.036488   119.869235
	   38 B(6,5,11)       =    119.727787     0.000004     0.010507   119.738294
	   39 B(7,13,17)      =    119.772554     0.000005     0.011518   119.784072
	   40 B(7,13,18)      =    122.970843    -0.000002     0.006363   122.977206
	   41 B(7,14,15)      =    122.982250    -0.000002    -0.005728   122.976522
	   42 B(7,14,16)      =    119.790406    -0.000001    -0.017666   119.772740
	   43 B(13,7,14)      =    120.413115    -0.000057    -0.084734   120.328381
	   44 B(15,14,16)     =    117.117072     0.000001     0.005291   117.122362
	   45 B(17,13,18)     =    117.146236    -0.000002    -0.001048   117.145189
	   46 D(1,2,3,4)      =      0.323813     0.000001     0.076571     0.400384
	   47 D(1,2,3,9)      =   -179.116906     0.000001     0.139866  -178.977040
	   48 D(1,6,5,4)      =      0.803153    -0.000001    -0.082720     0.720433
	   49 D(1,6,5,11)     =   -178.798802     0.000000     0.015750  -178.783053
	   50 D(1,7,13,17)    =      9.587351     0.000001     0.142612     9.729964
	   51 D(1,7,13,18)    =   -174.343646     0.000004     0.454401  -173.889246
	   52 D(1,7,14,15)    =   -173.111107    -0.000004    -0.457900  -173.569007
	   53 D(1,7,14,16)    =     10.819328    -0.000000    -0.148183    10.671145
	   54 D(2,1,6,5)      =     -0.887663     0.000002     0.222232    -0.665430
	   55 D(2,1,6,12)     =   -178.067375     0.000003     0.340814  -177.726561
	   56 *D(2,1,7,13)    =   -140.000009    -0.000000    -0.000000  -140.000009
	   57 D(2,1,7,14)     =     38.767420     0.000006     0.744658    39.512078
	   58 D(2,3,4,5)      =     -0.409198     0.000001     0.062193    -0.347004
	   59 D(2,3,4,10)     =    179.755335    -0.000000    -0.032593   179.722742
	   60 D(3,2,1,6)      =      0.323183    -0.000002    -0.219152     0.104031
	   61 D(3,2,1,7)      =    179.020883    -0.000000    -0.046196   178.974687
	   62 D(3,4,5,6)      =     -0.161144    -0.000000    -0.058943    -0.220086
	   63 D(3,4,5,11)     =    179.438827    -0.000001    -0.157817   179.281010
	   64 D(4,3,2,8)      =    177.681047    -0.000001    -0.080214   177.600832
	   65 D(4,5,6,12)     =    177.997892    -0.000002    -0.200015   177.797878
	   66 D(5,4,3,9)      =    179.028720    -0.000000    -0.001336   179.027385
	   67 D(5,6,1,7)      =   -179.585461     0.000001     0.049734  -179.535727
	   68 D(6,1,2,8)      =   -177.020354    -0.000000    -0.060094  -177.080448
	   69 D(6,1,7,13)     =     38.704012     0.000001     0.171355    38.875367
	   70 D(6,1,7,14)     =   -142.528559     0.000007     0.916013  -141.612546
	   71 D(6,5,4,10)     =    179.674332     0.000000     0.035836   179.710168
	   72 D(7,1,2,8)      =      1.677345     0.000001     0.112862     1.790207
	   73 D(7,1,6,12)     =      3.234826     0.000002     0.168316     3.403142
	   74 D(8,2,3,9)      =     -1.759672    -0.000000    -0.016920    -1.776592
	   75 D(9,3,4,10)     =     -0.806747    -0.000001    -0.096122    -0.902869
	   76 D(10,4,5,11)    =     -0.725698    -0.000001    -0.063038    -0.788736
	   77 D(11,5,6,12)    =     -1.604063    -0.000001    -0.101545    -1.705608
	   78 D(13,7,14,15)   =      5.648522     0.000002     0.292113     5.940635
	   79 D(13,7,14,16)   =   -170.421043     0.000006     0.601829  -169.819214
	   80 D(14,7,13,17)   =   -169.172224    -0.000005    -0.607463  -169.779687
	   81 D(14,7,13,18)   =      6.896778    -0.000002    -0.295675     6.601103
	 ---------------------------------------------------------------------------
	Successfully symmetrized geometry.

  ==> Convergence Check <==

  Measures of convergence in internal coordinates in au.
  Criteria marked as inactive (o), active & met (*), and active & unmet ( ).
  ---------------------------------------------------------------------------------------------
   Step     Total Energy     Delta E     MAX Force     RMS Force      MAX Disp      RMS Disp   
  ---------------------------------------------------------------------------------------------
    Convergence Criteria    1.00e-06 *    3.00e-04 *             o    1.20e-03 *             o
  ---------------------------------------------------------------------------------------------
      2    -381.47043420   -2.21e-05      8.49e-04      2.00e-04 o    1.60e-02      3.48e-03 o  ~
  ---------------------------------------------------------------------------------------------

	Writing optimization data to binary file.
	Structure for next step:
	Cartesian Geometry (in Angstrom)
	    C     0.0142545553  -0.0016530725  -0.1779698124
	    C     0.0478222601   1.2184088825   0.5222302937
	    C     0.0326718376   1.2124697942   1.9136496201
	    C    -0.0071782403  -0.0003800068   2.6083786857
	    C    -0.0393850680  -1.2138627099   1.9142722716
	    C    -0.0365447568  -1.2208424955   0.5228258232
	    C     0.0072413589  -0.0013457150  -1.6451061336
	    H     0.0393646982   2.1623952636  -0.0154391029
	    H     0.0416666560   2.1523718906   2.4559412361
	    H    -0.0143003891   0.0001167166   3.6940097278
	    H    -0.0585039225  -2.1532301999   2.4572389894
	    H    -0.0254156915  -2.1653333884  -0.0140040446
	    N    -0.7589450555  -0.8661277801  -2.3030920022
	    N     0.7597202041   0.8701905892  -2.3100476992
	    H     0.7210833612   0.9767468176  -3.3171320995
	    H     1.4517651118   1.4171818286  -1.8145633065
	    H    -1.4410680830  -1.4178431648  -1.7992068158
	    H    -0.7342488365  -0.9692632500  -3.3109856309
			--------------------------
			 OPTKING Finished Execution 
			--------------------------

    Structure for next step:
    Molecular point group: c1
    Full point group: C1

    Geometry (in Angstrom), charge = 1, multiplicity = 1:

    C            0.014254555331    -0.001653072503    -0.177969812351
    C            0.047822260051     1.218408882477     0.522230293743
    C            0.032671837630     1.212469794162     1.913649620061
    C           -0.007178240336    -0.000380006835     2.608378685705
    C           -0.039385067983    -1.213862709935     1.914272271613
    C           -0.036544756759    -1.220842495487     0.522825823191
    C            0.007241358938    -0.001345714976    -1.645106133589
    H            0.039364698172     2.162395263624    -0.015439102919
    H            0.041666655952     2.152371890606     2.455941236093
    H           -0.014300389096     0.000116716585     3.694009727846
    H           -0.058503922500    -2.153230199905     2.457238989421
    H           -0.025415691487    -2.165333388354    -0.014004044614
    N           -0.758945055525    -0.866127780050    -2.303092002237
    N            0.759720204073     0.870190589177    -2.310047699198
    H            0.721083361235     0.976746817569    -3.317132099497
    H            1.451765111815     1.417181828650    -1.814563306524
    H           -1.441068083043    -1.417843164781    -1.799206815819
    H           -0.734248836469    -0.969263250023    -3.310985630924

gradient() will perform analytic gradient computation.

*** tstart() called on rosa.prib.upf.edu
*** at Sat Sep 29 20:42:24 2018

   => Loading Basis Set <=

    Name: 6-31G*
    Role: ORBITAL
    Keyword: BASIS
    atoms 1-7         entry C          line   111 file /shared/joao/test_parameterize/miniconda3/share/psi4/basis/6-31gs.gbs 
    atoms 8-12, 15-18 entry H          line    44 file /shared/joao/test_parameterize/miniconda3/share/psi4/basis/6-31gs.gbs 
    atoms 13-14       entry N          line   128 file /shared/joao/test_parameterize/miniconda3/share/psi4/basis/6-31gs.gbs 


         ---------------------------------------------------------
                                   SCF
            by Justin Turney, Rob Parrish, Andy Simmonett
                             and Daniel Smith
                              RKS Reference
                        4 Threads,   2861 MiB Core
         ---------------------------------------------------------

  ==> Geometry <==

    Molecular point group: c1
    Full point group: C1

    Geometry (in Angstrom), charge = 1, multiplicity = 1:

       Center              X                  Y                   Z               Mass       
[...]
	            -0.0008207990        0.0000390400        0.0000157359
	             0.0000193594       -0.0000113291       -0.0000048796
	            -0.0000238431       -0.0000014286       -0.0000062666
	            -0.0000032611        0.0000027454        0.0000041180
	            -0.0000146734       -0.0000361298        0.0000331050
	             0.0006451662       -0.0009011066        0.0000075509
	             0.0000297398       -0.0000155623       -0.0000209086
	            -0.0000105086        0.0000000497       -0.0000000592
	             0.0000084745        0.0000014384       -0.0000039965
	             0.0000119265        0.0000016598       -0.0000015518
	             0.0000302720        0.0000112747        0.0000064852
	            -0.0006514754        0.0005630186       -0.0000266912
	            -0.0000584501        0.0000130733        0.0000000444
	            -0.0000020961        0.0000049582       -0.0000012321
	            -0.0000140007        0.0000000239        0.0000133137
	            -0.0000052587        0.0000362365       -0.0000133911
	            -0.0000074472        0.0000101893       -0.0000023916

	---Fragment 1 Intrafragment Coordinates---
	 - Coordinate -           - BOHR/RAD -       - ANG/DEG -
	 R(1,2)           =         2.659048	       1.407108
	 R(1,6)           =         2.659172	       1.407173
	 R(1,7)           =         2.773060	       1.467440
	 R(2,3)           =         2.629629	       1.391540
	 R(2,8)           =         2.052947	       1.086373
	 R(3,4)           =         2.642288	       1.398239
	 R(3,9)           =         2.050664	       1.085165
	 R(4,5)           =         2.642488	       1.398345
	 R(4,10)          =         2.051584	       1.085651
	 R(5,6)           =         2.629454	       1.391447
	 R(5,11)          =         2.050652	       1.085158
	 R(6,12)          =         2.053067	       1.086436
	 R(7,13)          =         2.512460	       1.329537
	 R(7,14)          =         2.512582	       1.329601
	 R(13,17)         =         1.911778	       1.011669
	 R(13,18)         =         1.915106	       1.013430
	 R(14,15)         =         1.915087	       1.013420
	 R(14,16)         =         1.911868	       1.011717
	 B(1,2,3)         =         2.087050	     119.579174
	 B(1,2,8)         =         2.102513	     120.465098
	 B(1,6,5)         =         2.087187	     119.586989
	 B(1,6,12)        =         2.102310	     120.453479
	 B(1,7,13)        =         2.091663	     119.843472
	 B(1,7,14)        =         2.091417	     119.829378
	 B(2,1,6)         =         2.099334	     120.282997
	 B(2,1,7)         =         2.091093	     119.810820
	 B(2,3,4)         =         2.095313	     120.052565
	 B(2,3,9)         =         2.089736	     119.733049
	 B(3,2,8)         =         2.092598	     119.897020
	 B(3,4,5)         =         2.102254	     120.450261
	 B(3,4,10)        =         2.090463	     119.774682
	 B(4,3,9)         =         2.098084	     120.211377
	 B(4,5,6)         =         2.095161	     120.043859
	 B(4,5,11)        =         2.098093	     120.211891
	 B(5,4,10)        =         2.090469	     119.775048
	 B(5,6,12)        =         2.092495	     119.891134
	 B(6,1,7)         =         2.092640	     119.899421
	 B(6,5,11)        =         2.089895	     119.742143
	 B(7,13,17)       =         2.090687	     119.787565
	 B(7,13,18)       =         2.146362	     122.977495
	 B(7,14,15)       =         2.146423	     122.981001
	 B(7,14,16)       =         2.090358	     119.768662
	 B(13,7,14)       =         2.100043	     120.323611
	 B(15,14,16)      =         2.044243	     117.126477
	 B(17,13,18)      =         2.044576	     117.145569
	 D(1,2,3,4)       =         0.007022	       0.402355
	 D(1,2,3,9)       =        -3.123582	    -178.968044
	 D(1,6,5,4)       =         0.012094	       0.692913
	 D(1,6,5,11)      =        -3.120304	    -178.780235
	 D(1,7,13,17)     =         0.167251	       9.582776
	 D(1,7,13,18)     =        -3.036088	    -173.955044
	 D(1,7,14,15)     =        -3.027897	    -173.485726
	 D(1,7,14,16)     =         0.186386	      10.679127
	 D(2,1,6,5)       =        -0.010195	      -0.584132
	 D(2,1,6,12)      =        -3.099243	    -177.573531
	*D(2,1,7,13)      =        -2.443461	    -140.000009
	 D(2,1,7,14)      =         0.686227	      39.317933
	 D(2,3,4,5)       =        -0.005151	      -0.295150
	 D(2,3,4,10)      =         3.137057	     179.740136
	 D(3,2,1,6)       =         0.000620	       0.035529
	 D(3,2,1,7)       =         3.125687	     179.088696
	 D(3,4,5,6)       =        -0.004521	      -0.259010
	 D(3,4,5,11)      =         3.127833	     179.211640
	 D(4,3,2,8)       =         3.100215	     177.629224
	 D(4,5,6,12)      =         3.101441	     177.699457
	 D(5,4,3,9)       =         3.125400	     179.072210
	 D(5,6,1,7)       =        -3.135248	    -179.636458
	 D(6,1,2,8)       =        -3.092292	    -177.175291
	 D(6,1,7,13)      =         0.681670	      39.056825
	 D(6,1,7,14)      =        -2.471827	    -141.625234
	 D(6,5,4,10)      =         3.136456	     179.705704
	 D(7,1,2,8)       =         0.032775	       1.877876
	 D(7,1,6,12)      =         0.058890	       3.374143
	 D(8,2,3,9)       =        -0.030389	      -1.741174
	 D(9,3,4,10)      =        -0.015577	      -0.892505
	 D(10,4,5,11)     =        -0.014375	      -0.823645
	 D(11,5,6,12)     =        -0.030957	      -1.773690
	 D(13,7,14,15)    =         0.101733	       5.828897
	 D(13,7,14,16)    =        -2.967169	    -170.006250
	 D(14,7,13,17)    =        -2.962378	    -169.731750
	 D(14,7,13,18)    =         0.117468	       6.730431

	Current energy   :      -381.4704490809

	Energy change for the previous step:
		Projected    :        -0.0000033516
		Actual       :        -0.0000006254
	Energy ratio indicates iffy step: Trust radius decreased to 3.125e-02.


	Performing BFGS update.
	Previous computed or guess Hessian on step 1.
	Steps to be used in Hessian update: 3 2
	Taking RFO optimization step.
	Going to follow RFO solution 1.
	Using RFO vector 1.
	Norm of target step-size    0.00318
	Projected energy change by RFO approximation:        -0.0000001894

	Back-transformation to cartesian coordinates...
	Could not converge backtransformation.
	Using first guess instead.

	Back-transformation to cartesian coordinates to adjust frozen coordinates...
	Successfully converged to displaced geometry.

	--- Internal Coordinate Step in ANG or DEG, aJ/ANG or AJ/DEG ---
	 ---------------------------------------------------------------------------
	   Coordinate                Previous        Force       Change         New 
	   ----------                --------       ------       ------       ------
	    1 R(1,2)          =      1.407108     0.000085     0.000008     1.407116
	    2 R(1,6)          =      1.407173    -0.000329    -0.000037     1.407136
	    3 R(1,7)          =      1.467440    -0.000126     0.000001     1.467441
	    4 R(2,3)          =      1.391540     0.000045     0.000008     1.391548
	    5 R(2,8)          =      1.086373     0.000032     0.000004     1.086377
	    6 R(3,4)          =      1.398239     0.000031    -0.000000     1.398239
	    7 R(3,9)          =      1.085165    -0.000004    -0.000001     1.085164
	    8 R(4,5)          =      1.398345     0.000043     0.000007     1.398351
	    9 R(4,10)         =      1.085651     0.000024     0.000004     1.085655
	   10 R(5,6)          =      1.391447     0.000004    -0.000004     1.391444
	   11 R(5,11)         =      1.085158     0.000016     0.000002     1.085160
	   12 R(6,12)         =      1.086436     0.000110     0.000015     1.086451
	   13 R(7,13)         =      1.329537    -0.000052    -0.000008     1.329529
	   14 R(7,14)         =      1.329601     0.000310     0.000029     1.329630
	   15 R(13,17)        =      1.011669     0.000184     0.000018     1.011687
	   16 R(13,18)        =      1.013430     0.000000    -0.000003     1.013427
	   17 R(14,15)        =      1.013420    -0.000005    -0.000003     1.013417
	   18 R(14,16)        =      1.011717     0.000018     0.000000     1.011717
	   19 B(1,2,3)        =    119.579174    -0.000000    -0.000476   119.578698
	   20 B(1,2,8)        =    120.465098     0.000002     0.007372   120.472471
	   21 B(1,6,5)        =    119.586989     0.000000     0.000511   119.587500
	   22 B(1,6,12)       =    120.453479    -0.000000     0.001623   120.455102
	   23 B(1,7,13)       =    119.843472    -0.000007    -0.013624   119.829847
	   24 B(1,7,14)       =    119.829378     0.000004     0.008483   119.837861
	   25 B(2,1,6)        =    120.282997     0.000001     0.000594   120.283590
	   26 B(2,1,7)        =    119.810820     0.000004     0.006852   119.817672
	   27 B(2,3,4)        =    120.052565    -0.000000    -0.000320   120.052245
	   28 B(2,3,9)        =    119.733049     0.000000    -0.000001   119.733048
	   29 B(3,2,8)        =    119.897020    -0.000002    -0.007592   119.889428
	   30 B(3,4,5)        =    120.450261    -0.000000    -0.000467   120.449794
	   31 B(3,4,10)       =    119.774682     0.000000     0.000677   119.775358
	   32 B(4,3,9)        =    120.211377     0.000000     0.000324   120.211702
	   33 B(4,5,6)        =    120.043859     0.000000     0.000097   120.043956
	   34 B(4,5,11)       =    120.211891    -0.000000    -0.000040   120.211852
	   35 B(5,4,10)       =    119.775048     0.000000    -0.000235   119.774813
	   36 B(5,6,12)       =    119.891134    -0.000000    -0.001140   119.889994
	   37 B(6,1,7)        =    119.899421    -0.000005    -0.007721   119.891700
	   38 B(6,5,11)       =    119.742143    -0.000000     0.000053   119.742196
	   39 B(7,13,17)      =    119.787565     0.000000     0.003415   119.790980
	   40 B(7,13,18)      =    122.977495     0.000000     0.000677   122.978172
	   41 B(7,14,15)      =    122.981001    -0.000001    -0.003870   122.977131
	   42 B(7,14,16)      =    119.768662     0.000002     0.006221   119.774883
	   43 B(13,7,14)      =    120.323611     0.000002     0.005737   120.329348
	   44 B(15,14,16)     =    117.126477    -0.000001    -0.002800   117.123677
	   45 B(17,13,18)     =    117.145569    -0.000000    -0.000252   117.145317
	   46 D(1,2,3,4)      =      0.402355    -0.000000    -0.011360     0.390994
	   47 D(1,2,3,9)      =   -178.968044    -0.000000    -0.011696  -178.979740
	   48 D(1,6,5,4)      =      0.692913     0.000000    -0.001256     0.691656
	   49 D(1,6,5,11)     =   -178.780235    -0.000000    -0.015255  -178.795490
	   50 D(1,7,13,17)    =      9.582776    -0.000000    -0.021994     9.560781
	   51 D(1,7,13,18)    =   -173.955044     0.000001     0.054763  -173.900280
	   52 D(1,7,14,15)    =   -173.485726    -0.000000    -0.035991  -173.521716
	   53 D(1,7,14,16)    =     10.679127    -0.000000    -0.028352    10.650776
	   54 D(2,1,6,5)      =     -0.584132    -0.000000    -0.024064    -0.608196
	   55 D(2,1,6,12)     =   -177.573531    -0.000000    -0.045976  -177.619507
	   56 *D(2,1,7,13)    =   -140.000009     0.000000     0.000000  -140.000009
	   57 D(2,1,7,14)     =     39.317933     0.000001     0.060024    39.377956
	   58 D(2,3,4,5)      =     -0.295150    -0.000000    -0.013926    -0.309076
	   59 D(2,3,4,10)     =    179.740136     0.000000     0.019001   179.759137
	   60 D(3,2,1,6)      =      0.035529     0.000000     0.030381     0.065910
	   61 D(3,2,1,7)      =    179.088696    -0.000000     0.011233   179.099929
	   62 D(3,4,5,6)      =     -0.259010     0.000000     0.020316    -0.238694
	   63 D(3,4,5,11)     =    179.211640     0.000000     0.034382   179.246022
	   64 D(4,3,2,8)      =    177.629224    -0.000000    -0.027515   177.601709
	   65 D(4,5,6,12)     =    177.699457     0.000000     0.020614   177.720072
	   66 D(5,4,3,9)      =    179.072210    -0.000000    -0.013591   179.058619
	   67 D(5,6,1,7)      =   -179.636458     0.000000    -0.005041  -179.641498
	   68 D(6,1,2,8)      =   -177.175291     0.000000     0.047056  -177.128235
	   69 D(6,1,7,13)     =     39.056825    -0.000000    -0.018993    39.037831
	   70 D(6,1,7,14)     =   -141.625234     0.000000     0.041030  -141.584204
	   71 D(6,5,4,10)     =    179.705704    -0.000000    -0.012611   179.693094
	   72 D(7,1,2,8)      =      1.877876     0.000000     0.027908     1.905784
	   73 D(7,1,6,12)     =      3.374143    -0.000000    -0.026952     3.347190
	   74 D(8,2,3,9)      =     -1.741174    -0.000000    -0.027851    -1.769025
	   75 D(9,3,4,10)     =     -0.892505     0.000000     0.019336    -0.873168
	   76 D(10,4,5,11)    =     -0.823645     0.000000     0.001455    -0.822190
	   77 D(11,5,6,12)    =     -1.773690     0.000000     0.006615    -1.767075
	   78 D(13,7,14,15)   =      5.828897     0.000000     0.024203     5.853100
	   79 D(13,7,14,16)   =   -170.006250     0.000000     0.031842  -169.974408
	   80 D(14,7,13,17)   =   -169.731750    -0.000001    -0.082335  -169.814085
	   81 D(14,7,13,18)   =      6.730431    -0.000000    -0.005577     6.724853
	 ---------------------------------------------------------------------------
	Successfully symmetrized geometry.

  ==> Convergence Check <==

  Measures of convergence in internal coordinates in au.
  Criteria marked as inactive (o), active & met (*), and active & unmet ( ).
  ---------------------------------------------------------------------------------------------
   Step     Total Energy     Delta E     MAX Force     RMS Force      MAX Disp      RMS Disp   
  ---------------------------------------------------------------------------------------------
    Convergence Criteria    1.00e-06 *    3.00e-04 *             o    1.20e-03 *             o
  ---------------------------------------------------------------------------------------------
      4    -381.47044908   -6.25e-07 *    8.55e-05 *    2.08e-05 o    1.44e-03      3.53e-04 o  ~
  ---------------------------------------------------------------------------------------------


  **** Optimization is complete! (in 4 steps) ****

  ==> Optimization Summary <==

  Measures of convergence in internal coordinates in au.
  --------------------------------------------------------------------------------------------------------------- ~
   Step         Total Energy             Delta E       MAX Force       RMS Force        MAX Disp        RMS Disp  ~
  --------------------------------------------------------------------------------------------------------------- ~
      1    -381.470412085580   -381.470412085580      0.00126504      0.00028598      0.04413156      0.00855667  ~
      2    -381.470434200885     -0.000022115304      0.00084933      0.00020013      0.01598745      0.00347699  ~
      3    -381.470448455510     -0.000014254626      0.00016508      0.00003747      0.00338847      0.00102388  ~
      4    -381.470449080913     -0.000000625402      0.00008554      0.00002084      0.00143701      0.00035293  ~
  --------------------------------------------------------------------------------------------------------------- ~

	Writing optimization data to binary file.
	Final energy is   -381.4704490809126
	Final (previous) structure:
	Cartesian Geometry (in Angstrom)
	    C     0.0127919442  -0.0026610090  -0.1778993450
	    C     0.0476693880   1.2177055811   0.5217013868
	    C     0.0332002160   1.2124482918   1.9131562168
	    C    -0.0072230141  -0.0000017388   2.6084277948
	    C    -0.0395999534  -1.2138468794   1.9149588167
	    C    -0.0371740693  -1.2215250634   0.5235350184
	    C     0.0076043768  -0.0024287438  -1.6453302514
	    H     0.0401263861   2.1614541508  -0.0163389502
	    H     0.0430567003   2.1525787518   2.4550415158
	    H    -0.0140952196   0.0010380030   3.6940568772
	    H    -0.0580287455  -2.1529066136   2.4584618579
	    H    -0.0245577089  -2.1663378335  -0.0126677829
	    N    -0.7591941702  -0.8657598252  -2.3043806115
	    N     0.7595365079   0.8703159008  -2.3092230066
	    H     0.7212304872   0.9777619658  -3.3162028552
	    H     1.4500926889   1.4182615932  -1.8127765821
	    H    -1.4414221990  -1.4179039798  -1.8012137446
	    H    -0.7340136155  -0.9681925517  -3.3123063548
	Saving final (previous) structure.
	Removing binary optimization data file.
			--------------------------
			 OPTKING Finished Execution 
			--------------------------

    Final optimized geometry and variables:
    Molecular point group: c1
    Full point group: C1

    Geometry (in Angstrom), charge = 1, multiplicity = 1:

    C            0.012791944235    -0.002661009042    -0.177899345040
    C            0.047669388007     1.217705581104     0.521701386838
    C            0.033200216009     1.212448291808     1.913156216772
    C           -0.007223014069    -0.000001738799     2.608427794792
    C           -0.039599953380    -1.213846879407     1.914958816730
    C           -0.037174069300    -1.221525063359     0.523535018354
    C            0.007604376805    -0.002428743819    -1.645330251388
    H            0.040126386127     2.161454150835    -0.016338950228
    H            0.043056700264     2.152578751797     2.455041515750
    H           -0.014095219605     0.001038003016     3.694056877238
    H           -0.058028745505    -2.152906613591     2.458461857908
    H           -0.024557708941    -2.166337833520    -0.012667782897
    N           -0.759194170193    -0.865759825169    -2.304380611474
    N            0.759536507899     0.870315900757    -2.309223006557
    H            0.721230487212     0.977761965764    -3.316202855244
    H            1.450092688946     1.418261593172    -1.812776582106
    H           -1.441422199045    -1.417903979813    -1.801213744634
    H           -0.734013615467    -0.968192551732    -3.312306354816

	Removing binary optimization data file.
	Cleaning optimization helper files.


Properties will be evaluated at   0.000000,   0.000000,   0.000000 [a0]
OEProp: No title given, name of density matrix used for the following properties is 'SCF density'
  Nuclear Dipole Moment: [e a0]
     X:     0.1670      Y:    -0.0458      Z:    -0.0149

  Electronic Dipole Moment: [e a0]
     X:    -0.1690      Y:     0.0467      Z:    -2.2575

  Dipole Moment: [e a0]
     X:    -0.0020      Y:     0.0010      Z:    -2.2724     Total:     2.2724

  Dipole Moment: [D]
     X:    -0.0051      Y:     0.0024      Z:    -5.7758     Total:     5.7758

  Quadrupole Moment: [D A]
    XX:   -48.7947     YY:   -38.5573     ZZ:   -13.3142
    XY:     6.5678     XZ:    -0.0482     YZ:    -0.0501

  Traceless Quadrupole Moment: [D A]
    XX:   -15.2393     YY:    -5.0019     ZZ:    20.2412
    XY:     6.5678     XZ:    -0.0482     YZ:    -0.0501

  Mulliken Charges: (a.u.)
   Center  Symbol    Alpha    Beta     Spin     Total
       1     C     2.96010  2.96010  0.00000  0.07979
       2     C     3.08082  3.08082  0.00000 -0.16165
       3     C     3.06244  3.06244  0.00000 -0.12488
       4     C     3.05158  3.05158  0.00000 -0.10316
       5     C     3.06265  3.06265  0.00000 -0.12529
       6     C     3.08166  3.08166  0.00000 -0.16332
       7     C     2.72409  2.72409  0.00000  0.55181
       8     H     0.41402  0.41402  0.00000  0.17197
       9     H     0.40554  0.40554  0.00000  0.18892
      10     H     0.40406  0.40406  0.00000  0.19187
      11     H     0.40554  0.40554  0.00000  0.18892
      12     H     0.41392  0.41392  0.00000  0.17215
      13     N     3.86159  3.86159  0.00000 -0.72319
      14     N     3.86195  3.86195  0.00000 -0.72390
      15     H     0.30566  0.30566  0.00000  0.38867
      16     H     0.29937  0.29937  0.00000  0.40126
      17     H     0.29933  0.29933  0.00000  0.40134
      18     H     0.30566  0.30566  0.00000  0.38868

   Total alpha = 32.00000, Total beta = 32.00000, Total charge =  1.00000


    Psi4 stopped on: Saturday, 29 September 2018 08:43PM
    Psi4 wall time for execution: 0:01:59.85

*** Psi4 exiting successfully. Buy a developer a beer!
