
    -----------------------------------------------------------------------
          Psi4: An Open-Source Ab Initio Electronic Structure Package
                               Psi4 1.2.1 release

                         Git: Rev {HEAD} 406f4de 


    R. M. Parrish, L. A. Burns, D. G. A. Smith, A. C. Simmonett,
    A. E. DePrince III, E. G. Hohenstein, U. Bozkaya, A. Yu. Sokolov,
    R. Di Remigio, R. M. Richard, J. F. Gonthier, A. M. James,
    H. R. McAlexander, A. Kumar, M. Saitow, X. Wang, B. P. Pritchard,
    P. Verma, H. F. Schaefer III, K. Patkowski, R. A. King, E. F. Valeev,
    F. A. Evangelista, J. M. Turney, T. D. Crawford, and C. D. Sherrill,
    J. Chem. Theory Comput. 13(7) pp 3185--3197 (2017).
    (doi: 10.1021/acs.jctc.7b00174)


                         Additional Contributions by
    P. Kraus, H. Kruse, M. H. Lechner, M. C. Schieber, and R. A. Shaw

    -----------------------------------------------------------------------


    Psi4 started on: Saturday, 29 September 2018 08:34PM

    Process ID: 17328
    Host:       green.prib.upf.edu
    PSIDATADIR: /shared/joao/test_parameterize/miniconda3/share/psi4
    Memory:     500.0 MiB
    Threads:    1
    
  ==> Input File <==

--------------------------------------------------------------------------
set_num_threads(4)
set_memory('3000 MB')

set { scf_mem_safety_factor 0.7 }

set { reference rks }
set { basis 6-31G* }

molecule MOL {
    1 1
    noreorient
    nocom
    symmetry c1
    C   -0.000000  -0.000000  -0.177864
    C    0.036678   1.219374   0.524165
    C    0.031765   1.213120   1.915444
    C    0.000000   0.000000   2.610107
    C   -0.031765  -1.213120   1.915444
    C   -0.036678  -1.219375   0.524165
    C   -0.000000   0.000000  -1.644734
    H    0.018170   2.164705  -0.010854
    H    0.042402   2.152895   2.457886
    H    0.000000   0.000000   3.695756
    H   -0.042402  -2.152895   2.457886
    H   -0.018170  -2.164705  -0.010853
    N   -0.712590  -0.905950  -2.308461
    N    0.712590   0.905950  -2.308460
    H    0.673432   1.006470  -3.315997
    H    1.377190   1.485970  -1.813316
    H   -1.444347  -0.607693  -2.940013
    H   -0.516849  -1.899232  -2.265536
}

set optking { frozen_dihedral = (" 1 7 13 17 ") }

set optking { dynamic_level = 1 
 geom_maxiter = 250
 print_trajectory_xyz_file = True }

energy, wfn = optimize('B3LYP-D3', return_wfn=True)

import os
os.chdir(os.environ['HTMD_PSI4_WORKDIR'])

oeprop(wfn, 'DIPOLE', 'QUADRUPOLE', 'MULLIKEN_CHARGES')

with open('psi4out.xyz', 'w') as f:
    f.write('18 ' )
    f.write('%.12f\n' % energy)
    f.write(MOL.save_string_xyz())
--------------------------------------------------------------------------
  Threads set to 4 by Python driver.

  Memory set to   2.794 GiB by Python driver.
gradient() will perform analytic gradient computation.

*** tstart() called on green.prib.upf.edu
*** at Sat Sep 29 20:34:45 2018

   => Loading Basis Set <=

    Name: 6-31G*
    Role: ORBITAL
    Keyword: BASIS
    atoms 1-7         entry C          line   111 file /shared/joao/test_parameterize/miniconda3/share/psi4/basis/6-31gs.gbs 
    atoms 8-12, 15-18 entry H          line    44 file /shared/joao/test_parameterize/miniconda3/share/psi4/basis/6-31gs.gbs 
    atoms 13-14       entry N          line   128 file /shared/joao/test_parameterize/miniconda3/share/psi4/basis/6-31gs.gbs 


         ---------------------------------------------------------
                                   SCF
            by Justin Turney, Rob Parrish, Andy Simmonett
                             and Daniel Smith
                              RKS Reference
                        4 Threads,   2861 MiB Core
         ---------------------------------------------------------

  ==> Geometry <==

    Molecular point group: c1
    Full point group: C1

    Geometry (in Angstrom), charge = 1, multiplicity = 1:

       Center              X                  Y                   Z               Mass       
    ------------   -----------------  -----------------  -----------------  -----------------
         C            0.000000000000     0.000000000000    -0.177864000000    12.000000000000
         C            0.036678000000     1.219374000000     0.524165000000    12.000000000000
         C            0.031765000000     1.213120000000     1.915444000000    12.000000000000
         C            0.000000000000     0.000000000000     2.610107000000    12.000000000000
         C           -0.031765000000    -1.213120000000     1.915444000000    12.000000000000
         C           -0.036678000000    -1.219375000000     0.524165000000    12.000000000000
         C            0.000000000000     0.000000000000    -1.644734000000    12.000000000000
         H            0.018170000000     2.164705000000    -0.010854000000     1.007825032070
         H            0.042402000000     2.152895000000     2.457886000000     1.007825032070
         H            0.000000000000     0.000000000000     3.695756000000     1.007825032070
         H           -0.042402000000    -2.152895000000     2.457886000000     1.007825032070
         H           -0.018170000000    -2.164705000000    -0.010853000000     1.007825032070
         N           -0.712590000000    -0.905950000000    -2.308461000000    14.003074004780
         N            0.712590000000     0.905950000000    -2.308460000000    14.003074004780
         H            0.673432000000     1.006470000000    -3.315997000000     1.007825032070
         H            1.377190000000     1.485970000000    -1.813316000000     1.007825032070
         H           -1.444347000000    -0.607693000000    -2.940013000000     1.007825032070
         H           -0.516849000000    -1.899232000000    -2.265536000000     1.007825032070

  Running in c1 symmetry.

  Rotational constants: A =      0.12123  B =      0.03958  C =      0.03130 [cm^-1]
  Rotational constants: A =   3634.43254  B =   1186.61616  C =    938.36618 [MHz]
  Nuclear repulsion =  416.669092048854679

  Charge       = 1
  Multiplicity = 1
  Electrons    = 64
  Nalpha       = 32
  Nbeta        = 32

  ==> Algorithm <==

  SCF Algorithm Type is DF.
  DIIS enabled.
  MOM disabled.
  Fractional occupation disabled.
  Guess Type is SAD.
  Energy threshold   = 1.00e-08
  Density threshold  = 1.00e-08
  Integral threshold = 0.00e+00

  ==> Primary Basis <==

  Basis Set: 6-31G*
    Blend: 6-31G*
    Number of shells: 72
    Number of basis function: 153
    Number of Cartesian functions: 153
    Spherical Harmonics?: false
    Max angular momentum: 2

  ==> DFT Potential <==

   => Composite Functional: B3LYP-D3ZERO <= 

    B3LYP-d3zero Hyb-GGA Exchange-Correlation Functional

    P. J. Stephens, F. J. Devlin, C. F. Chabalowski, and M. J. Frisch, J. Phys. Chem. 98, 11623 (1994)

    Deriv               =              1
    GGA                 =           TRUE
    Meta                =          FALSE

    Exchange Hybrid     =           TRUE
    MP2 Hybrid          =          FALSE

   => Exchange Functionals <=

    0.0800   Slater exchange
    0.7200         Becke 88

   => Exact (HF) Exchange <=

    0.2000               HF 

   => Correlation Functionals <=

    0.1900   Vosko, Wilk & Nusair (VWN5_RPA)
    0.8100   Lee, Yang & Parr

   => Molecular Quadrature <=

    Radial Scheme       =       TREUTLER
    Pruning Scheme      =           FLAT
    Nuclear Scheme      =       TREUTLER

    BS radius alpha     =              1
    Pruning alpha       =              1
    Radial Points       =             75
    Spherical Points    =            302
    Total Points        =         397004
    Total Blocks        =           3025
    Max Points          =            256
    Max Functions       =            149

   => -D3ZERO: Empirical Dispersion <=

    Grimme's -D3 (zero-damping) Dispersion Correction
    Grimme S.; Antony J.; Ehrlich S.; Krieg H. (2010), J. Chem. Phys., 132: 154104

        S6 =   1.000000E+00
        S8 =   1.703000E+00
       SR6 =   1.261000E+00
       SR8 =   1.000000E+00
    ALPHA6 =   1.400000E+01

   => Loading Basis Set <=

    Name: (6-31G* AUX)
    Role: JKFIT
    Keyword: DF_BASIS_SCF
    atoms 1-7         entry C          line   121 file /shared/joao/test_parameterize/miniconda3/share/psi4/basis/cc-pvdz-jkfit.gbs 
    atoms 8-12, 15-18 entry H          line    51 file /shared/joao/test_parameterize/miniconda3/share/psi4/basis/cc-pvdz-jkfit.gbs 
    atoms 13-14       entry N          line   171 file /shared/joao/test_parameterize/miniconda3/share/psi4/basis/cc-pvdz-jkfit.gbs 

  ==> Pre-Iterations <==

   -------------------------------------------------------
    Irrep   Nso     Nmo     Nalpha   Nbeta   Ndocc  Nsocc
   -------------------------------------------------------
     A        153     153       0       0       0       0
   -------------------------------------------------------
    Total     153     153      32      32      32       0
   -------------------------------------------------------

  ==> Integral Setup <==

  ==> DiskDFJK: Density-Fitted J/K Matrices <==

    J tasked:                  Yes
    K tasked:                  Yes
    wK tasked:                  No
    OpenMP threads:              4
    Integrals threads:           4
    Memory (MB):              2002
    Algorithm:                Core
    Integral Cache:           NONE
    Schwarz Cutoff:          1E-12
    Fitting Condition:       1E-12

   => Auxiliary Basis Set <=

  Basis Set: (6-31G* AUX)
    Blend: CC-PVDZ-JKFIT
    Number of shells: 297
    Number of basis function: 954
    Number of Cartesian functions: 954
    Spherical Harmonics?: false
    Max angular momentum: 3

  Minimum eigenvalue in the overlap matrix is 4.8559314606E-04.
  Using Symmetric Orthogonalization.

  SCF Guess: Superposition of Atomic Densities via on-the-fly atomic UHF.

  ==> Iterations <==

                           Total Energy        Delta E     RMS |[F,P]|

   @DF-RKS iter   0:  -379.61603965455146   -3.79616e+02   6.73045e-02 
   @DF-RKS iter   1:  -380.98357182688153   -1.36753e+00   1.21038e-02 
   @DF-RKS iter   2:  -380.82128676728240    1.62285e-01   1.40360e-02 DIIS
   @DF-RKS iter   3:  -381.41541085312417   -5.94124e-01   2.44982e-03 DIIS
   @DF-RKS iter   4:  -381.43041166812242   -1.50008e-02   8.64030e-04 DIIS
   @DF-RKS iter   5:  -381.43218750951047   -1.77584e-03   3.20562e-04 DIIS
   @DF-RKS iter   6:  -381.43244925856072   -2.61749e-04   9.63836e-05 DIIS
   @DF-RKS iter   7:  -381.43247363113096   -2.43726e-05   2.37146e-05 DIIS
   @DF-RKS iter   8:  -381.43247515844729   -1.52732e-06   7.22446e-06 DIIS
   @DF-RKS iter   9:  -381.43247530399066   -1.45543e-07   3.36535e-06 DIIS
   @DF-RKS iter  10:  -381.43247534027239   -3.62817e-08   6.72063e-07 DIIS
   @DF-RKS iter  11:  -381.43247534161816   -1.34577e-09   2.15478e-07 DIIS
   @DF-RKS iter  12:  -381.43247534172963   -1.11470e-10   1.15961e-07 DIIS
   @DF-RKS iter  13:  -381.43247534177971   -5.00791e-11   2.31286e-08 DIIS
   @DF-RKS iter  14:  -381.43247534177942    2.84217e-13   6.69867e-09 DIIS

  ==> Post-Iterations <==

    Orbital Energies [Eh]
    ---------------------

    Doubly Occupied:                                                      

       1A    -14.582894     2A    -14.529927     3A    -10.502146  
       4A    -10.372492     5A    -10.358076     6A    -10.356802  
       7A    -10.344553     8A    -10.341247     9A    -10.341028  
      10A     -1.181068    11A     -1.084344    12A     -1.014560  
      13A     -0.925781    14A     -0.902908    15A     -0.843236  
      16A     -0.779369    17A     -0.771145    18A     -0.742002  
      19A     -0.723991    20A     -0.704013    21A     -0.673085  
      22A     -0.629900    23A     -0.605764    24A     -0.587440  
      25A     -0.577235    26A     -0.561468    27A     -0.516341  
      28A     -0.508191    29A     -0.498973    30A     -0.450775  
      31A     -0.408935    32A     -0.404839  

    Virtual:                                                              

      33A     -0.247659    34A     -0.155669    35A     -0.144168  
      36A     -0.103782    37A     -0.077463    38A     -0.050291  
      39A     -0.037506    40A     -0.019469    41A      0.006431  
      42A      0.017104    43A      0.028475    44A      0.059154  
      45A      0.070052    46A      0.092307    47A      0.127535  
      48A      0.142332    49A      0.156486    50A      0.165752  
      51A      0.207832    52A      0.239591    53A      0.297603  
      54A      0.354239    55A      0.359944    56A      0.381982  
      57A      0.394721    58A      0.402024    59A      0.414627  
      60A      0.422163    61A      0.438578    62A      0.448811  
      63A      0.456779    64A      0.470696    65A      0.473024  
      66A      0.481577    67A      0.488423    68A      0.504085  
      69A      0.519590    70A      0.537396    71A      0.563188  
      72A      0.583453    73A      0.612528    74A      0.644879  
      75A      0.662937    76A      0.678772    77A      0.688080  
      78A      0.701874    79A      0.714137    80A      0.727593  
      81A      0.743635    82A      0.753310    83A      0.767434  
      84A      0.775222    85A      0.809564    86A      0.832491  
      87A      0.851262    88A      0.892282    89A      0.955988  
      90A      0.965614    91A      0.976024    92A      1.016947  
      93A      1.035821    94A      1.090017    95A      1.140532  
      96A      1.151982    97A      1.256769    98A      1.273792  
      99A      1.283353   100A      1.304145   101A      1.324032  
     102A      1.341520   103A      1.359742   104A      1.372333  
     105A      1.428678   106A      1.466512   107A      1.505539  
     108A      1.599271   109A      1.631493   110A      1.672388  
     111A      1.707178   112A      1.726441   113A      1.755566  
     114A      1.788957   115A      1.806020   116A      1.830952  
     117A      1.894870   118A      1.949161   119A      1.955421  
     120A      1.983409   121A      1.996531   122A      2.003074  
     123A      2.014513   124A      2.045218   125A      2.123672  
     126A      2.124728   127A      2.152355   128A      2.195875  
     129A      2.205618   130A      2.311382   131A      2.354335  
     132A      2.430298   133A      2.446339   134A      2.455144  
     135A      2.487320   136A      2.520387   137A      2.552649  
     138A      2.590751   139A      2.597072   140A      2.626907  
     141A      2.731434   142A      2.840722   143A      2.979162  
     144A      3.257664   145A      3.618021   146A      3.683758  
     147A      3.912141   148A      3.945773   149A      3.963594  
     150A      4.041513   151A      4.173170   152A      4.250592  
     153A      4.544957  

    Final Occupation by Irrep:
              A 
    DOCC [    32 ]

  Energy converged.

  @DF-RKS Final Energy:  -381.43247534177942

   => Energetics <=

    Nuclear Repulsion Energy =            416.6690920488546794
    One-Electron Energy =               -1328.6030775136264310
    Two-Electron Energy =                 574.9237202081205851
    DFT Exchange-Correlation Energy =     -44.4102633651283298
    Empirical Dispersion Energy =          -0.0119467200000000
    VV10 Nonlocal Energy =                  0.0000000000000000
    Total Energy =                       -381.4324753417794795



Properties will be evaluated at   0.000000,   0.000000,   0.000000 [a0]

Properties computed using the SCF density matrix

  Nuclear Dipole Moment: [e a0]
     X:     0.1690      Y:    -0.0274      Z:    -0.1193

  Electronic Dipole Moment: [e a0]
     X:     0.0446      Y:     0.2123      Z:    -2.0525

  Dipole Moment: [e a0]
     X:     0.2136      Y:     0.1850      Z:    -2.1717     Total:     2.1900

  Dipole Moment: [D]
     X:     0.5428      Y:     0.4701      Z:    -5.5200     Total:     5.5665


*** tstop() called on green.prib.upf.edu at Sat Sep 29 20:35:14 2018
Module time:
	user time   =     103.15 seconds =       1.72 minutes
	system time =       0.47 seconds =       0.01 minutes
	total time  =         29 seconds =       0.48 minutes
Total time:
	user time   =     103.15 seconds =       1.72 minutes
	system time =       0.47 seconds =       0.01 minutes
	total time  =         29 seconds =       0.48 minutes

*** tstart() called on green.prib.upf.edu
*** at Sat Sep 29 20:35:14 2018


         ------------------------------------------------------------
                                   SCF GRAD                          
                          Rob Parrish, Justin Turney,                
                       Andy Simmonett, and Alex Sokolov              
         ------------------------------------------------------------

  ==> Geometry <==

    Molecular point group: c1
    Full point group: C1

    Geometry (in Angstrom), charge = 1, multiplicity = 1:

       Center              X                  Y                   Z               Mass       
    ------------   -----------------  -----------------  -----------------  -----------------
         C            0.000000000000     0.000000000000    -0.177864000000    12.000000000000
         C            0.036678000000     1.219374000000     0.524165000000    12.000000000000
         C            0.031765000000     1.213120000000     1.915444000000    12.000000000000
         C            0.000000000000     0.000000000000     2.610107000000    12.000000000000
         C           -0.031765000000    -1.213120000000     1.915444000000    12.000000000000
         C           -0.036678000000    -1.219375000000     0.524165000000    12.000000000000
         C            0.000000000000     0.000000000000    -1.644734000000    12.000000000000
         H            0.018170000000     2.164705000000    -0.010854000000     1.007825032070
         H            0.042402000000     2.152895000000     2.457886000000     1.007825032070
         H            0.000000000000     0.000000000000     3.695756000000     1.007825032070
         H           -0.042402000000    -2.152895000000     2.457886000000     1.007825032070
         H           -0.018170000000    -2.164705000000    -0.010853000000     1.007825032070
         N           -0.712590000000    -0.905950000000    -2.308461000000    14.003074004780
         N            0.712590000000     0.905950000000    -2.308460000000    14.003074004780
         H            0.673432000000     1.006470000000    -3.315997000000     1.007825032070
         H            1.377190000000     1.485970000000    -1.813316000000     1.007825032070
         H           -1.444347000000    -0.607693000000    -2.940013000000     1.007825032070
         H           -0.516849000000    -1.899232000000    -2.265536000000     1.007825032070

  Nuclear repulsion =  416.669092048854679

  ==> Basis Set <==

  Basis Set: 6-31G*
    Blend: 6-31G*
    Number of shells: 72
    Number of basis function: 153
    Number of Cartesian functions: 153
    Spherical Harmonics?: false
    Max angular momentum: 2

  ==> DFJKGrad: Density-Fitted SCF Gradients <==

    Gradient:                    1
    J tasked:                  Yes
    K tasked:                  Yes
    wK tasked:                  No
    OpenMP threads:              4
    Integrals threads:           4
    Memory (MB):              2002
    Schwarz Cutoff:          0E+00
    Fitting Condition:       1E-12

   => Auxiliary Basis Set <=

  Basis Set: (6-31G* AUX)
    Blend: CC-PVDZ-JKFIT
    Number of shells: 297
    Number of basis function: 954
    Number of Cartesian functions: 954
    Spherical Harmonics?: false
    Max angular momentum: 3

  ==> DFT Potential <==

   => Composite Functional: B3LYP-D3ZERO <= 

    B3LYP-d3zero Hyb-GGA Exchange-Correlation Functional

    P. J. Stephens, F. J. Devlin, C. F. Chabalowski, and M. J. Frisch, J. Phys. Chem. 98, 11623 (1994)

    Deriv               =              1
    GGA                 =           TRUE
    Meta                =          FALSE

    Exchange Hybrid     =           TRUE
    MP2 Hybrid          =          FALSE

   => Exchange Functionals <=

    0.0800   Slater exchange
    0.7200         Becke 88

   => Exact (HF) Exchange <=

    0.2000               HF 

   => Correlation Functionals <=

    0.1900   Vosko, Wilk & Nusair (VWN5_RPA)
    0.8100   Lee, Yang & Parr

   => Molecular Quadrature <=

    Radial Scheme       =       TREUTLER
    Pruning Scheme      =           FLAT
    Nuclear Scheme      =       TREUTLER

    BS radius alpha     =              1
    Pruning alpha       =              1
    Radial Points       =             75
    Spherical Points    =            302
    Total Points        =         397004
    Total Blocks        =           3025
    Max Points          =            256
    Max Functions       =            149


  -Total Gradient:
     Atom            X                  Y                   Z
    ------   -----------------  -----------------  -----------------
       1       -0.011750499133     0.002372260272     0.003711562936
       2       -0.003219025257    -0.001275362581    -0.001527242436
       3        0.001296728257    -0.000195209479    -0.000119417662
       4       -0.000183210204    -0.001248224429    -0.000360954463
       5       -0.000816826346     0.001524668948     0.002648511564
       6        0.001241548758     0.000483795335    -0.002992042874
       7       -0.026293854654    -0.017458806983    -0.020918651875
       8       -0.000196565365    -0.000123717251    -0.000155014669
       9        0.000374967237    -0.000050196176     0.000004209481
      10        0.000131871155    -0.000029007070     0.000003513065
      11       -0.000051243607    -0.000016572321    -0.000024967301
      12        0.001912468812    -0.000196232482    -0.000964620498
      13        0.022239745613     0.018678608149     0.028464179951
      14        0.010390192292    -0.000307597903    -0.007454853175
      15       -0.000041619781     0.004100252804     0.001947422558
      16        0.003488064359    -0.006807604895    -0.001627492488
      17       -0.005961038055     0.002221643873     0.009304719725
      18        0.007438737526    -0.001673553415    -0.009941882956


*** tstop() called on green.prib.upf.edu at Sat Sep 29 20:35:20 2018
Module time:
	user time   =      24.95 seconds =       0.42 minutes
	system time =       0.20 seconds =       0.00 minutes
	total time  =          6 seconds =       0.10 minutes
Total time:
	user time   =     128.15 seconds =       2.14 minutes
	system time =       0.68 seconds =       0.01 minutes
	total time  =         35 seconds =       0.58 minutes

			-----------------------------------------
			 OPTKING 2.0: for geometry optimizations 
			  - R.A. King,  Bethel University        
			-----------------------------------------
	At level 1: Red. Int., RFO, no backsteps, dynamic trust

	Internal coordinates to be generated automatically.
	Detected frag 1 with atoms:  1 2 3 4 5 6 7 8 9 10 11 12 13 14 15 16 17 18
	---Fragment 1 Bond Connectivity---
	 1 : 2 6 7
	 2 : 1 3 8
	 3 : 2 4 9
	 4 : 3 5 10
	 5 : 4 6 11
	 6 : 1 5 12
	 7 : 1 13 14
	 8 : 2
	 9 : 3
	 10 : 4
	 11 : 5
	 12 : 6
	 13 : 7 17 18
	 14 : 7 15 16
	 15 : 14
	 16 : 14
	 17 : 13
	 18 : 13

	Assuming in current code that numbering for constraints corresponds to unified fragment.
	Frozen dihedral atom list: 
	     1     7    13    17
	---Fragment 1 Geometry and Gradient---
	 C           0.0000000000        0.0000000000       -0.3361142489
	 C           0.0693113751        2.3042829136        0.9905282984
	 C           0.0600271506        2.2924645663        3.6196645829
	 C           0.0000000000        0.0000000000        4.9323874075
	 C          -0.0600271506       -2.2924645663        3.6196645829
	 C          -0.0693113751       -2.3042848033        0.9905282984
	 C           0.0000000000        0.0000000000       -3.1080968214
	 H           0.0343363238        4.0906996085       -0.0205110874
	 H           0.0801281675        4.0683819429        4.6447314059
	 H           0.0000000000        0.0000000000        6.9839666940
	 H          -0.0801281675       -4.0683819429        4.6447314059
	 H          -0.0343363238       -4.0906996085       -0.0205091977
	 N          -1.3465999450       -1.7119973901       -4.3623590784
	 N           1.3465999450        1.7119973901       -4.3623571887
	 H           1.2726020491        1.9019526610       -6.2663261875
	 H           2.6025119329        2.8080763417       -3.4266706324
	 H          -2.7294202709       -1.1483733429       -5.5558193971
	 H          -0.9767030621       -3.5890283428       -4.2812425842
	            -0.0117504991        0.0023722603        0.0037115629
	            -0.0032190253       -0.0012753626       -0.0015272424
	             0.0012967283       -0.0001952095       -0.0001194177
	            -0.0001832102       -0.0012482244       -0.0003609545
	            -0.0008168263        0.0015246689        0.0026485116
	             0.0012415488        0.0004837953       -0.0029920429
	            -0.0262938547       -0.0174588070       -0.0209186519
	            -0.0001965654       -0.0001237173       -0.0001550147
	             0.0003749672       -0.0000501962        0.0000042095
	             0.0001318712       -0.0000290071        0.0000035131
	            -0.0000512436       -0.0000165723       -0.0000249673
	             0.0019124688       -0.0001962325       -0.0009646205
	             0.0222397456        0.0186786081        0.0284641800
	             0.0103901923       -0.0003075979       -0.0074548532
	            -0.0000416198        0.0041002528        0.0019474226
	             0.0034880644       -0.0068076049       -0.0016274925
	            -0.0059610381        0.0022216439        0.0093047197
	             0.0074387375       -0.0016735534       -0.0099418830

	Previous optimization step data not found.  Starting new optimization.

	---Fragment 1 Intrafragment Coordinates---
	 - Coordinate -           - BOHR/RAD -       - ANG/DEG -
	 R(1,2)           =         2.659794	       1.407502
	 R(1,6)           =         2.659796	       1.407503
	 R(1,7)           =         2.771983	       1.466870
	 R(2,3)           =         2.629179	       1.391302
	 R(2,8)           =         2.052976	       1.086388
	 R(3,4)           =         2.642393	       1.398294
	 R(3,9)           =         2.050622	       1.085142
	 R(4,5)           =         2.642393	       1.398294
	 R(4,10)          =         2.051579	       1.085649
	 R(5,6)           =         2.629179	       1.391302
	 R(5,11)          =         2.050622	       1.085142
	 R(6,12)          =         2.052973	       1.086386
	 R(7,13)          =         2.513452	       1.330061
	 R(7,14)          =         2.513451	       1.330061
	 R(13,17)         =         1.911599	       1.011575
	 R(13,18)         =         1.914850	       1.013295
	 R(14,15)         =         1.914852	       1.013296
	 R(14,16)         =         1.911600	       1.011575
	 B(1,2,3)         =         2.088380	     119.655376
	 B(1,2,8)         =         2.103396	     120.515689
	 B(1,6,5)         =         2.088379	     119.655315
	 B(1,6,12)        =         2.103396	     120.515729
	 B(1,7,13)        =         2.093264	     119.935172
	 B(1,7,14)        =         2.093263	     119.935135
	 B(2,1,6)         =         2.097220	     120.161857
	 B(2,1,7)         =         2.092983	     119.919082
	 B(2,3,4)         =         2.095279	     120.050636
	 B(2,3,9)         =         2.089719	     119.732108
	 B(3,2,8)         =         2.090149	     119.756722
	 B(3,4,5)         =         2.101793	     120.423859
	 B(3,4,10)        =         2.090696	     119.788070
	 B(4,3,9)         =         2.098135	     120.214297
	 B(4,5,6)         =         2.095280	     120.050677
	 B(4,5,11)        =         2.098135	     120.214297
	 B(5,4,10)        =         2.090696	     119.788070
	 B(5,6,12)        =         2.090149	     119.756743
	 B(6,1,7)         =         2.092982	     119.919061
	 B(6,5,11)        =         2.089719	     119.732067
	 B(7,13,17)       =         2.092411	     119.886310
	 B(7,13,18)       =         2.144859	     122.891394
	 B(7,14,15)       =         2.144860	     122.891405
	 B(7,14,16)       =         2.092412	     119.886393
	 B(13,7,14)       =         2.096659	     120.129694
	 B(15,14,16)      =         2.043399	     117.078146
	 B(17,13,18)      =         2.043401	     117.078236
	 D(1,2,3,4)       =         0.007799	       0.446825
	 D(1,2,3,9)       =        -3.122896	    -178.928735
	 D(1,6,5,4)       =         0.007799	       0.446822
	 D(1,6,5,11)      =        -3.122896	    -178.928737
	*D(1,7,13,17)     =         2.094395	     119.999985
	 D(1,7,13,18)     =        -1.125615	     -64.492977
	 D(1,7,14,15)     =        -3.032165	    -173.730230
	 D(1,7,14,16)     =         0.187844	      10.762681
	 D(2,1,6,5)       =        -0.003906	      -0.223802
	 D(2,1,6,12)      =        -3.091437	    -177.126283
	 D(2,1,7,13)      =        -2.505167	    -143.535494
	 D(2,1,7,14)      =         0.636426	      36.464506
	 D(2,3,4,5)       =        -0.003942	      -0.225875
	 D(2,3,4,10)      =         3.137650	     179.774125
	 D(3,2,1,6)       =        -0.003906	      -0.223806
	 D(3,2,1,7)       =         3.137687	     179.776196
	 D(3,4,5,6)       =        -0.003942	      -0.225874
	 D(3,4,5,11)      =         3.126699	     179.146646
	 D(4,3,2,8)       =         3.095744	     177.373058
	 D(4,5,6,12)      =         3.095744	     177.373055
	 D(5,4,3,9)       =         3.126699	     179.146646
	 D(5,6,1,7)       =         3.137687	     179.776197
	 D(6,1,2,8)       =        -3.091437	    -177.126287
	 D(6,1,7,13)      =         0.636426	      36.464508
	 D(6,1,7,14)      =        -2.505167	    -143.535492
	 D(6,5,4,10)      =         3.137650	     179.774126
	 D(7,1,2,8)       =         0.050156	       2.873714
	 D(7,1,6,12)      =         0.050156	       2.873716
	 D(8,2,3,9)       =        -0.034950	      -2.002503
	 D(9,3,4,10)      =        -0.014894	      -0.853354
	 D(10,4,5,11)     =        -0.014894	      -0.853354
	 D(11,5,6,12)     =        -0.034950	      -2.002504
	 D(13,7,14,15)    =         0.109428	       6.269770
	 D(13,7,14,16)    =        -2.953748	    -169.237319
	 D(14,7,13,17)    =        -1.047198	     -60.000015
	 D(14,7,13,18)    =         2.015978	     115.507023

	Current energy   :      -381.4324753418

	Generating empirical Hessian (Schlegel '84) for each fragment.
	Taking RFO optimization step.
	Going to follow RFO solution 1.
	Using RFO vector 1.

	Determining step-restricting scale parameter for RS-RFO.
	Maximum step size allowed    0.50000

	 Iter      |step|        alpha        rfo_root  
	------------------------------------------------
	    0     0.59379       1.00000           1
	    1     0.51822       1.46632           1
	    2     0.50093       1.60489           1
	    3     0.50000       1.61276           1
	------------------------------------------------
	Norm of target step-size    0.50000
	Projected energy change by RFO approximation:        -0.0081956458

	Back-transformation to cartesian coordinates...
	Could not converge backtransformation.
	Using first guess instead.

	Back-transformation to cartesian coordinates to adjust frozen coordinates...
	Successfully converged to displaced geometry.

	--- Internal Coordinate Step in ANG or DEG, aJ/ANG or AJ/DEG ---
	 ---------------------------------------------------------------------------
	   Coordinate                Previous        Force       Change         New 
	   ----------                --------       ------       ------       ------
	    1 R(1,2)          =      1.407502     0.019656     0.003244     1.410746
	    2 R(1,6)          =      1.407503     0.014290     0.003226     1.410729
	    3 R(1,7)          =      1.466870    -0.001857    -0.000278     1.466592
	    4 R(2,3)          =      1.391302    -0.002071     0.000225     1.391527
	    5 R(2,8)          =      1.086388     0.000233     0.000773     1.087160
	    6 R(3,4)          =      1.398294    -0.003155     0.000334     1.398628
	    7 R(3,9)          =      1.085142     0.000311     0.000225     1.085367
	    8 R(4,5)          =      1.398294     0.010460     0.001632     1.399926
	    9 R(4,10)         =      1.085649    -0.000030     0.000265     1.085914
	   10 R(5,6)          =      1.391302    -0.015654    -0.001937     1.389365
	   11 R(5,11)         =      1.085142    -0.000022     0.000953     1.086095
	   12 R(6,12)         =      1.086386    -0.005590     0.000324     1.086711
	   13 R(7,13)         =      1.330061     0.326997     0.035229     1.365291
	   14 R(7,14)         =      1.330061    -0.073495    -0.000758     1.329303
	   15 R(13,17)        =      1.011575     0.006934     0.001266     1.012841
	   16 R(13,18)        =      1.013295    -0.021878     0.005132     1.018427
	   17 R(14,15)        =      1.013296     0.012592     0.001769     1.015064
	   18 R(14,16)        =      1.011575     0.019836     0.018895     1.030470
	   19 B(1,2,3)        =    119.655376     0.000035     0.076340   119.731716
	   20 B(1,2,8)        =    120.515689    -0.000003     0.009412   120.525101
	   21 B(1,6,5)        =    119.655315     0.000038     0.110838   119.766152
	   22 B(1,6,12)       =    120.515729     0.000042     0.269403   120.785133
	   23 B(1,7,13)       =    119.935172     0.000906     2.447852   122.383024
	   24 B(1,7,14)       =    119.935135    -0.000497    -1.580734   118.354401
	   25 B(2,1,6)        =    120.161857    -0.000099    -0.229313   119.932544
	   26 B(2,1,7)        =    119.919082    -0.000082    -0.251090   119.667992
	   27 B(2,3,4)        =    120.050636    -0.000012    -0.017638   120.032998
	   28 B(2,3,9)        =    119.732108     0.000004    -0.017465   119.714643
	   29 B(3,2,8)        =    119.756722    -0.000034    -0.120398   119.636324
	   30 B(3,4,5)        =    120.423859     0.000013     0.021835   120.445695
	   31 B(3,4,10)       =    119.788070    -0.000009     0.006405   119.794475
	   32 B(4,3,9)        =    120.214297     0.000008     0.037008   120.251304
	   33 B(4,5,6)        =    120.050677     0.000024     0.021290   120.071967
	   34 B(4,5,11)       =    120.214297    -0.000014    -0.007949   120.206347
	   35 B(5,4,10)       =    119.788070    -0.000004    -0.029374   119.758697
	   36 B(5,6,12)       =    119.756743    -0.000077    -0.341111   119.415632
	   37 B(6,1,7)        =    119.919061     0.000181     0.475885   120.394947
	   38 B(6,5,11)       =    119.732067    -0.000010    -0.010686   119.721380
	   39 B(7,13,17)      =    119.886310     0.000336     1.551641   121.437952
	   40 B(7,13,18)      =    122.891394    -0.000208    -1.328744   121.562650
	   41 B(7,14,15)      =    122.891405    -0.000341    -1.498036   121.393369
	   42 B(7,14,16)      =    119.886393     0.000242     1.567191   121.453584
	   43 B(13,7,14)      =    120.129694    -0.000409    -1.185428   118.944266
	   44 B(15,14,16)     =    117.078146     0.000116     0.073667   117.151812
	   45 B(17,13,18)     =    117.078236    -0.000091    -0.268465   116.809771
	   46 D(1,2,3,4)      =      0.446825     0.000011     0.916372     1.363197
	   47 D(1,2,3,9)      =   -178.928735     0.000008     0.664628  -178.264107
	   48 D(1,6,5,4)      =      0.446822     0.000009     0.752607     1.199429
	   49 D(1,6,5,11)     =   -178.928737    -0.000001    -0.072552  -179.001289
	   50 *D(1,7,13,17)   =    119.999985     0.000000    -0.000000   119.999985
	   51 D(1,7,13,18)    =    -64.492977     0.000132     9.657527   -54.835450
	   52 D(1,7,14,15)    =   -173.730230    -0.000002     0.134460  -173.595770
	   53 D(1,7,14,16)    =     10.762681    -0.000066    -4.774243     5.988438
	   54 D(2,1,6,5)      =     -0.223802    -0.000005    -0.414696    -0.638498
	   55 D(2,1,6,12)     =   -177.126283    -0.000017    -1.407953  -178.534236
	   56 D(2,1,7,13)     =   -143.535494    -0.000009    -1.808878  -145.344371
	   57 D(2,1,7,14)     =     36.464506    -0.000088    -8.361046    28.103460
	   58 D(2,3,4,5)      =     -0.225875    -0.000007    -0.583720    -0.809595
	   59 D(2,3,4,10)     =    179.774125    -0.000002    -0.195519   179.578606
	   60 D(3,2,1,6)      =     -0.223806    -0.000006    -0.421960    -0.645766
	   61 D(3,2,1,7)      =    179.776196    -0.000014    -1.191955   178.584241
	   62 D(3,4,5,6)      =     -0.225874    -0.000003    -0.259863    -0.485737
	   63 D(3,4,5,11)     =    179.146646     0.000007     0.569316   179.715963
	   64 D(4,3,2,8)      =    177.373058     0.000003     0.252150   177.625208
	   65 D(4,5,6,12)     =    177.373055     0.000022     1.751082   179.124137
	   66 D(5,4,3,9)      =    179.146646    -0.000004    -0.330957   178.815689
	   67 D(5,6,1,7)      =    179.776197     0.000004     0.360968   180.137165
	   68 D(6,1,2,8)      =   -177.126287     0.000003     0.252297  -176.873990
	   69 D(6,1,7,13)     =     36.464508    -0.000017    -2.582493    33.882015
	   70 D(6,1,7,14)     =   -143.535492    -0.000097    -9.134661  -152.670153
	   71 D(6,5,4,10)     =    179.774126    -0.000008    -0.647925   179.126200
	   72 D(7,1,2,8)      =      2.873714    -0.000006    -0.517698     2.356017
	   73 D(7,1,6,12)     =      2.873716    -0.000008    -0.632290     2.241426
	   74 D(8,2,3,9)      =     -2.002503     0.000000     0.000406    -2.002096
	   75 D(9,3,4,10)     =     -0.853354     0.000001     0.057244    -0.796110
	   76 D(10,4,5,11)    =     -0.853354     0.000002     0.181254    -0.672100
	   77 D(11,5,6,12)    =     -2.002504     0.000012     0.925923    -1.076581
	   78 D(13,7,14,15)   =      6.269770    -0.000082    -6.187610     0.082160
	   79 D(13,7,14,16)   =   -169.237319    -0.000146   -11.096313  -180.333632
	   80 D(14,7,13,17)   =    -60.000015     0.000080     6.589289   -53.410726
	   81 D(14,7,13,18)   =    115.507023     0.000212    16.246816   131.753839
	 ---------------------------------------------------------------------------
	Successfully symmetrized geometry.

  ==> Convergence Check <==

  Measures of convergence in internal coordinates in au.
  Criteria marked as inactive (o), active & met (*), and active & unmet ( ).
  --------------------------------------------------------------------------------------------- ~
   Step     Total Energy     Delta E     MAX Force     RMS Force      MAX Disp      RMS Disp    ~
  --------------------------------------------------------------------------------------------- ~
    Convergence Criteria    1.00e-06 *    3.00e-04 *             o    1.20e-03 *             o  ~
  --------------------------------------------------------------------------------------------- ~
      1    -381.43247534   -3.81e+02      3.97e-02      5.40e-03 o    2.84e-01      5.48e-02 o  ~
  ---------------------------------------------------------------------------------------------

	Writing optimization data to binary file.
	Structure for next step:
	Cartesian Geometry (in Angstrom)
	    C     0.0420184704  -0.0287319233  -0.1794073994
	    C     0.1119232692   1.1985415210   0.5127765966
	    C     0.0762600599   1.2093134887   1.9038047151
	    C     0.0002479134   0.0053069177   2.6114420928
	    C    -0.0575238656  -1.2159064482   1.9294654339
	    C    -0.0498001103  -1.2385817482   0.5403068207
	    C     0.0483062023  -0.0363959218  -1.6459662004
	    H     0.1318845451   2.1392724731  -0.0317825592
	    H     0.1015573209   2.1552931653   2.4353161259
	    H    -0.0204452378   0.0178843469   3.6970861618
	    H    -0.1118317194  -2.1488159031   2.4829385336
	    H    -0.0805640546  -2.1931804451   0.0219095874
	    N    -0.6594221671  -0.9479667689  -2.3754712151
	    N     0.6624615473   0.9576049686  -2.2798596764
	    H     0.6138628803   1.0509140206  -3.2894573023
	    H     1.2027973355   1.6697417112  -1.7672513953
	    H    -1.3782294749  -0.6589918710  -3.0278944888
	    H    -0.5440769146  -1.9497875834  -2.2331908309
			--------------------------
			 OPTKING Finished Execution 
			--------------------------

    Structure for next step:
    Molecular point group: c1
    Full point group: C1

    Geometry (in Angstrom), charge = 1, multiplicity = 1:

    C            0.042018470365    -0.028731923288    -0.179407399394
    C            0.111923269239     1.198541521016     0.512776596618
    C            0.076260059892     1.209313488735     1.903804715113
    C            0.000247913430     0.005306917724     2.611442092776
    C           -0.057523865631    -1.215906448243     1.929465433860
    C           -0.049800110265    -1.238581748214     0.540306820683
    C            0.048306202301    -0.036395921799    -1.645966200410
    H            0.131884545065     2.139272473075    -0.031782559211
    H            0.101557320925     2.155293165315     2.435316125942
    H           -0.020445237799     0.017884346882     3.697086161769
    H           -0.111831719429    -2.148815903091     2.482938533626
    H           -0.080564054566    -2.193180445118     0.021909587408
    N           -0.659422167086    -0.947966768919    -2.375471215056
    N            0.662461547333     0.957604968552    -2.279859676404
    H            0.613862880259     1.050914020558    -3.289457302345
    H            1.202797335454     1.669741711192    -1.767251395329
    H           -1.378229474930    -0.658991871012    -3.027894488759
    H           -0.544076914557    -1.949787583364    -2.233190830886

gradient() will perform analytic gradient computation.

*** tstart() called on green.prib.upf.edu
*** at Sat Sep 29 20:35:20 2018

   => Loading Basis Set <=

    Name: 6-31G*
    Role: ORBITAL
    Keyword: BASIS
    atoms 1-7         entry C          line   111 file /shared/joao/test_parameterize/miniconda3/share/psi4/basis/6-31gs.gbs 
    atoms 8-12, 15-18 entry H          line    44 file /shared/joao/test_parameterize/miniconda3/share/psi4/basis/6-31gs.gbs 
    atoms 13-14       entry N          line   128 file /shared/joao/test_parameterize/miniconda3/share/psi4/basis/6-31gs.gbs 


         ---------------------------------------------------------
                                   SCF
            by Justin Turney, Rob Parrish, Andy Simmonett
                             and Daniel Smith
                              RKS Reference
                        4 Threads,   2861 MiB Core
         ---------------------------------------------------------

  ==> Geometry <==

    Molecular point group: c1
    Full point group: C1

    Geometry (in Angstrom), charge = 1, multiplicity = 1:

       Center              X                  Y                   Z               Mass       
    ------------   -----------------  -----------------  -----------------  -----------------
         C            0.042018470365    -0.028731923288    -0.179407399394    12.000000000000
         C            0.111923269239     1.198541521016     0.512776596618    12.000000000000
         C            0.076260059892     1.209313488735     1.903804715113    12.000000000000
         C            0.000247913430     0.005306917724     2.611442092776    12.000000000000
         C           -0.057523865631    -1.215906448243     1.929465433860    12.000000000000
         C           -0.049800110265    -1.238581748214     0.540306820683    12.000000000000
         C            0.048306202301    -0.036395921799    -1.645966200410    12.000000000000
         H            0.131884545065     2.139272473075    -0.031782559211     1.007825032070
         H            0.101557320925     2.155293165315     2.435316125942     1.007825032070
         H           -0.020445237799     0.017884346882     3.697086161769     1.007825032070
         H           -0.111831719429    -2.148815903091     2.482938533626     1.007825032070
         H           -0.080564054566    -2.193180445118     0.021909587408     1.007825032070
         N           -0.659422167086    -0.947966768919    -2.375471215056    14.003074004780
         N            0.662461547333     0.957604968552    -2.279859676404    14.003074004780
         H            0.613862880259     1.050914020558    -3.289457302345     1.007825032070
         H            1.202797335454     1.669741711192    -1.767251395329     1.007825032070
         H           -1.378229474930    -0.658991871012    -3.027894488759     1.007825032070
         H           -0.544076914557    -1.949787583364    -2.233190830886     1.007825032070

  Running in c1 symmetry.

  Rotational constants: A =      0.12038  B =      0.03960  C =      0.03089 [cm^-1]
  Rotational constants: A =   3608.85712  B =   1187.28533  C =    926.12953 [MHz]
  Nuclear repulsion =  415.457651888670455

  Charge       = 1
  Multiplicity = 1
  Electrons    = 64
  Nalpha       = 32
  Nbeta        = 32

  ==> Algorithm <==

  SCF Algorithm Type is DF.
  DIIS enabled.
  MOM disabled.
  Fractional occupation disabled.
  Guess Type is READ.
  Energy threshold   = 1.00e-08
  Density threshold  = 1.00e-08
  Integral threshold = 0.00e+00

  ==> Primary Basis <==

  Basis Set: 6-31G*
    Blend: 6-31G*
    Number of shells: 72
    Number of basis function: 153
    Number of Cartesian functions: 153
    Spherical Harmonics?: false
    Max angular momentum: 2

  ==> DFT Potential <==

   => Composite Functional: B3LYP-D3ZERO <= 

    B3LYP-d3zero Hyb-GGA Exchange-Correlation Functional

    P. J. Stephens, F. J. Devlin, C. F. Chabalowski, and M. J. Frisch, J. Phys. Chem. 98, 11623 (1994)

    Deriv               =              1
    GGA                 =           TRUE
    Meta                =          FALSE

    Exchange Hybrid     =           TRUE
    MP2 Hybrid          =          FALSE

   => Exchange Functionals <=

    0.0800   Slater exchange
    0.7200         Becke 88

   => Exact (HF) Exchange <=

    0.2000               HF 

   => Correlation Functionals <=

    0.1900   Vosko, Wilk & Nusair (VWN5_RPA)
    0.8100   Lee, Yang & Parr

   => Molecular Quadrature <=

    Radial Scheme       =       TREUTLER
    Pruning Scheme      =           FLAT
    Nuclear Scheme      =       TREUTLER

    BS radius alpha     =              1
    Pruning alpha       =              1
    Radial Points       =             75
    Spherical Points    =            302
    Total Points        =         396923
    Total Blocks        =           3021
    Max Points          =            256
    Max Functions       =            148

   => -D3ZERO: Empirical Dispersion <=

    Grimme's -D3 (zero-damping) Dispersion Correction
    Grimme S.; Antony J.; Ehrlich S.; Krieg H. (2010), J. Chem. Phys., 132: 154104

        S6 =   1.000000E+00
        S8 =   1.703000E+00
       SR6 =   1.261000E+00
       SR8 =   1.000000E+00
    ALPHA6 =   1.400000E+01

   => Loading Basis Set <=

    Name: (6-31G* AUX)
    Role: JKFIT
    Keyword: DF_BASIS_SCF
    atoms 1-7         entry C          line   121 file /shared/joao/test_parameterize/miniconda3/share/psi4/basis/cc-pvdz-jkfit.gbs 
    atoms 8-12, 15-18 entry H          line    51 file /shared/joao/test_parameterize/miniconda3/share/psi4/basis/cc-pvdz-jkfit.gbs 
    atoms 13-14       entry N          line   171 file /shared/joao/test_parameterize/miniconda3/share/psi4/basis/cc-pvdz-jkfit.gbs 

  Reading orbitals from file 180, no projection.

  ==> Pre-Iterations <==

   -------------------------------------------------------
    Irrep   Nso     Nmo     Nalpha   Nbeta   Ndocc  Nsocc
   -------------------------------------------------------
     A        153     153       0       0       0       0
   -------------------------------------------------------
    Total     153     153      32      32      32       0
   -------------------------------------------------------

  ==> Integral Setup <==

  ==> DiskDFJK: Density-Fitted J/K Matrices <==

    J tasked:                  Yes
    K tasked:                  Yes
    wK tasked:                  No
    OpenMP threads:              4
    Integrals threads:           4
    Memory (MB):              2002
    Algorithm:                Core
    Integral Cache:           NONE
    Schwarz Cutoff:          1E-12
    Fitting Condition:       1E-12

   => Auxiliary Basis Set <=

  Basis Set: (6-31G* AUX)
    Blend: CC-PVDZ-JKFIT
    Number of shells: 297
    Number of basis function: 954
    Number of Cartesian functions: 954
    Spherical Harmonics?: false
    Max angular momentum: 3

  Minimum eigenvalue in the overlap matrix is 4.8754747931E-04.
  Using Symmetric Orthogonalization.

  SCF Guess: Orbitals guess was supplied from a previous computation.

  ==> Iterations <==

                           Total Energy        Delta E     RMS |[F,P]|

   @DF-RKS iter   0:  -381.38976205830875   -3.81390e+02   2.90118e-03 
   @DF-RKS iter   1:  -381.44081662332212   -5.10546e-02   4.63367e-04 
   @DF-RKS iter   2:  -381.44013260071785    6.84023e-04   6.82935e-04 DIIS
   @DF-RKS iter   3:  -381.44158036928701   -1.44777e-03   1.17502e-04 DIIS
   @DF-RKS iter   4:  -381.44161483444128   -3.44652e-05   4.96111e-05 DIIS
   @DF-RKS iter   5:  -381.44162204619033   -7.21175e-06   1.71033e-05 DIIS
   @DF-RKS iter   6:  -381.44162291327200   -8.67082e-07   6.54842e-06 DIIS
   @DF-RKS iter   7:  -381.44162302691950   -1.13648e-07   1.84222e-06 DIIS
   @DF-RKS iter   8:  -381.44162303674574   -9.82624e-09   5.37143e-07 DIIS
   @DF-RKS iter   9:  -381.44162303746668   -7.20945e-10   1.92310e-07 DIIS
   @DF-RKS iter  10:  -381.44162303756843   -1.01750e-10   7.49330e-08 DIIS
   @DF-RKS iter  11:  -381.44162303758696   -1.85310e-11   2.74748e-08 DIIS
   @DF-RKS iter  12:  -381.44162303758935   -2.38742e-12   4.91585e-09 DIIS

  ==> Post-Iterations <==

    Orbital Energies [Eh]
    ---------------------

    Doubly Occupied:                                                      

       1A    -14.581447     2A    -14.539660     3A    -10.503052  
       4A    -10.375519     5A    -10.360949     6A    -10.358238  
       7A    -10.346052     8A    -10.343212     9A    -10.342054  
      10A     -1.175104    11A     -1.077786    12A     -1.015318  
      13A     -0.926548    14A     -0.904579    15A     -0.842967  
      16A     -0.779265    17A     -0.770742    18A     -0.737259  
      19A     -0.724562    20A     -0.696146    21A     -0.670074  
      22A     -0.631931    23A     -0.606491    24A     -0.587638  
      25A     -0.578960    26A     -0.567154    27A     -0.515890  
      28A     -0.509955    29A     -0.500373    30A     -0.455577  
      31A     -0.409971    32A     -0.406850  

    Virtual:                                                              

      33A     -0.243036    34A     -0.156788    35A     -0.141830  
      36A     -0.108470    37A     -0.078988    38A     -0.058421  
      39A     -0.037579    40A     -0.022365    41A      0.006722  
      42A      0.020060    43A      0.026916    44A      0.060673  
      45A      0.069171    46A      0.086063    47A      0.121706  
      48A      0.130558    49A      0.154379    50A      0.171782  
      51A      0.209580    52A      0.230757    53A      0.297349  
      54A      0.351390    55A      0.362052    56A      0.379544  
      57A      0.390840    58A      0.399925    59A      0.414618  
      60A      0.420355    61A      0.436254    62A      0.447811  
      63A      0.456537    64A      0.469360    65A      0.471988  
      66A      0.478133    67A      0.484225    68A      0.497359  
      69A      0.515271    70A      0.549350    71A      0.559781  
      72A      0.583877    73A      0.611946    74A      0.639162  
      75A      0.662348    76A      0.676609    77A      0.691152  
      78A      0.701932    79A      0.714768    80A      0.728062  
      81A      0.744810    82A      0.763932    83A      0.773054  
      84A      0.785430    85A      0.814093    86A      0.835007  
      87A      0.852203    88A      0.905838    89A      0.961762  
      90A      0.964541    91A      0.988450    92A      1.022667  
      93A      1.042205    94A      1.087358    95A      1.130022  
      96A      1.143569    97A      1.245442    98A      1.272960  
      99A      1.284080   100A      1.303619   101A      1.323326  
     102A      1.336451   103A      1.356458   104A      1.358371  
     105A      1.410079   106A      1.449412   107A      1.536529  
     108A      1.583050   109A      1.621500   110A      1.651916  
     111A      1.713779   112A      1.723635   113A      1.743918  
     114A      1.790472   115A      1.802024   116A      1.828568  
     117A      1.891807   118A      1.938595   119A      1.945052  
     120A      1.974410   121A      1.992750   122A      1.998167  
     123A      2.013889   124A      2.032642   125A      2.116576  
     126A      2.122141   127A      2.150728   128A      2.182909  
     129A      2.194395   130A      2.306568   131A      2.327670  
     132A      2.404268   133A      2.441180   134A      2.453444  
     135A      2.481313   136A      2.513139   137A      2.536808  
     138A      2.589973   139A      2.596429   140A      2.620208  
     141A      2.729385   142A      2.823956   143A      2.978675  
     144A      3.252200   145A      3.616236   146A      3.660359  
     147A      3.907916   148A      3.943563   149A      3.961739  
     150A      4.039122   151A      4.169743   152A      4.249941  
     153A      4.542234  

    Final Occupation by Irrep:
              A 
    DOCC [    32 ]

  Energy converged.

  @DF-RKS Final Energy:  -381.44162303758935

   => Energetics <=

    Nuclear Repulsion Energy =            415.4576518886704548
    One-Electron Energy =               -1326.1857040808467900
    Two-Electron Energy =                 573.6785610605024885
    DFT Exchange-Correlation Energy =     -44.3803583559153765
    Empirical Dispersion Energy =          -0.0117735500000000
    VV10 Nonlocal Energy =                  0.0000000000000000
    Total Energy =                       -381.4416230375892951



Properties will be evaluated at   0.000000,   0.000000,   0.000000 [a0]

Properties computed using the SCF density matrix

  Nuclear Dipole Moment: [e a0]
     X:     1.8232      Y:    -0.9239      Z:    -0.5010

  Electronic Dipole Moment: [e a0]
     X:    -1.7549      Y:     1.1287      Z:    -1.5855

  Dipole Moment: [e a0]
     X:     0.0683      Y:     0.2048      Z:    -2.0865     Total:     2.0976

  Dipole Moment: [D]
     X:     0.1736      Y:     0.5206      Z:    -5.3033     Total:     5.3317


*** tstop() called on green.prib.upf.edu at Sat Sep 29 20:35:45 2018
Module time:
	user time   =      89.28 seconds =       1.49 minutes
	system time =       0.39 seconds =       0.01 minutes
	total time  =         25 seconds =       0.42 minutes
Total time:
	user time   =     218.33 seconds =       3.64 minutes
	system time =       1.10 seconds =       0.02 minutes
	total time  =         60 seconds =       1.00 minutes

*** tstart() called on green.prib.upf.edu
*** at Sat Sep 29 20:35:45 2018


         ------------------------------------------------------------
                                   SCF GRAD                          
                          Rob Parrish, Justin Turney,                
                       Andy Simmonett, and Alex Sokolov              
         ------------------------------------------------------------

  ==> Geometry <==

    Molecular point group: c1
    Full point group: C1

    Geometry (in Angstrom), charge = 1, multiplicity = 1:

       Center              X                  Y                   Z               Mass       
    ------------   -----------------  -----------------  -----------------  -----------------
         C            0.042018470365    -0.028731923288    -0.179407399394    12.000000000000
         C            0.111923269239     1.198541521016     0.512776596618    12.000000000000
         C            0.076260059892     1.209313488735     1.903804715113    12.000000000000
         C            0.000247913430     0.005306917724     2.611442092776    12.000000000000
         C           -0.057523865631    -1.215906448243     1.929465433860    12.000000000000
         C           -0.049800110265    -1.238581748214     0.540306820683    12.000000000000
         C            0.048306202301    -0.036395921799    -1.645966200410    12.000000000000
         H            0.131884545065     2.139272473075    -0.031782559211     1.007825032070
         H            0.101557320925     2.155293165315     2.435316125942     1.007825032070
         H           -0.020445237799     0.017884346882     3.697086161769     1.007825032070
         H           -0.111831719429    -2.148815903091     2.482938533626     1.007825032070
         H           -0.080564054566    -2.193180445118     0.021909587408     1.007825032070
         N           -0.659422167086    -0.947966768919    -2.375471215056    14.003074004780
         N            0.662461547333     0.957604968552    -2.279859676404    14.003074004780
         H            0.613862880259     1.050914020558    -3.289457302345     1.007825032070
         H            1.202797335454     1.669741711192    -1.767251395329     1.007825032070
         H           -1.378229474930    -0.658991871012    -3.027894488759     1.007825032070
         H           -0.544076914557    -1.949787583364    -2.233190830886     1.007825032070

  Nuclear repulsion =  415.457651888670455

  ==> Basis Set <==

  Basis Set: 6-31G*
    Blend: 6-31G*
    Number of shells: 72
    Number of basis function: 153
    Number of Cartesian functions: 153
    Spherical Harmonics?: false
    Max angular momentum: 2

  ==> DFJKGrad: Density-Fitted SCF Gradients <==

    Gradient:                    1
    J tasked:                  Yes
    K tasked:                  Yes
    wK tasked:                  No
    OpenMP threads:              4
    Integrals threads:           4
    Memory (MB):              2002
    Schwarz Cutoff:          0E+00
    Fitting Condition:       1E-12

   => Auxiliary Basis Set <=

  Basis Set: (6-31G* AUX)
    Blend: CC-PVDZ-JKFIT
    Number of shells: 297
    Number of basis function: 954
    Number of Cartesian functions: 954
    Spherical Harmonics?: false
    Max angular momentum: 3

  ==> DFT Potential <==

   => Composite Functional: B3LYP-D3ZERO <= 

    B3LYP-d3zero Hyb-GGA Exchange-Correlation Functional

    P. J. Stephens, F. J. Devlin, C. F. Chabalowski, and M. J. Frisch, J. Phys. Chem. 98, 11623 (1994)

    Deriv               =              1
    GGA                 =           TRUE
    Meta                =          FALSE

    Exchange Hybrid     =           TRUE
    MP2 Hybrid          =          FALSE

   => Exchange Functionals <=

    0.0800   Slater exchange
    0.7200         Becke 88

   => Exact (HF) Exchange <=

    0.2000               HF 

   => Correlation Functionals <=

    0.1900   Vosko, Wilk & Nusair (VWN5_RPA)
    0.8100   Lee, Yang & Parr

   => Molecular Quadrature <=

    Radial Scheme       =       TREUTLER
    Pruning Scheme      =           FLAT
    Nuclear Scheme      =       TREUTLER

    BS radius alpha     =              1
    Pruning alpha       =              1
    Radial Points       =             75
    Spherical Points    =            302
    Total Points        =         396923
    Total Blocks        =           3021
    Max Points          =            256
    Max Functions       =            148


  -Total Gradient:
     Atom            X                  Y                   Z
    ------   -----------------  -----------------  -----------------
       1       -0.008826445627     0.009830794422     0.001072529300
       2       -0.001367218599     0.001309298065    -0.001054888934
       3        0.000096048979     0.000088596487     0.000786442502
       4       -0.000026575053     0.000187084697     0.000143645199
       5        0.000070678866     0.000406176240    -0.000365699689
       6        0.000804760551    -0.001800449838     0.000333223897
       7        0.003836531113    -0.010159627289    -0.001625793454
       8        0.000597132552    -0.000032606142    -0.001998114686
       9        0.000175966171     0.000127103588     0.000107605540
      10        0.000008839343    -0.000059279037     0.000213908245
      11       -0.000133172588    -0.000669715821     0.000208100280
      12        0.000812232840    -0.000718378970    -0.000269014940
      13       -0.007731045530     0.004071395960     0.001426648562
      14        0.002729505051    -0.005499708040    -0.004352473942
      15       -0.001353091016     0.001736778640     0.000017640627
      16        0.009736122672     0.009285999425     0.007051884421
      17       -0.007903533063    -0.000632432792     0.006535943924
      18        0.008476025707    -0.007468585895    -0.008227764512


*** tstop() called on green.prib.upf.edu at Sat Sep 29 20:35:51 2018
Module time:
	user time   =      25.36 seconds =       0.42 minutes
	system time =       0.20 seconds =       0.00 minutes
	total time  =          6 seconds =       0.10 minutes
Total time:
	user time   =     243.74 seconds =       4.06 minutes
	system time =       1.31 seconds =       0.02 minutes
	total time  =         66 seconds =       1.10 minutes

			-----------------------------------------
			 OPTKING 2.0: for geometry optimizations 
			  - R.A. King,  Bethel University        
			-----------------------------------------
	At level 1: Red. Int., RFO, no backsteps, dynamic trust

	Previous internal coordinate definitions found.
	---Fragment 1 Geometry and Gradient---
	 C           0.0794034015       -0.0542954663       -0.3390308511
	 C           0.2115043268        2.2649152336        0.9690073350
	 C           0.1441106281        2.2852713025        3.5976695221
	 C           0.0004684885        0.0100286211        4.9349103672
	 C          -0.1087043521       -2.2977301904        3.6461612529
	 C          -0.0941085698       -2.3405802973        1.0210319188
	 C           0.0912854929       -0.0687783246       -3.1104253428
	 H           0.2492256713        4.0426390977       -0.0600603327
	 H           0.1919155233        4.0729138185        4.6020805250
	 H          -0.0386359002        0.0337965177        6.9864803354
	 H          -0.2113313227       -4.0606735668        4.6920738333
	 H          -0.1522439993       -4.1445104013        0.0414031199
	 N          -1.2461273017       -1.7913975763       -4.4889900330
	 N           1.2518708980        1.8096111341       -4.3083104098
	 H           1.1600327268        1.9859396881       -6.2161734273
	 H           2.2729575574        3.1553545468       -3.3396211451
	 H          -2.6044762559       -1.2453141600       -5.7218913430
	 H          -1.0281563637       -3.6845645499       -4.2201190728
	            -0.0088264456        0.0098307944        0.0010725293
	            -0.0013672186        0.0013092981       -0.0010548889
	             0.0000960490        0.0000885965        0.0007864425
	            -0.0000265751        0.0001870847        0.0001436452
	             0.0000706789        0.0004061762       -0.0003656997
	             0.0008047606       -0.0018004498        0.0003332239
	             0.0038365311       -0.0101596273       -0.0016257935
	             0.0005971326       -0.0000326061       -0.0019981147
	             0.0001759662        0.0001271036        0.0001076055
	             0.0000088393       -0.0000592790        0.0002139082
	            -0.0001331726       -0.0006697158        0.0002081003
	             0.0008122328       -0.0007183790       -0.0002690149
	            -0.0077310455        0.0040713960        0.0014266486
	             0.0027295051       -0.0054997080       -0.0043524739
	            -0.0013530910        0.0017367786        0.0000176406
	             0.0097361227        0.0092859994        0.0070518844
	            -0.0079035331       -0.0006324328        0.0065359439
	             0.0084760257       -0.0074685859       -0.0082277645

	---Fragment 1 Intrafragment Coordinates---
	 - Coordinate -           - BOHR/RAD -       - ANG/DEG -
	 R(1,2)           =         2.665924	       1.410746
	 R(1,6)           =         2.665891	       1.410729
	 R(1,7)           =         2.771458	       1.466592
	 R(2,3)           =         2.629605	       1.391527
	 R(2,8)           =         2.054436	       1.087160
	 R(3,4)           =         2.643024	       1.398628
	 R(3,9)           =         2.051047	       1.085367
	 R(4,5)           =         2.645476	       1.399926
	 R(4,10)          =         2.052080	       1.085914
	 R(5,6)           =         2.625520	       1.389365
	 R(5,11)          =         2.052422	       1.086095
	 R(6,12)          =         2.053586	       1.086711
	 R(7,13)          =         2.580025	       1.365291
	 R(7,14)          =         2.512018	       1.329303
	 R(13,17)         =         1.913992	       1.012841
	 R(13,18)         =         1.924548	       1.018427
	 R(14,15)         =         1.918194	       1.015064
	 R(14,16)         =         1.947306	       1.030470
	 B(1,2,3)         =         2.089713	     119.731716
	 B(1,2,8)         =         2.103560	     120.525101
	 B(1,6,5)         =         2.090314	     119.766152
	 B(1,6,12)        =         2.108098	     120.785133
	 B(1,7,13)        =         2.135987	     122.383024
	 B(1,7,14)        =         2.065674	     118.354401
	 B(2,1,6)         =         2.093218	     119.932544
	 B(2,1,7)         =         2.088600	     119.667992
	 B(2,3,4)         =         2.094971	     120.032998
	 B(2,3,9)         =         2.089415	     119.714643
	 B(3,2,8)         =         2.088048	     119.636324
	 B(3,4,5)         =         2.102174	     120.445695
	 B(3,4,10)        =         2.090808	     119.794475
	 B(4,3,9)         =         2.098781	     120.251304
	 B(4,5,6)         =         2.095651	     120.071967
	 B(4,5,11)        =         2.097997	     120.206347
	 B(5,4,10)        =         2.090184	     119.758697
	 B(5,6,12)        =         2.084196	     119.415632
	 B(6,1,7)         =         2.101288	     120.394947
	 B(6,5,11)        =         2.089532	     119.721380
	 B(7,13,17)       =         2.119492	     121.437952
	 B(7,13,18)       =         2.121668	     121.562650
	 B(7,14,15)       =         2.118714	     121.393369
	 B(7,14,16)       =         2.119765	     121.453584
	 B(13,7,14)       =         2.075969	     118.944266
	 B(15,14,16)      =         2.044685	     117.151812
	 B(17,13,18)      =         2.038715	     116.809771
	 D(1,2,3,4)       =         0.023792	       1.363197
	 D(1,2,3,9)       =        -3.111296	    -178.264107
	 D(1,6,5,4)       =         0.020934	       1.199429
	 D(1,6,5,11)      =        -3.124162	    -179.001289
	*D(1,7,13,17)     =         2.094395	     119.999985
	 D(1,7,13,18)     =        -0.957059	     -54.835450
	 D(1,7,14,15)     =        -3.029818	    -173.595770
	 D(1,7,14,16)     =         0.104518	       5.988438
	 D(2,1,6,5)       =        -0.011144	      -0.638498
	 D(2,1,6,12)      =        -3.116010	    -178.534236
	 D(2,1,7,13)      =        -2.536738	    -145.344371
	 D(2,1,7,14)      =         0.490498	      28.103460
	 D(2,3,4,5)       =        -0.014130	      -0.809595
	 D(2,3,4,10)      =         3.134238	     179.578606
	 D(3,2,1,6)       =        -0.011271	      -0.645766
	 D(3,2,1,7)       =         3.116883	     178.584241
	 D(3,4,5,6)       =        -0.008478	      -0.485737
	 D(3,4,5,11)      =         3.136635	     179.715963
	 D(4,3,2,8)       =         3.100145	     177.625208
	 D(4,5,6,12)      =         3.126306	     179.124137
	 D(5,4,3,9)       =         3.120923	     178.815689
	 D(5,6,1,7)       =        -3.139199	    -179.862835
	 D(6,1,2,8)       =        -3.087033	    -176.873990
	 D(6,1,7,13)      =         0.591353	      33.882015
	 D(6,1,7,14)      =        -2.664597	    -152.670153
	 D(6,5,4,10)      =         3.126342	     179.126200
	 D(7,1,2,8)       =         0.041120	       2.356017
	 D(7,1,6,12)      =         0.039120	       2.241426
	 D(8,2,3,9)       =        -0.034943	      -2.002096
	 D(9,3,4,10)      =        -0.013895	      -0.796110
	 D(10,4,5,11)     =        -0.011730	      -0.672100
	 D(11,5,6,12)     =        -0.018790	      -1.076581
	 D(13,7,14,15)    =         0.001434	       0.082160
	 D(13,7,14,16)    =         3.135770	     179.666368
	 D(14,7,13,17)    =        -0.932193	     -53.410726
	 D(14,7,13,18)    =         2.299538	     131.753839

	Current energy   :      -381.4416230376

	Energy change for the previous step:
		Projected    :        -0.0081956458
		Actual       :        -0.0091476958
	Energy ratio indicates good step: Trust radius increased to 1.000e+00.


	Performing BFGS update.
	Previous computed or guess Hessian on step 1.
	Steps to be used in Hessian update: 1
	Taking RFO optimization step.
	Going to follow RFO solution 1.
	Using RFO vector 1.
	Norm of target step-size    0.64058
	Projected energy change by RFO approximation:        -0.0042430043

	Back-transformation to cartesian coordinates...
	Could not converge backtransformation.
	Using first guess instead.

	Back-transformation to cartesian coordinates to adjust frozen coordinates...
	Successfully converged to displaced geometry.

	--- Internal Coordinate Step in ANG or DEG, aJ/ANG or AJ/DEG ---
	 ---------------------------------------------------------------------------
	   Coordinate                Previous        Force       Change         New 
	   ----------                --------       ------       ------       ------
	    1 R(1,2)          =      1.410746     0.005586     0.002807     1.413553
	    2 R(1,6)          =      1.410729    -0.011376     0.000525     1.411254
	    3 R(1,7)          =      1.466592     0.006145     0.001199     1.467791
	    4 R(2,3)          =      1.391527    -0.007680    -0.000653     1.390874
	    5 R(2,8)          =      1.087160    -0.008104    -0.000720     1.086441
	    6 R(3,4)          =      1.398628    -0.007676    -0.000538     1.398090
	    7 R(3,9)          =      1.085367    -0.001380    -0.000085     1.085282
	    8 R(4,5)          =      1.399926    -0.009706    -0.000584     1.399342
	    9 R(4,10)         =      1.085914    -0.001753     0.000073     1.085987
	   10 R(5,6)          =      1.389365    -0.001357    -0.000839     1.388526
	   11 R(5,11)         =      1.086095    -0.005667     0.000007     1.086102
	   12 R(6,12)         =      1.086711    -0.006068    -0.000325     1.086386
	   13 R(7,13)         =      1.365291    -0.053920     0.011128     1.376418
	   14 R(7,14)         =      1.329303    -0.065641    -0.003754     1.325549
	   15 R(13,17)        =      1.012841    -0.010042    -0.000556     1.012285
	   16 R(13,18)        =      1.018427    -0.058970     0.042364     1.060791
	   17 R(14,15)        =      1.015064    -0.001708     0.003802     1.018866
	   18 R(14,16)        =      1.030470    -0.123826     0.002592     1.033062
	   19 B(1,2,3)        =    119.731716     0.000053     0.204604   119.936320
	   20 B(1,2,8)        =    120.525101     0.000108     0.617250   121.142351
	   21 B(1,6,5)        =    119.766152     0.000106     0.459300   120.225453
	   22 B(1,6,12)       =    120.785133    -0.000058    -0.068089   120.717044
	   23 B(1,7,13)       =    122.383024    -0.000072     0.825774   123.208798
	   24 B(1,7,14)       =    118.354401     0.000822     2.045088   120.399489
	   25 B(2,1,6)        =    119.932544    -0.000142    -0.598983   119.333561
	   26 B(2,1,7)        =    119.667992     0.000330     1.023516   120.691509
	   27 B(2,3,4)        =    120.032998     0.000031     0.129635   120.162633
	   28 B(2,3,9)        =    119.714643    -0.000017    -0.090149   119.624493
	   29 B(3,2,8)        =    119.636324    -0.000162    -0.876224   118.760100
	   30 B(3,4,5)        =    120.445695    -0.000039    -0.146407   120.299287
	   31 B(3,4,10)       =    119.794475     0.000015     0.075637   119.870113
	   32 B(4,3,9)        =    120.251304    -0.000014    -0.040704   120.210601
	   33 B(4,5,6)        =    120.071967    -0.000010    -0.064630   120.007337
	   34 B(4,5,11)       =    120.206347    -0.000008    -0.036854   120.169493
	   35 B(5,4,10)       =    119.758697     0.000024     0.065854   119.824551
	   36 B(5,6,12)       =    119.415632    -0.000047    -0.370516   119.045116
	   37 B(6,1,7)        =    120.394947    -0.000188    -0.446756   119.948191
	   38 B(6,5,11)       =    119.721380     0.000018     0.098971   119.820352
	   39 B(7,13,17)      =    121.437952     0.000008     0.304427   121.742379
	   40 B(7,13,18)      =    121.562650    -0.000139    -4.017750   117.544900
	   41 B(7,14,15)      =    121.393369    -0.000050    -1.268337   120.125033
	   42 B(7,14,16)      =    121.453584     0.000004     0.958361   122.411944
	   43 B(13,7,14)      =    118.944266    -0.000754    -3.084013   115.860253
	   44 B(15,14,16)     =    117.151812     0.000045     0.291110   117.442922
	   45 B(17,13,18)     =    116.809771     0.000075    -1.285917   115.523854
	   46 D(1,2,3,4)      =      1.363197     0.000001     0.253578     1.616775
	   47 D(1,2,3,9)      =   -178.264107     0.000002     0.428114  -177.835993
	   48 D(1,6,5,4)      =      1.199429     0.000003     0.499541     1.698970
	   49 D(1,6,5,11)     =   -179.001289     0.000001     0.090629  -178.910660
	   50 *D(1,7,13,17)   =    119.999985    -0.000000    -0.000000   119.999985
	   51 D(1,7,13,18)    =    -54.835450     0.000173    21.441635   -33.393815
	   52 D(1,7,14,15)    =   -173.595770    -0.000025    -3.027205  -176.622975
	   53 D(1,7,14,16)    =      5.988438    -0.000027    -4.284555     1.703883
	   54 D(2,1,6,5)      =     -0.638498    -0.000004    -0.756398    -1.394896
	   55 D(2,1,6,12)     =   -178.534236    -0.000010    -1.568143  -180.102379
	   56 D(2,1,7,13)     =   -145.344371    -0.000010    -3.033815  -148.378186
	   57 D(2,1,7,14)     =     28.103460    -0.000029    -5.194535    22.908925
	   58 D(2,3,4,5)      =     -0.809595    -0.000003    -0.516286    -1.325881
	   59 D(2,3,4,10)     =    179.578606     0.000000    -0.008242   179.570363
	   60 D(3,2,1,6)      =     -0.645766     0.000003     0.379029    -0.266737
	   61 D(3,2,1,7)      =    178.584241    -0.000004    -0.732819   177.851421
	   62 D(3,4,5,6)      =     -0.485737     0.000001     0.142741    -0.342997
	   63 D(3,4,5,11)     =    179.715963     0.000003     0.552818   180.268781
	   64 D(4,3,2,8)      =    177.625208    -0.000004    -0.570054   177.055154
	   65 D(4,5,6,12)     =    179.124137     0.000008     1.303812   180.427949
	   66 D(5,4,3,9)      =    178.815689    -0.000004    -0.692033   178.123656
	   67 D(5,6,1,7)      =   -179.862835     0.000002     0.335552  -179.527283
	   68 D(6,1,2,8)      =   -176.873990     0.000010     1.279745  -175.594245
	   69 D(6,1,7,13)     =     33.882015    -0.000017    -4.153569    29.728446
	   70 D(6,1,7,14)     =   -152.670153    -0.000037    -6.314290  -158.984443
	   71 D(6,5,4,10)     =    179.126200    -0.000002    -0.365032   178.761168
	   72 D(7,1,2,8)      =      2.356017     0.000003     0.167897     2.523913
	   73 D(7,1,6,12)     =      2.241426    -0.000003    -0.476192     1.765234
	   74 D(8,2,3,9)      =     -2.002096    -0.000002    -0.395518    -2.397614
	   75 D(9,3,4,10)     =     -0.796110    -0.000001    -0.183990    -0.980099
	   76 D(10,4,5,11)    =     -0.672100     0.000000     0.045045    -0.627054
	   77 D(11,5,6,12)    =     -1.076581     0.000006     0.894900    -0.181681
	   78 D(13,7,14,15)   =      0.082160    -0.000034    -4.802017    -4.719857
	   79 D(13,7,14,16)   =    179.666368    -0.000036    -6.059367   173.607001
	   80 D(14,7,13,17)   =    -53.410726    -0.000003     1.759394   -51.651332
	   81 D(14,7,13,18)   =    131.753839     0.000169    23.201029   154.954868
	 ---------------------------------------------------------------------------
	Successfully symmetrized geometry.

  ==> Convergence Check <==

  Measures of convergence in internal coordinates in au.
  Criteria marked as inactive (o), active & met (*), and active & unmet ( ).
  ---------------------------------------------------------------------------------------------
   Step     Total Energy     Delta E     MAX Force     RMS Force      MAX Disp      RMS Disp   
  ---------------------------------------------------------------------------------------------
    Convergence Criteria    1.00e-06 *    3.00e-04 *             o    1.20e-03 *             o
  ---------------------------------------------------------------------------------------------
      2    -381.44162304   -9.15e-03      1.50e-02      3.27e-03 o    4.05e-01      6.87e-02 o  ~
  ---------------------------------------------------------------------------------------------

	Writing optimization data to binary file.
	Structure for next step:
	Cartesian Geometry (in Angstrom)
	    C     0.0832736972  -0.0168472147  -0.1834578754
	    C     0.1612983229   1.2002218784   0.5312356602
	    C     0.0986044822   1.1944751705   1.9206839554
	    C    -0.0074557054  -0.0148992380   2.6140961674
	    C    -0.0791665077  -1.2252898297   1.9155484819
	    C    -0.0522896338  -1.2285008228   0.5272859610
	    C     0.1005380135  -0.0262390544  -1.6511177193
	    H     0.1946128247   2.1547413597   0.0134166048
	    H     0.1234994182   2.1343792897   2.4627145620
	    H    -0.0490237249  -0.0143019282   3.6992873303
	    H    -0.1659129422  -2.1632371995   2.4562403918
	    H    -0.1159755815  -2.1766006010   0.0007073396
	    N    -0.5626212403  -0.9662688793  -2.4068237124
	    N     0.6272727453   0.9882705427  -2.3222359352
	    H     0.5911239004   1.0016561206  -3.3403726294
	    H     1.0617551473   1.7981929148  -1.8505711034
	    H    -1.2827762624  -0.7058153611  -3.0688372337
	    H    -0.6373309535  -1.9484231478  -2.0130352456
			--------------------------
			 OPTKING Finished Execution 
			--------------------------

    Structure for next step:
    Molecular point group: c1
    Full point group: C1

    Geometry (in Angstrom), charge = 1, multiplicity = 1:

    C            0.083273697225    -0.016847214700    -0.183457875379
    C            0.161298322875     1.200221878432     0.531235660181
    C            0.098604482237     1.194475170458     1.920683955379
    C           -0.007455705443    -0.014899237969     2.614096167415
    C           -0.079166507661    -1.225289829668     1.915548481925
    C           -0.052289633807    -1.228500822762     0.527285960977
    C            0.100538013549    -0.026239054354    -1.651117719271
    H            0.194612824667     2.154741359736     0.013416604821
    H            0.123499418219     2.134379289679     2.462714561993
    H           -0.049023724943    -0.014301928221     3.699287330313
    H           -0.165912942220    -2.163237199540     2.456240391770
    H           -0.115975581513    -2.176600601001     0.000707339597
    N           -0.562621240292    -0.966268879297    -2.406823712394
    N            0.627272745330     0.988270542746    -2.322235935249
    H            0.591123900397     1.001656120558    -3.340372629363
    H            1.061755147289     1.798192914846    -1.850571103396
    H           -1.282776262364    -0.705815361119    -3.068837233736
    H           -0.637330953544    -1.948423147824    -2.013035245582

gradient() will perform analytic gradient computation.

*** tstart() called on green.prib.upf.edu
*** at Sat Sep 29 20:35:51 2018

   => Loading Basis Set <=

    Name: 6-31G*
    Role: ORBITAL
    Keyword: BASIS
    atoms 1-7         entry C          line   111 file /shared/joao/test_parameterize/miniconda3/share/psi4/basis/6-31gs.gbs 
    atoms 8-12, 15-18 entry H          line    44 file /shared/joao/test_parameterize/miniconda3/share/psi4/basis/6-31gs.gbs 
    atoms 13-14       entry N          line   128 file /shared/joao/test_parameterize/miniconda3/share/psi4/basis/6-31gs.gbs 


[...]
	 R(9,Y)           =         4.022340	       2.128531
	 R(9,Z)           =         4.609051	       2.439005
	 R(10,X)          =        -0.109236	      -0.057805
	 R(10,Y)          =        -0.040735	      -0.021556
	 R(10,Z)          =         6.955745	       3.680822
	 R(11,X)          =        -0.130441	      -0.069026
	 R(11,Y)          =        -4.113344	      -2.176688
	 R(11,Z)          =         4.614317	       2.441792
	 R(12,X)          =         0.056957	       0.030140
	 R(12,Y)          =        -4.149558	      -2.195851
	 R(12,Z)          =        -0.019653	      -0.010400
	 R(13,X)          =        -1.013103	      -0.536111
	 R(13,Y)          =        -1.852500	      -0.980301
	 R(13,Z)          =        -4.533830	      -2.399199
	 R(14,X)          =         1.234971	       0.653518
	 R(14,Y)          =         1.840200	       0.973792
	 R(14,Z)          =        -4.396056	      -2.326293
	 R(15,X)          =         1.273845	       0.674090
	 R(15,Y)          =         1.860841	       0.984715
	 R(15,Z)          =        -6.312303	      -3.340327
	 R(16,X)          =         2.230533	       1.180347
	 R(16,Y)          =         3.197862	       1.692236
	 R(16,Z)          =        -3.489585	      -1.846609
	 R(17,X)          =        -2.374621	      -1.256596
	 R(17,Y)          =        -1.244203	      -0.658404
	 R(17,Z)          =        -5.747863	      -3.041638
	 R(18,X)          =        -1.758055	      -0.930323
	 R(18,Y)          =        -3.264335	      -1.727412
	 R(18,Z)          =        -3.469074	      -1.835755

	Current energy   :      -381.4548894384

	Energy change for the previous step:
		Projected    :        -0.0000009137
		Actual       :        -0.0000009556

	Performing BFGS update.
	Previous computed or guess Hessian on step 1.
	Steps to be used in Hessian update: 1
	Taking RFO optimization step.
	Going to follow RFO solution 1.
	Rejecting RFO root 1 because normalization gives large value.
	Rejecting RFO root 2 because normalization gives large value.
	Rejecting RFO root 3 because normalization gives large value.
	Using RFO vector 4.
	Norm of target step-size    0.00211
	Projected energy change by RFO approximation:        -0.0000001221

	Back-transformation to cartesian coordinates...
	Successfully converged to displaced geometry.

	Back-transformation to cartesian coordinates to adjust frozen coordinates...
	Successfully converged to displaced geometry.

	--- Internal Coordinate Step in ANG or DEG, aJ/ANG or AJ/DEG ---
	 ---------------------------------------------------------------------------
	   Coordinate                Previous        Force       Change         New 
	   ----------                --------       ------       ------       ------
	    1 R(1,2)          =      1.409439    -0.000053    -0.000019     1.409421
	    2 R(1,6)          =      1.409456    -0.000184    -0.000065     1.409391
	    3 R(1,7)          =      1.465522     0.000500     0.000119     1.465641
	    4 R(2,3)          =      1.390728     0.000105     0.000039     1.390767
	    5 R(2,8)          =      1.086154    -0.000014    -0.000010     1.086144
	    6 R(3,4)          =      1.398002    -0.000066    -0.000015     1.397987
	    7 R(3,9)          =      1.085112     0.000028     0.000009     1.085121
	    8 R(4,5)          =      1.398337     0.000002    -0.000002     1.398335
	    9 R(4,10)         =      1.085570     0.000010     0.000005     1.085575
	   10 R(5,6)          =      1.390051     0.000046     0.000010     1.390062
	   11 R(5,11)         =      1.085045    -0.000015    -0.000002     1.085043
	   12 R(6,12)         =      1.086962     0.000059     0.000033     1.086996
	   13 R(7,13)         =      1.361033    -0.000640    -0.000138     1.360895
	   14 R(7,14)         =      1.323103     0.000151     0.000022     1.323125
	   15 R(13,17)        =      1.017567    -0.000011    -0.000045     1.017523
	   16 R(13,18)        =      1.015405     0.000347     0.000088     1.015493
	   17 R(14,15)        =      1.014302    -0.000007     0.000014     1.014316
	   18 R(14,16)        =      1.011833     0.000083     0.000040     1.011873
	   19 B(1,2,3)        =    119.845379    -0.000001    -0.005101   119.840278
	   20 B(1,2,8)        =    121.035498     0.000000    -0.000533   121.034965
	   21 B(1,6,5)        =    120.028656    -0.000001    -0.001960   120.026696
	   22 B(1,6,12)       =    120.940451    -0.000000    -0.003392   120.937060
	   23 B(1,7,13)       =    122.156675    -0.000000     0.004665   122.161341
	   24 B(1,7,14)       =    120.590388    -0.000002    -0.014033   120.576355
	   25 B(2,1,6)        =    119.635545     0.000002     0.006484   119.642029
	   26 B(2,1,7)        =    120.141188    -0.000000    -0.000880   120.140307
	   27 B(2,3,4)        =    120.178315     0.000000     0.001051   120.179367
	   28 B(2,3,9)        =    119.586608    -0.000000     0.000455   119.587063
	   29 B(3,2,8)        =    118.992169     0.000001     0.007416   118.999584
	   30 B(3,4,5)        =    120.274714     0.000000     0.000099   120.274813
	   31 B(3,4,10)       =    119.851859     0.000000     0.001399   119.853258
	   32 B(4,3,9)        =    120.233568     0.000000    -0.001510   120.232057
	   33 B(4,5,6)        =    120.022642     0.000000    -0.000231   120.022411
	   34 B(4,5,11)       =    120.264090    -0.000000    -0.000589   120.263502
	   35 B(5,4,10)       =    119.873282    -0.000000    -0.001487   119.871794
	   36 B(5,6,12)       =    118.950800     0.000001     0.004726   118.955526
	   37 B(6,1,7)        =    120.221884    -0.000001    -0.005859   120.216025
	   38 B(6,5,11)       =    119.712332     0.000000     0.000829   119.713162
	   39 B(7,13,17)      =    116.728091     0.000002     0.016145   116.744236
	   40 B(7,13,18)      =    113.326013     0.000001    -0.001467   113.324546
	   41 B(7,14,15)      =    121.188335    -0.000000     0.002849   121.191184
	   42 B(7,14,16)      =    121.208639     0.000000     0.001009   121.209648
	   43 B(13,7,14)      =    117.016405     0.000002     0.008540   117.024945
	   44 B(15,14,16)     =    117.112727     0.000000    -0.000995   117.111732
	   45 B(17,13,18)     =    107.950903    -0.000001     0.002947   107.953850
	   46 D(1,2,3,4)      =      1.345292    -0.000000    -0.020286     1.325005
	   47 D(1,2,3,9)      =   -178.208826    -0.000000    -0.019753  -178.228579
	   48 D(1,6,5,4)      =      0.740483    -0.000000     0.012872     0.753354
	   49 D(1,6,5,11)     =   -178.908617    -0.000000     0.010941  -178.897675
	   50 *D(1,7,13,17)   =    119.999985    -0.000000     0.000000   119.999985
	   51 D(1,7,13,18)    =     -6.364941    -0.000000    -0.017499    -6.382440
	   52 D(1,7,14,15)    =   -179.701117     0.000000     0.017167  -179.683950
	   53 D(1,7,14,16)    =      8.564377    -0.000000    -0.006782     8.557596
	   54 D(2,1,6,5)      =      0.036241     0.000000    -0.028815     0.007427
	   55 D(2,1,6,12)     =   -176.675299    -0.000000    -0.016174  -176.691473
	   56 D(2,1,7,13)     =   -147.910340     0.000000     0.034963  -147.875377
	   57 D(2,1,7,14)     =     26.334099     0.000000     0.025402    26.359501
	   58 D(2,3,4,5)      =     -0.569797    -0.000000     0.004126    -0.565672
	   59 D(2,3,4,10)     =    179.568881    -0.000000    -0.001083   179.567798
	   60 D(3,2,1,6)      =     -1.079617     0.000000     0.032510    -1.047106
	   61 D(3,2,1,7)      =    178.493626    -0.000000    -0.005333   178.488293
	   62 D(3,4,5,6)      =     -0.481438     0.000000    -0.000414    -0.481852
	   63 D(3,4,5,11)     =    179.165706     0.000000     0.001532   179.167238
	   64 D(4,3,2,8)      =    177.292369    -0.000000     0.008195   177.300564
	   65 D(4,5,6,12)     =    177.517233     0.000000     0.000220   177.517453
	   66 D(5,4,3,9)      =    178.981414    -0.000000     0.003598   178.985012
	   67 D(5,6,1,7)      =   -179.536652     0.000000     0.009036  -179.527616
	   68 D(6,1,2,8)      =   -176.942175     0.000000     0.003115  -176.939059
	   69 D(6,1,7,13)     =     31.660381     0.000000    -0.003045    31.657336
	   70 D(6,1,7,14)     =   -154.095180    -0.000000    -0.012606  -154.107786
	   71 D(6,5,4,10)     =    179.379854     0.000000     0.004800   179.384654
	   72 D(7,1,2,8)      =      2.631068    -0.000000    -0.034728     2.596340
	   73 D(7,1,6,12)     =      3.751808     0.000000     0.021676     3.773485
	   74 D(8,2,3,9)      =     -2.261749    -0.000000     0.008728    -2.253021
	   75 D(9,3,4,10)     =     -0.879907    -0.000000    -0.001611    -0.881518
	   76 D(10,4,5,11)    =     -0.973002     0.000000     0.006746    -0.966256
	   77 D(11,5,6,12)    =     -2.131866     0.000000    -0.001711    -2.133577
	   78 D(13,7,14,15)   =     -5.169705     0.000000     0.007950    -5.161756
	   79 D(13,7,14,16)   =   -176.904211    -0.000000    -0.015999  -176.920210
	   80 D(14,7,13,17)   =    -54.439211     0.000000     0.010469   -54.428742
	   81 D(14,7,13,18)   =    179.195863     0.000000    -0.007030   179.188833
	   82 R(1,X)          =      0.069647     0.000051     0.000247     0.069894
	   83 R(1,Y)          =     -0.026343    -0.000096    -0.000030    -0.026373
	   84 R(1,Z)          =     -0.197743     0.000182     0.000048    -0.197695
	   85 R(2,X)          =      0.101337    -0.000004    -0.000146     0.101190
	   86 R(2,Y)          =      1.192066     0.000006     0.000030     1.192095
	   87 R(2,Z)          =      0.510067    -0.000097    -0.000074     0.509993
	   88 R(3,X)          =      0.042659    -0.000046    -0.000087     0.042573
	   89 R(3,Y)          =      1.187026    -0.000020     0.000013     1.187038
	   90 R(3,Z)          =      1.899548     0.000007    -0.000032     1.899515
	   91 R(4,X)          =     -0.019245    -0.000010    -0.000056    -0.019302
	   92 R(4,Y)          =     -0.023601     0.000033     0.000030    -0.023571
	   93 R(4,Z)          =      2.595939    -0.000030    -0.000030     2.595909
	   94 R(5,X)          =     -0.034613     0.000010    -0.000002    -0.034615
	   95 R(5,Y)          =     -1.236788     0.000016     0.000024    -1.236764
	   96 R(5,Z)          =      1.900750    -0.000005    -0.000016     1.900734
	   97 R(6,X)          =      0.001628     0.000072     0.000015     0.001643
	   98 R(6,Y)          =     -1.242633    -0.000018     0.000015    -1.242618
	   99 R(6,Z)          =      0.511183    -0.000049    -0.000026     0.511158
	  100 R(7,X)          =      0.097828    -0.000009     0.000063     0.097892
	  101 R(7,Y)          =     -0.027130    -0.000316    -0.000127    -0.027258
	  102 R(7,Z)          =     -1.662994    -0.000319    -0.000074    -1.663068
	  103 R(8,X)          =      0.104052    -0.000040    -0.000027     0.104025
	  104 R(8,Y)          =      2.143814    -0.000080    -0.000038     2.143776
	  105 R(8,Z)          =     -0.013286    -0.000223    -0.000175    -0.013462
	  106 R(9,X)          =      0.037903    -0.000081    -0.000072     0.037831
	  107 R(9,Y)          =      2.128531     0.000007     0.000010     2.128540
	  108 R(9,Z)          =      2.439005     0.000015    -0.000009     2.438996
	  109 R(10,X)         =     -0.057805    -0.000010     0.000009    -0.057797
	  110 R(10,Y)         =     -0.021556     0.000006     0.000010    -0.021546
	  111 R(10,Z)         =      3.680822    -0.000020    -0.000023     3.680799
	  112 R(11,X)         =     -0.069026     0.000002    -0.000004    -0.069030
	  113 R(11,Y)         =     -2.176688     0.000044     0.000036    -2.176652
	  114 R(11,Z)         =      2.441792     0.000014     0.000002     2.441794
	  115 R(12,X)         =      0.030140     0.000059     0.000056     0.030197
	  116 R(12,Y)         =     -2.195851    -0.000007     0.000027    -2.195825
	  117 R(12,Z)         =     -0.010400    -0.000191    -0.000113    -0.010513
	  118 R(13,X)         =     -0.536111    -0.000018    -0.000134    -0.536245
	  119 R(13,Y)         =     -0.980301     0.000201     0.000107    -0.980194
	  120 R(13,Z)         =     -2.399199     0.000203     0.000047    -2.399152
	  121 R(14,X)         =      0.653518     0.000161     0.000108     0.653627
	  122 R(14,Y)         =      0.973792    -0.000012    -0.000035     0.973756
	  123 R(14,Z)         =     -2.326293    -0.000018     0.000059    -2.326233
	  124 R(15,X)         =      0.674090     0.000001    -0.000105     0.673984
	  125 R(15,Y)         =      0.984715     0.000357     0.000284     0.984999
	  126 R(15,Z)         =     -3.340327    -0.000010     0.000044    -3.340283
	  127 R(16,X)         =      1.180347     0.000081     0.000082     1.180429
	  128 R(16,Y)         =      1.692236    -0.000011    -0.000038     1.692197
	  129 R(16,Z)         =     -1.846609     0.000244     0.000176    -1.846433
	  130 R(17,X)         =     -1.256596    -0.000027    -0.000133    -1.256729
	  131 R(17,Y)         =     -0.658404    -0.000125    -0.000022    -0.658426
	  132 R(17,Z)         =     -3.041638     0.000067     0.000053    -3.041585
	  133 R(18,X)         =     -0.930323    -0.000183    -0.000028    -0.930351
	  134 R(18,Y)         =     -1.727412    -0.000053    -0.000010    -1.727422
	  135 R(18,Z)         =     -1.835755     0.000376     0.000124    -1.835631
	 ---------------------------------------------------------------------------
	Successfully symmetrized geometry.

  ==> Convergence Check <==

  Measures of convergence in internal coordinates in au.
  Criteria marked as inactive (o), active & met (*), and active & unmet ( ).
  ---------------------------------------------------------------------------------------------
   Step     Total Energy     Delta E     MAX Force     RMS Force      MAX Disp      RMS Disp   
  ---------------------------------------------------------------------------------------------
    Convergence Criteria    1.00e-06 *    3.00e-04 *             o    1.20e-03 *             o
  ---------------------------------------------------------------------------------------------
      2    -381.45488944   -9.56e-07 *    7.77e-05 *    1.56e-05 o    6.10e-04 *    1.82e-04 o  ~
  ---------------------------------------------------------------------------------------------


  **** Optimization is complete! (in 2 steps) ****

  ==> Optimization Summary <==

  Measures of convergence in internal coordinates in au.
  --------------------------------------------------------------------------------------------------------------- ~
   Step         Total Energy             Delta E       MAX Force       RMS Force        MAX Disp        RMS Disp  ~
  --------------------------------------------------------------------------------------------------------------- ~
      1    -381.454888482826   -381.454888482826      0.00027234      0.00004138      0.00179890      0.00039403  ~
      2    -381.454889438392     -0.000000955565      0.00007767      0.00001562      0.00061022      0.00018171  ~
  --------------------------------------------------------------------------------------------------------------- ~

	Writing optimization data to binary file.
	Final energy is   -381.4548894383916
	Final (previous) structure:
	Cartesian Geometry (in Angstrom)
	    C     0.0696474991  -0.0263426366  -0.1977433406
	    C     0.1013366098   1.1920657638   0.5100673837
	    C     0.0426592700   1.1870256094   1.8995476826
	    C    -0.0192451460  -0.0236011586   2.5959386305
	    C    -0.0346126847  -1.2367879695   1.9007501042
	    C     0.0016284033  -1.2426331226   0.5111834311
	    C     0.0978282477  -0.0271304235  -1.6629943899
	    H     0.1040515446   2.1438135889  -0.0132863372
	    H     0.0379033164   2.1285308556   2.4390049516
	    H    -0.0578052873  -0.0215559720   3.6808215876
	    H    -0.0690261508  -2.1766881096   2.4417916178
	    H     0.0301403649  -2.1958513541  -0.0104001529
	    N    -0.5361108453  -0.9803008257  -2.3991993918
	    N     0.6535182485   0.9737917381  -2.3262928524
	    H     0.6740896675   0.9847147495  -3.3403269174
	    H     1.1803472305   1.6922356136  -1.8466089759
	    H    -1.2565955033  -0.6584039969  -3.0416382906
	    H    -0.9303227973  -1.7274117277  -1.8357551419
	Saving final (previous) structure.
	Removing binary optimization data file.
			--------------------------
			 OPTKING Finished Execution 
			--------------------------

    Final optimized geometry and variables:
    Molecular point group: c1
    Full point group: C1

    Geometry (in Angstrom), charge = 1, multiplicity = 1:

    C            0.069647499071    -0.026342636633    -0.197743340608
    C            0.101336609781     1.192065763846     0.510067383655
    C            0.042659270018     1.187025609424     1.899547682634
    C           -0.019245145955    -0.023601158586     2.595938630518
    C           -0.034612684743    -1.236787969459     1.900750104196
    C            0.001628403316    -1.242633122561     0.511183431090
    C            0.097828247714    -0.027130423526    -1.662994389889
    H            0.104051544593     2.143813588899    -0.013286337232
    H            0.037903316411     2.128530855648     2.439004951559
    H           -0.057805287311    -0.021555972042     3.680821587643
    H           -0.069026150849    -2.176688109629     2.441791617771
    H            0.030140364870    -2.195851354053    -0.010400152858
    N           -0.536110845277    -0.980300825674    -2.399199391758
    N            0.653518248484     0.973791738063    -2.326292852396
    H            0.674089667468     0.984714749503    -3.340326917387
    H            1.180347230547     1.692235613574    -1.846608975918
    H           -1.256595503260    -0.658403996888    -3.041638290584
    H           -0.930322797318    -1.727411727655    -1.835755141857

	Removing binary optimization data file.
	Cleaning optimization helper files.


Properties will be evaluated at   0.000000,   0.000000,   0.000000 [a0]
OEProp: No title given, name of density matrix used for the following properties is 'SCF density'
  Nuclear Dipole Moment: [e a0]
     X:     3.9497      Y:    -1.7775      Z:    -2.3893

  Electronic Dipole Moment: [e a0]
     X:    -4.1152      Y:     2.1283      Z:     0.5338

  Dipole Moment: [e a0]
     X:    -0.1655      Y:     0.3508      Z:    -1.8555     Total:     1.8956

  Dipole Moment: [D]
     X:    -0.4206      Y:     0.8916      Z:    -4.7162     Total:     4.8181

  Quadrupole Moment: [D A]
    XX:   -49.2553     YY:   -37.3404     ZZ:   -17.5331
    XY:     5.9685     XZ:     1.5689     YZ:    -3.8535

  Traceless Quadrupole Moment: [D A]
    XX:   -14.5457     YY:    -2.6308     ZZ:    17.1765
    XY:     5.9685     XZ:     1.5689     YZ:    -3.8535

  Mulliken Charges: (a.u.)
   Center  Symbol    Alpha    Beta     Spin     Total
       1     C     2.93788  2.93788  0.00000  0.12424
       2     C     3.08426  3.08426  0.00000 -0.16852
       3     C     3.06179  3.06179  0.00000 -0.12358
       4     C     3.05097  3.05097  0.00000 -0.10194
       5     C     3.06214  3.06214  0.00000 -0.12428
       6     C     3.08819  3.08819  0.00000 -0.17637
       7     C     2.75443  2.75443  0.00000  0.49115
       8     H     0.41664  0.41664  0.00000  0.16672
       9     H     0.40418  0.40418  0.00000  0.19165
      10     H     0.40229  0.40229  0.00000  0.19543
      11     H     0.40379  0.40379  0.00000  0.19241
      12     H     0.41161  0.41161  0.00000  0.17678
      13     N     3.85960  3.85960  0.00000 -0.71921
      14     N     3.85010  3.85010  0.00000 -0.70019
      15     H     0.29953  0.29953  0.00000  0.40093
      16     H     0.29875  0.29875  0.00000  0.40249
      17     H     0.30418  0.30418  0.00000  0.39164
      18     H     0.30968  0.30968  0.00000  0.38064

   Total alpha = 32.00000, Total beta = 32.00000, Total charge =  1.00000


    Psi4 stopped on: Saturday, 29 September 2018 08:42PM
    Psi4 wall time for execution: 0:08:07.27

*** Psi4 exiting successfully. Buy a developer a beer!
