
    -----------------------------------------------------------------------
          Psi4: An Open-Source Ab Initio Electronic Structure Package
                               Psi4 1.2.1 release

                         Git: Rev {HEAD} 406f4de 


    R. M. Parrish, L. A. Burns, D. G. A. Smith, A. C. Simmonett,
    A. E. DePrince III, E. G. Hohenstein, U. Bozkaya, A. Yu. Sokolov,
    R. Di Remigio, R. M. Richard, J. F. Gonthier, A. M. James,
    H. R. McAlexander, A. Kumar, M. Saitow, X. Wang, B. P. Pritchard,
    P. Verma, H. F. Schaefer III, K. Patkowski, R. A. King, E. F. Valeev,
    F. A. Evangelista, J. M. Turney, T. D. Crawford, and C. D. Sherrill,
    J. Chem. Theory Comput. 13(7) pp 3185--3197 (2017).
    (doi: 10.1021/acs.jctc.7b00174)


                         Additional Contributions by
    P. Kraus, H. Kruse, M. H. Lechner, M. C. Schieber, and R. A. Shaw

    -----------------------------------------------------------------------


    Psi4 started on: Saturday, 29 September 2018 08:51PM

    Process ID: 1835
    Host:       arancio.prib.upf.edu
    PSIDATADIR: /shared/joao/test_parameterize/miniconda3/share/psi4
    Memory:     500.0 MiB
    Threads:    1
    
  ==> Input File <==

--------------------------------------------------------------------------
set_num_threads(4)
set_memory('3000 MB')

set { scf_mem_safety_factor 0.7 }

set { reference rks }
set { basis 6-31G* }

molecule MOL {
    1 1
    noreorient
    nocom
    symmetry c1
    C   -0.000000  -0.000000  -0.177864
    C    0.036678   1.219374   0.524165
    C    0.031765   1.213120   1.915444
    C    0.000000   0.000000   2.610107
    C   -0.031765  -1.213120   1.915444
    C   -0.036678  -1.219375   0.524165
    C   -0.000000   0.000000  -1.644734
    H    0.018170   2.164705  -0.010854
    H    0.042402   2.152895   2.457886
    H    0.000000   0.000000   3.695756
    H   -0.042402  -2.152895   2.457886
    H   -0.018170  -2.164705  -0.010853
    N    0.546037  -1.015073  -2.308461
    N   -0.546037   1.015073  -2.308460
    H   -0.653831   1.019312  -3.315997
    H   -0.812421   1.855998  -1.813316
    H    0.812421  -1.855998  -1.813317
    H    0.653831  -1.019311  -3.315997
}

set optking { frozen_dihedral = (" 2 1 7 13 ") }

set optking { dynamic_level = 1 
 geom_maxiter = 250
 print_trajectory_xyz_file = True }

energy, wfn = optimize('B3LYP-D3', return_wfn=True)

import os
os.chdir(os.environ['HTMD_PSI4_WORKDIR'])

oeprop(wfn, 'DIPOLE', 'QUADRUPOLE', 'MULLIKEN_CHARGES')

with open('psi4out.xyz', 'w') as f:
    f.write('18 ' )
    f.write('%.12f\n' % energy)
    f.write(MOL.save_string_xyz())
--------------------------------------------------------------------------
  Threads set to 4 by Python driver.

  Memory set to   2.794 GiB by Python driver.
gradient() will perform analytic gradient computation.

*** tstart() called on arancio.prib.upf.edu
*** at Sat Sep 29 20:51:32 2018

   => Loading Basis Set <=

    Name: 6-31G*
    Role: ORBITAL
    Keyword: BASIS
    atoms 1-7         entry C          line   111 file /shared/joao/test_parameterize/miniconda3/share/psi4/basis/6-31gs.gbs 
    atoms 8-12, 15-18 entry H          line    44 file /shared/joao/test_parameterize/miniconda3/share/psi4/basis/6-31gs.gbs 
    atoms 13-14       entry N          line   128 file /shared/joao/test_parameterize/miniconda3/share/psi4/basis/6-31gs.gbs 


         ---------------------------------------------------------
                                   SCF
            by Justin Turney, Rob Parrish, Andy Simmonett
                             and Daniel Smith
                              RKS Reference
                        4 Threads,   2861 MiB Core
         ---------------------------------------------------------

  ==> Geometry <==

    Molecular point group: c1
    Full point group: C1

    Geometry (in Angstrom), charge = 1, multiplicity = 1:

       Center              X                  Y                   Z               Mass       
    ------------   -----------------  -----------------  -----------------  -----------------
         C            0.000000000000     0.000000000000    -0.177864000000    12.000000000000
         C            0.036678000000     1.219374000000     0.524165000000    12.000000000000
         C            0.031765000000     1.213120000000     1.915444000000    12.000000000000
         C            0.000000000000     0.000000000000     2.610107000000    12.000000000000
         C           -0.031765000000    -1.213120000000     1.915444000000    12.000000000000
         C           -0.036678000000    -1.219375000000     0.524165000000    12.000000000000
         C            0.000000000000     0.000000000000    -1.644734000000    12.000000000000
         H            0.018170000000     2.164705000000    -0.010854000000     1.007825032070
         H            0.042402000000     2.152895000000     2.457886000000     1.007825032070
         H            0.000000000000     0.000000000000     3.695756000000     1.007825032070
         H           -0.042402000000    -2.152895000000     2.457886000000     1.007825032070
         H           -0.018170000000    -2.164705000000    -0.010853000000     1.007825032070
         N            0.546037000000    -1.015073000000    -2.308461000000    14.003074004780
         N           -0.546037000000     1.015073000000    -2.308460000000    14.003074004780
         H           -0.653831000000     1.019312000000    -3.315997000000     1.007825032070
         H           -0.812421000000     1.855998000000    -1.813316000000     1.007825032070
         H            0.812421000000    -1.855998000000    -1.813317000000     1.007825032070
         H            0.653831000000    -1.019311000000    -3.315997000000     1.007825032070

  Running in c1 symmetry.

  Rotational constants: A =      0.12190  B =      0.04002  C =      0.03102 [cm^-1]
  Rotational constants: A =   3654.48753  B =   1199.79222  C =    929.84625 [MHz]
  Nuclear repulsion =  417.249159493866728

  Charge       = 1
  Multiplicity = 1
  Electrons    = 64
  Nalpha       = 32
  Nbeta        = 32

  ==> Algorithm <==

  SCF Algorithm Type is DF.
  DIIS enabled.
  MOM disabled.
  Fractional occupation disabled.
  Guess Type is SAD.
  Energy threshold   = 1.00e-08
  Density threshold  = 1.00e-08
  Integral threshold = 0.00e+00

  ==> Primary Basis <==

  Basis Set: 6-31G*
    Blend: 6-31G*
    Number of shells: 72
    Number of basis function: 153
    Number of Cartesian functions: 153
    Spherical Harmonics?: false
    Max angular momentum: 2

  ==> DFT Potential <==

   => Composite Functional: B3LYP-D3ZERO <= 

    B3LYP-d3zero Hyb-GGA Exchange-Correlation Functional

    P. J. Stephens, F. J. Devlin, C. F. Chabalowski, and M. J. Frisch, J. Phys. Chem. 98, 11623 (1994)

    Deriv               =              1
    GGA                 =           TRUE
    Meta                =          FALSE

    Exchange Hybrid     =           TRUE
    MP2 Hybrid          =          FALSE

   => Exchange Functionals <=

    0.0800   Slater exchange
    0.7200         Becke 88

   => Exact (HF) Exchange <=

    0.2000               HF 

   => Correlation Functionals <=

    0.1900   Vosko, Wilk & Nusair (VWN5_RPA)
    0.8100   Lee, Yang & Parr

   => Molecular Quadrature <=

    Radial Scheme       =       TREUTLER
    Pruning Scheme      =           FLAT
    Nuclear Scheme      =       TREUTLER

    BS radius alpha     =              1
    Pruning alpha       =              1
    Radial Points       =             75
    Spherical Points    =            302
    Total Points        =         396706
    Total Blocks        =           2974
    Max Points          =            256
    Max Functions       =            149

   => -D3ZERO: Empirical Dispersion <=

    Grimme's -D3 (zero-damping) Dispersion Correction
    Grimme S.; Antony J.; Ehrlich S.; Krieg H. (2010), J. Chem. Phys., 132: 154104

        S6 =   1.000000E+00
        S8 =   1.703000E+00
       SR6 =   1.261000E+00
       SR8 =   1.000000E+00
    ALPHA6 =   1.400000E+01

   => Loading Basis Set <=

    Name: (6-31G* AUX)
    Role: JKFIT
    Keyword: DF_BASIS_SCF
    atoms 1-7         entry C          line   121 file /shared/joao/test_parameterize/miniconda3/share/psi4/basis/cc-pvdz-jkfit.gbs 
    atoms 8-12, 15-18 entry H          line    51 file /shared/joao/test_parameterize/miniconda3/share/psi4/basis/cc-pvdz-jkfit.gbs 
    atoms 13-14       entry N          line   171 file /shared/joao/test_parameterize/miniconda3/share/psi4/basis/cc-pvdz-jkfit.gbs 

  ==> Pre-Iterations <==

   -------------------------------------------------------
    Irrep   Nso     Nmo     Nalpha   Nbeta   Ndocc  Nsocc
   -------------------------------------------------------
     A        153     153       0       0       0       0
   -------------------------------------------------------
    Total     153     153      32      32      32       0
   -------------------------------------------------------

  ==> Integral Setup <==

  ==> DiskDFJK: Density-Fitted J/K Matrices <==

    J tasked:                  Yes
    K tasked:                  Yes
    wK tasked:                  No
    OpenMP threads:              4
    Integrals threads:           4
    Memory (MB):              2002
    Algorithm:                Core
    Integral Cache:           NONE
    Schwarz Cutoff:          1E-12
    Fitting Condition:       1E-12

   => Auxiliary Basis Set <=

  Basis Set: (6-31G* AUX)
    Blend: CC-PVDZ-JKFIT
    Number of shells: 297
    Number of basis function: 954
    Number of Cartesian functions: 954
    Spherical Harmonics?: false
    Max angular momentum: 3

  Minimum eigenvalue in the overlap matrix is 4.8099644802E-04.
  Using Symmetric Orthogonalization.

  SCF Guess: Superposition of Atomic Densities via on-the-fly atomic UHF.

  ==> Iterations <==

                           Total Energy        Delta E     RMS |[F,P]|

   @DF-RKS iter   0:  -379.46475663650659   -3.79465e+02   6.66502e-02 
   @DF-RKS iter   1:  -381.00136929948320   -1.53661e+00   1.25975e-02 
   @DF-RKS iter   2:  -380.88464256708494    1.16727e-01   1.41180e-02 DIIS
   @DF-RKS iter   3:  -381.45294241807898   -5.68300e-01   2.08676e-03 DIIS
   @DF-RKS iter   4:  -381.46246142395489   -9.51901e-03   8.99632e-04 DIIS
   @DF-RKS iter   5:  -381.46447841276216   -2.01699e-03   2.51539e-04 DIIS
   @DF-RKS iter   6:  -381.46463627571978   -1.57863e-04   8.37065e-05 DIIS
   @DF-RKS iter   7:  -381.46465521805862   -1.89423e-05   2.21532e-05 DIIS
   @DF-RKS iter   8:  -381.46465669486093   -1.47680e-06   6.92242e-06 DIIS
   @DF-RKS iter   9:  -381.46465684580613   -1.50945e-07   2.16886e-06 DIIS
   @DF-RKS iter  10:  -381.46465685904974   -1.32436e-08   6.23173e-07 DIIS
   @DF-RKS iter  11:  -381.46465686010873   -1.05899e-09   1.49028e-07 DIIS
   @DF-RKS iter  12:  -381.46465686016109   -5.23528e-11   8.87409e-08 DIIS
   @DF-RKS iter  13:  -381.46465686018706   -2.59774e-11   1.37471e-08 DIIS
   @DF-RKS iter  14:  -381.46465686018746   -3.97904e-13   7.17790e-09 DIIS

  ==> Post-Iterations <==

    Orbital Energies [Eh]
    ---------------------

    Doubly Occupied:                                                      

       1A    -14.568103     2A    -14.568096     3A    -10.498982  
       4A    -10.375342     5A    -10.359474     6A    -10.359465  
       7A    -10.343737     8A    -10.342208     9A    -10.342113  
      10A     -1.184892    11A     -1.093129    12A     -1.016048  
      13A     -0.928001    14A     -0.904806    15A     -0.847548  
      16A     -0.786536    17A     -0.777706    18A     -0.740408  
      19A     -0.736618    20A     -0.689999    21A     -0.669039  
      22A     -0.630891    23A     -0.616009    24A     -0.593423  
      25A     -0.579810    26A     -0.578907    27A     -0.517081  
      28A     -0.508987    29A     -0.500807    30A     -0.472219  
      31A     -0.410594    32A     -0.407083  

    Virtual:                                                              

      33A     -0.218298    34A     -0.157762    35A     -0.129461  
      36A     -0.112810    37A     -0.076534    38A     -0.068141  
      39A     -0.041134    40A     -0.031767    41A      0.011371  
      42A      0.024281    43A      0.028750    44A      0.063616  
      45A      0.077849    46A      0.082866    47A      0.118989  
      48A      0.145110    49A      0.154016    50A      0.174799  
      51A      0.218129    52A      0.242922    53A      0.299331  
      54A      0.348532    55A      0.350006    56A      0.375916  
      57A      0.390851    58A      0.396637    59A      0.421707  
      60A      0.423427    61A      0.441843    62A      0.447424  
      63A      0.450263    64A      0.470033    65A      0.470478  
      66A      0.473609    67A      0.483217    68A      0.496591  
      69A      0.501269    70A      0.541249    71A      0.557958  
      72A      0.589047    73A      0.615582    74A      0.645916  
      75A      0.665309    76A      0.685667    77A      0.692313  
      78A      0.704701    79A      0.716565    80A      0.742527  
      81A      0.777367    82A      0.781343    83A      0.786772  
      84A      0.804606    85A      0.827887    86A      0.853053  
      87A      0.854403    88A      0.931912    89A      0.970462  
      90A      1.004211    91A      1.006495    92A      1.030352  
      93A      1.036044    94A      1.057999    95A      1.137441  
      96A      1.178467    97A      1.222377    98A      1.273325  
      99A      1.280630   100A      1.308460   101A      1.320539  
     102A      1.343958   103A      1.355594   104A      1.370165  
     105A      1.377166   106A      1.456047   107A      1.515072  
     108A      1.609244   109A      1.623575   110A      1.647781  
     111A      1.680966   112A      1.736084   113A      1.752820  
     114A      1.799639   115A      1.817981   116A      1.862364  
     117A      1.899600   118A      1.901933   119A      1.939123  
     120A      1.978257   121A      1.992518   122A      2.023396  
     123A      2.036202   124A      2.068022   125A      2.124612  
     126A      2.125733   127A      2.155355   128A      2.208112  
     129A      2.225270   130A      2.267345   131A      2.338842  
     132A      2.364768   133A      2.446294   134A      2.456195  
     135A      2.490492   136A      2.517771   137A      2.537302  
     138A      2.589447   139A      2.601797   140A      2.636620  
     141A      2.738259   142A      2.884359   143A      2.993641  
     144A      3.257034   145A      3.637212   146A      3.674577  
     147A      3.910487   148A      3.946205   149A      3.961294  
     150A      4.047293   151A      4.169592   152A      4.257227  
     153A      4.545449  

    Final Occupation by Irrep:
              A 
    DOCC [    32 ]

  Energy converged.

  @DF-RKS Final Energy:  -381.46465686018746

   => Energetics <=

    Nuclear Repulsion Energy =            417.2491594938667276
    One-Electron Energy =               -1329.5828229595913399
    Two-Electron Energy =                 575.2885604041542820
    DFT Exchange-Correlation Energy =     -44.4079208886170846
    Empirical Dispersion Energy =          -0.0116329100000000
    VV10 Nonlocal Energy =                  0.0000000000000000
    Total Energy =                       -381.4646568601874037



Properties will be evaluated at   0.000000,   0.000000,   0.000000 [a0]

Properties computed using the SCF density matrix

  Nuclear Dipole Moment: [e a0]
     X:     0.0000      Y:    -0.0000      Z:     0.0248

  Electronic Dipole Moment: [e a0]
     X:    -0.0000      Y:     0.0000      Z:    -2.2687

  Dipole Moment: [e a0]
     X:    -0.0000      Y:     0.0000      Z:    -2.2439     Total:     2.2439

  Dipole Moment: [D]
     X:    -0.0000      Y:     0.0000      Z:    -5.7034     Total:     5.7034


*** tstop() called on arancio.prib.upf.edu at Sat Sep 29 20:51:56 2018
Module time:
	user time   =      88.37 seconds =       1.47 minutes
	system time =       0.50 seconds =       0.01 minutes
	total time  =         24 seconds =       0.40 minutes
Total time:
	user time   =      88.37 seconds =       1.47 minutes
	system time =       0.50 seconds =       0.01 minutes
	total time  =         24 seconds =       0.40 minutes

*** tstart() called on arancio.prib.upf.edu
*** at Sat Sep 29 20:51:56 2018


         ------------------------------------------------------------
                                   SCF GRAD                          
                          Rob Parrish, Justin Turney,                
                       Andy Simmonett, and Alex Sokolov              
         ------------------------------------------------------------

  ==> Geometry <==

    Molecular point group: c1
    Full point group: C1

    Geometry (in Angstrom), charge = 1, multiplicity = 1:

       Center              X                  Y                   Z               Mass       
    ------------   -----------------  -----------------  -----------------  -----------------
         C            0.000000000000     0.000000000000    -0.177864000000    12.000000000000
         C            0.036678000000     1.219374000000     0.524165000000    12.000000000000
         C            0.031765000000     1.213120000000     1.915444000000    12.000000000000
         C            0.000000000000     0.000000000000     2.610107000000    12.000000000000
         C           -0.031765000000    -1.213120000000     1.915444000000    12.000000000000
         C           -0.036678000000    -1.219375000000     0.524165000000    12.000000000000
         C            0.000000000000     0.000000000000    -1.644734000000    12.000000000000
         H            0.018170000000     2.164705000000    -0.010854000000     1.007825032070
         H            0.042402000000     2.152895000000     2.457886000000     1.007825032070
         H            0.000000000000     0.000000000000     3.695756000000     1.007825032070
         H           -0.042402000000    -2.152895000000     2.457886000000     1.007825032070
         H           -0.018170000000    -2.164705000000    -0.010853000000     1.007825032070
         N            0.546037000000    -1.015073000000    -2.308461000000    14.003074004780
         N           -0.546037000000     1.015073000000    -2.308460000000    14.003074004780
         H           -0.653831000000     1.019312000000    -3.315997000000     1.007825032070
         H           -0.812421000000     1.855998000000    -1.813316000000     1.007825032070
         H            0.812421000000    -1.855998000000    -1.813317000000     1.007825032070
         H            0.653831000000    -1.019311000000    -3.315997000000     1.007825032070

  Nuclear repulsion =  417.249159493866728

  ==> Basis Set <==

  Basis Set: 6-31G*
    Blend: 6-31G*
    Number of shells: 72
    Number of basis function: 153
    Number of Cartesian functions: 153
    Spherical Harmonics?: false
    Max angular momentum: 2

  ==> DFJKGrad: Density-Fitted SCF Gradients <==

    Gradient:                    1
    J tasked:                  Yes
    K tasked:                  Yes
    wK tasked:                  No
    OpenMP threads:              4
    Integrals threads:           4
    Memory (MB):              2002
    Schwarz Cutoff:          0E+00
    Fitting Condition:       1E-12

   => Auxiliary Basis Set <=

  Basis Set: (6-31G* AUX)
    Blend: CC-PVDZ-JKFIT
    Number of shells: 297
    Number of basis function: 954
    Number of Cartesian functions: 954
    Spherical Harmonics?: false
    Max angular momentum: 3

  ==> DFT Potential <==

   => Composite Functional: B3LYP-D3ZERO <= 

    B3LYP-d3zero Hyb-GGA Exchange-Correlation Functional

    P. J. Stephens, F. J. Devlin, C. F. Chabalowski, and M. J. Frisch, J. Phys. Chem. 98, 11623 (1994)

    Deriv               =              1
    GGA                 =           TRUE
    Meta                =          FALSE

    Exchange Hybrid     =           TRUE
    MP2 Hybrid          =          FALSE

   => Exchange Functionals <=

    0.0800   Slater exchange
    0.7200         Becke 88

   => Exact (HF) Exchange <=

    0.2000               HF 

   => Correlation Functionals <=

    0.1900   Vosko, Wilk & Nusair (VWN5_RPA)
    0.8100   Lee, Yang & Parr

   => Molecular Quadrature <=

    Radial Scheme       =       TREUTLER
    Pruning Scheme      =           FLAT
    Nuclear Scheme      =       TREUTLER

    BS radius alpha     =              1
    Pruning alpha       =              1
    Radial Points       =             75
    Spherical Points    =            302
    Total Points        =         396706
    Total Blocks        =           2974
    Max Points          =            256
    Max Functions       =            149


  -Total Gradient:
     Atom            X                  Y                   Z
    ------   -----------------  -----------------  -----------------
       1       -0.000000014190     0.000000570727    -0.002315056505
       2        0.007800994219     0.003216539525    -0.000406015032
       3        0.000437698604    -0.000573697744     0.000191941950
       4       -0.000000000726    -0.000000076559     0.000354244193
       5       -0.000437691582     0.000573933077     0.000192076318
       6       -0.007801000139    -0.003217963023    -0.000406385699
       7       -0.000000127010     0.000000223547     0.001597303613
       8       -0.004417182377    -0.001027137713    -0.002248525524
       9       -0.000865349250     0.000046793660    -0.000013966900
      10       -0.000000000519     0.000000005872     0.000094316876
      11        0.000865347561    -0.000046803059    -0.000014020539
      12        0.004417160984     0.001027885771    -0.002248046699
      13        0.004103028783     0.001237590942     0.001225559599
      14       -0.004102747154    -0.001237947004     0.001226812780
      15       -0.003044981920    -0.001296372501    -0.000131951251
      16        0.004612189171     0.002067716981     0.001508762696
      17       -0.004612203883    -0.002067678364     0.001508816016
      18        0.003044879313     0.001296415867    -0.000131087405


*** tstop() called on arancio.prib.upf.edu at Sat Sep 29 20:52:04 2018
Module time:
	user time   =      28.35 seconds =       0.47 minutes
	system time =       0.20 seconds =       0.00 minutes
	total time  =          8 seconds =       0.13 minutes
Total time:
	user time   =     116.79 seconds =       1.95 minutes
	system time =       0.71 seconds =       0.01 minutes
	total time  =         32 seconds =       0.53 minutes

			-----------------------------------------
			 OPTKING 2.0: for geometry optimizations 
			  - R.A. King,  Bethel University        
			-----------------------------------------
	At level 1: Red. Int., RFO, no backsteps, dynamic trust

	Internal coordinates to be generated automatically.
	Detected frag 1 with atoms:  1 2 3 4 5 6 7 8 9 10 11 12 13 14 15 16 17 18
	---Fragment 1 Bond Connectivity---
	 1 : 2 6 7
	 2 : 1 3 8
	 3 : 2 4 9
	 4 : 3 5 10
	 5 : 4 6 11
	 6 : 1 5 12
	 7 : 1 13 14
	 8 : 2
	 9 : 3
	 10 : 4
	 11 : 5
	 12 : 6
	 13 : 7 17 18
	 14 : 7 15 16
	 15 : 14
	 16 : 14
	 17 : 13
	 18 : 13

	Assuming in current code that numbering for constraints corresponds to unified fragment.
	Frozen dihedral atom list: 
	     2     1     7    13
	---Fragment 1 Geometry and Gradient---
	 C           0.0000000000        0.0000000000       -0.3361142489
	 C           0.0693113751        2.3042829136        0.9905282984
	 C           0.0600271506        2.2924645663        3.6196645829
	 C           0.0000000000        0.0000000000        4.9323874075
	 C          -0.0600271506       -2.2924645663        3.6196645829
	 C          -0.0693113751       -2.3042848033        0.9905282984
	 C           0.0000000000        0.0000000000       -3.1080968214
	 H           0.0343363238        4.0906996085       -0.0205110874
	 H           0.0801281675        4.0683819429        4.6447314059
	 H           0.0000000000        0.0000000000        6.9839666940
	 H          -0.0801281675       -4.0683819429        4.6447314059
	 H          -0.0343363238       -4.0906996085       -0.0205091977
	 N           1.0318603884       -1.9182099749       -4.3623590784
	 N          -1.0318603884        1.9182099749       -4.3623571887
	 H          -1.2355615272        1.9262205240       -6.2663261875
	 H          -1.5352531946        3.5073279232       -3.4266706324
	 H           1.5352531946       -3.5073279232       -3.4266725221
	 H           1.2355615272       -1.9262186342       -6.2663261875
	            -0.0000000142        0.0000005707       -0.0023150565
	             0.0078009942        0.0032165395       -0.0004060150
	             0.0004376986       -0.0005736977        0.0001919419
	            -0.0000000007       -0.0000000766        0.0003542442
	            -0.0004376916        0.0005739331        0.0001920763
	            -0.0078010001       -0.0032179630       -0.0004063857
	            -0.0000001270        0.0000002235        0.0015973036
	            -0.0044171824       -0.0010271377       -0.0022485255
	            -0.0008653492        0.0000467937       -0.0000139669
	            -0.0000000005        0.0000000059        0.0000943169
	             0.0008653476       -0.0000468031       -0.0000140205
	             0.0044171610        0.0010278858       -0.0022480467
	             0.0041030288        0.0012375909        0.0012255596
	            -0.0041027472       -0.0012379470        0.0012268128
	            -0.0030449819       -0.0012963725       -0.0001319513
	             0.0046121892        0.0020677170        0.0015087627
	            -0.0046122039       -0.0020676784        0.0015088160
	             0.0030448793        0.0012964159       -0.0001310874

	Previous optimization step data not found.  Starting new optimization.

	---Fragment 1 Intrafragment Coordinates---
	 - Coordinate -           - BOHR/RAD -       - ANG/DEG -
	 R(1,2)           =         2.659794	       1.407502
	 R(1,6)           =         2.659796	       1.407503
	 R(1,7)           =         2.771983	       1.466870
	 R(2,3)           =         2.629179	       1.391302
	 R(2,8)           =         2.052976	       1.086388
	 R(3,4)           =         2.642393	       1.398294
	 R(3,9)           =         2.050622	       1.085142
	 R(4,5)           =         2.642393	       1.398294
	 R(4,10)          =         2.051579	       1.085649
	 R(5,6)           =         2.629179	       1.391302
	 R(5,11)          =         2.050622	       1.085142
	 R(6,12)          =         2.052973	       1.086386
	 R(7,13)          =         2.513452	       1.330061
	 R(7,14)          =         2.513451	       1.330061
	 R(13,17)         =         1.911599	       1.011574
	 R(13,18)         =         1.914850	       1.013295
	 R(14,15)         =         1.914852	       1.013296
	 R(14,16)         =         1.911599	       1.011574
	 B(1,2,3)         =         2.088380	     119.655376
	 B(1,2,8)         =         2.103396	     120.515689
	 B(1,6,5)         =         2.088379	     119.655315
	 B(1,6,12)        =         2.103396	     120.515729
	 B(1,7,13)        =         2.093264	     119.935175
	 B(1,7,14)        =         2.093263	     119.935137
	 B(2,1,6)         =         2.097220	     120.161857
	 B(2,1,7)         =         2.092983	     119.919082
	 B(2,3,4)         =         2.095279	     120.050636
	 B(2,3,9)         =         2.089719	     119.732108
	 B(3,2,8)         =         2.090149	     119.756722
	 B(3,4,5)         =         2.101793	     120.423859
	 B(3,4,10)        =         2.090696	     119.788070
	 B(4,3,9)         =         2.098135	     120.214297
	 B(4,5,6)         =         2.095280	     120.050677
	 B(4,5,11)        =         2.098135	     120.214297
	 B(5,4,10)        =         2.090696	     119.788070
	 B(5,6,12)        =         2.090149	     119.756743
	 B(6,1,7)         =         2.092982	     119.919061
	 B(6,5,11)        =         2.089719	     119.732067
	 B(7,13,17)       =         2.092411	     119.886344
	 B(7,13,18)       =         2.144859	     122.891394
	 B(7,14,15)       =         2.144860	     122.891406
	 B(7,14,16)       =         2.092412	     119.886381
	 B(13,7,14)       =         2.096659	     120.129688
	 B(15,14,16)      =         2.043399	     117.078158
	 B(17,13,18)      =         2.043400	     117.078208
	 D(1,2,3,4)       =         0.007799	       0.446825
	 D(1,2,3,9)       =        -3.122896	    -178.928735
	 D(1,6,5,4)       =         0.007799	       0.446822
	 D(1,6,5,11)      =        -3.122896	    -178.928737
	 D(1,7,13,17)     =         0.187843	      10.762627
	 D(1,7,13,18)     =        -3.032164	    -173.730227
	 D(1,7,14,15)     =        -3.032165	    -173.730264
	 D(1,7,14,16)     =         0.187843	      10.762631
	 D(2,1,6,5)       =        -0.003906	      -0.223802
	 D(2,1,6,12)      =        -3.091437	    -177.126283
	*D(2,1,7,13)      =         2.617994	     150.000011
	 D(2,1,7,14)      =        -0.523599	     -29.999989
	 D(2,3,4,5)       =        -0.003942	      -0.225875
	 D(2,3,4,10)      =         3.137650	     179.774125
	 D(3,2,1,6)       =        -0.003906	      -0.223806
	 D(3,2,1,7)       =         3.137687	     179.776196
	 D(3,4,5,6)       =        -0.003942	      -0.225874
	 D(3,4,5,11)      =         3.126699	     179.146646
	 D(4,3,2,8)       =         3.095744	     177.373058
	 D(4,5,6,12)      =         3.095744	     177.373055
	 D(5,4,3,9)       =         3.126699	     179.146646
	 D(5,6,1,7)       =         3.137687	     179.776197
	 D(6,1,2,8)       =        -3.091437	    -177.126287
	 D(6,1,7,13)      =        -0.523599	     -29.999988
	 D(6,1,7,14)      =         2.617994	     150.000012
	 D(6,5,4,10)      =         3.137650	     179.774126
	 D(7,1,2,8)       =         0.050156	       2.873714
	 D(7,1,6,12)      =         0.050156	       2.873716
	 D(8,2,3,9)       =        -0.034950	      -2.002503
	 D(9,3,4,10)      =        -0.014894	      -0.853354
	 D(10,4,5,11)     =        -0.014894	      -0.853354
	 D(11,5,6,12)     =        -0.034950	      -2.002504
	 D(13,7,14,15)    =         0.109428	       6.269736
	 D(13,7,14,16)    =        -2.953749	    -169.237369
	 D(14,7,13,17)    =        -2.953749	    -169.237373
	 D(14,7,13,18)    =         0.109428	       6.269773

	Current energy   :      -381.4646568602

	Generating empirical Hessian (Schlegel '84) for each fragment.
	Taking RFO optimization step.
	Going to follow RFO solution 1.
	Using RFO vector 1.
	Norm of target step-size    0.45326
	Projected energy change by RFO approximation:        -0.0049846605

	Back-transformation to cartesian coordinates...
	The INTCO_EXCEPTion handler:
	TORS::compute_val: unable to compute torsion value
	Dynamic level is 1.
	exc.g_really_quit() is 0.
	Raising dynamic level to 2. ~
	Removing binary optimization data file.

    Structure for next step:
    Molecular point group: c1
    Full point group: C1

    Geometry (in Angstrom), charge = 1, multiplicity = 1:

    C            0.000000000000     0.000000000000    -0.177864000000
    C            0.036678000000     1.219374000000     0.524165000000
    C            0.031765000000     1.213120000000     1.915444000000
    C            0.000000000000     0.000000000000     2.610107000000
    C           -0.031765000000    -1.213120000000     1.915444000000
    C           -0.036678000000    -1.219375000000     0.524165000000
    C            0.000000000000     0.000000000000    -1.644734000000
    H            0.018170000000     2.164705000000    -0.010854000000
    H            0.042402000000     2.152895000000     2.457886000000
    H            0.000000000000     0.000000000000     3.695756000000
    H           -0.042402000000    -2.152895000000     2.457886000000
    H           -0.018170000000    -2.164705000000    -0.010853000000
    N            0.546037000000    -1.015073000000    -2.308461000000
    N           -0.546037000000     1.015073000000    -2.308460000000
    H           -0.653831000000     1.019312000000    -3.315997000000
    H           -0.812421000000     1.855998000000    -1.813316000000
    H            0.812421000000    -1.855998000000    -1.813317000000
    H            0.653831000000    -1.019311000000    -3.315997000000

gradient() will perform analytic gradient computation.

*** tstart() called on arancio.prib.upf.edu
*** at Sat Sep 29 20:52:04 2018

   => Loading Basis Set <=

    Name: 6-31G*
    Role: ORBITAL
    Keyword: BASIS
    atoms 1-7         entry C          line   111 file /shared/joao/test_parameterize/miniconda3/share/psi4/basis/6-31gs.gbs 
    atoms 8-12, 15-18 entry H          line    44 file /shared/joao/test_parameterize/miniconda3/share/psi4/basis/6-31gs.gbs 
    atoms 13-14       entry N          line   128 file /shared/joao/test_parameterize/miniconda3/share/psi4/basis/6-31gs.gbs 


         ---------------------------------------------------------
                                   SCF
            by Justin Turney, Rob Parrish, Andy Simmonett
                             and Daniel Smith
                              RKS Reference
                        4 Threads,   2861 MiB Core
         ---------------------------------------------------------

  ==> Geometry <==

    Molecular point group: c1
    Full point group: C1

    Geometry (in Angstrom), charge = 1, multiplicity = 1:

       Center              X                  Y                   Z               Mass       
    ------------   -----------------  -----------------  -----------------  -----------------
         C            0.000000000000     0.000000000000    -0.177864000000    12.000000000000
         C            0.036678000000     1.219374000000     0.524165000000    12.000000000000
         C            0.031765000000     1.213120000000     1.915444000000    12.000000000000
         C            0.000000000000     0.000000000000     2.610107000000    12.000000000000
         C           -0.031765000000    -1.213120000000     1.915444000000    12.000000000000
         C           -0.036678000000    -1.219375000000     0.524165000000    12.000000000000
         C            0.000000000000     0.000000000000    -1.644734000000    12.000000000000
         H            0.018170000000     2.164705000000    -0.010854000000     1.007825032070
         H            0.042402000000     2.152895000000     2.457886000000     1.007825032070
         H            0.000000000000     0.000000000000     3.695756000000     1.007825032070
         H           -0.042402000000    -2.152895000000     2.457886000000     1.007825032070
         H           -0.018170000000    -2.164705000000    -0.010853000000     1.007825032070
         N            0.546037000000    -1.015073000000    -2.308461000000    14.003074004780
         N           -0.546037000000     1.015073000000    -2.308460000000    14.003074004780
         H           -0.653831000000     1.019312000000    -3.315997000000     1.007825032070
         H           -0.812421000000     1.855998000000    -1.813316000000     1.007825032070
         H            0.812421000000    -1.855998000000    -1.813317000000     1.007825032070
         H            0.653831000000    -1.019311000000    -3.315997000000     1.007825032070

  Running in c1 symmetry.

  Rotational constants: A =      0.12190  B =      0.04002  C =      0.03102 [cm^-1]
  Rotational constants: A =   3654.48753  B =   1199.79222  C =    929.84625 [MHz]
  Nuclear repulsion =  417.249159493866728

  Charge       = 1
  Multiplicity = 1
  Electrons    = 64
  Nalpha       = 32
  Nbeta        = 32

  ==> Algorithm <==

  SCF Algorithm Type is DF.
  DIIS enabled.
  MOM disabled.
  Fractional occupation disabled.
  Guess Type is READ.
  Energy threshold   = 1.00e-08
  Density threshold  = 1.00e-08
  Integral threshold = 0.00e+00

  ==> Primary Basis <==

  Basis Set: 6-31G*
    Blend: 6-31G*
    Number of shells: 72
    Number of basis function: 153
    Number of Cartesian functions: 153
    Spherical Harmonics?: false
    Max angular momentum: 2

  ==> DFT Potential <==

   => Composite Functional: B3LYP-D3ZERO <= 

    B3LYP-d3zero Hyb-GGA Exchange-Correlation Functional

    P. J. Stephens, F. J. Devlin, C. F. Chabalowski, and M. J. Frisch, J. Phys. Chem. 98, 11623 (1994)

    Deriv               =              1
    GGA                 =           TRUE
    Meta                =          FALSE

    Exchange Hybrid     =           TRUE
    MP2 Hybrid          =          FALSE

   => Exchange Functionals <=

    0.0800   Slater exchange
    0.7200         Becke 88

   => Exact (HF) Exchange <=

    0.2000               HF 

   => Correlation Functionals <=

    0.1900   Vosko, Wilk & Nusair (VWN5_RPA)
    0.8100   Lee, Yang & Parr

   => Molecular Quadrature <=

    Radial Scheme       =       TREUTLER
    Pruning Scheme      =           FLAT
    Nuclear Scheme      =       TREUTLER

    BS radius alpha     =              1
    Pruning alpha       =              1
    Radial Points       =             75
    Spherical Points    =            302
    Total Points        =         396706
    Total Blocks        =           2974
    Max Points          =            256
    Max Functions       =            149

   => -D3ZERO: Empirical Dispersion <=

    Grimme's -D3 (zero-damping) Dispersion Correction
    Grimme S.; Antony J.; Ehrlich S.; Krieg H. (2010), J. Chem. Phys., 132: 154104

        S6 =   1.000000E+00
        S8 =   1.703000E+00
       SR6 =   1.261000E+00
       SR8 =   1.000000E+00
    ALPHA6 =   1.400000E+01

   => Loading Basis Set <=

    Name: (6-31G* AUX)
    Role: JKFIT
    Keyword: DF_BASIS_SCF
    atoms 1-7         entry C          line   121 file /shared/joao/test_parameterize/miniconda3/share/psi4/basis/cc-pvdz-jkfit.gbs 
    atoms 8-12, 15-18 entry H          line    51 file /shared/joao/test_parameterize/miniconda3/share/psi4/basis/cc-pvdz-jkfit.gbs 
    atoms 13-14       entry N          line   171 file /shared/joao/test_parameterize/miniconda3/share/psi4/basis/cc-pvdz-jkfit.gbs 

  Reading orbitals from file 180, no projection.

  ==> Pre-Iterations <==

   -------------------------------------------------------
    Irrep   Nso     Nmo     Nalpha   Nbeta   Ndocc  Nsocc
   -------------------------------------------------------
     A        153     153       0       0       0       0
   -------------------------------------------------------
    Total     153     153      32      32      32       0
   -------------------------------------------------------

  ==> Integral Setup <==

  ==> DiskDFJK: Density-Fitted J/K Matrices <==

    J tasked:                  Yes
    K tasked:                  Yes
    wK tasked:                  No
    OpenMP threads:              4
    Integrals threads:           4
    Memory (MB):              2002
    Algorithm:                Core
    Integral Cache:           NONE
    Schwarz Cutoff:          1E-12
    Fitting Condition:       1E-12

   => Auxiliary Basis Set <=

  Basis Set: (6-31G* AUX)
    Blend: CC-PVDZ-JKFIT
    Number of shells: 297
    Number of basis function: 954
    Number of Cartesian functions: 954
    Spherical Harmonics?: false
    Max angular momentum: 3

  Minimum eigenvalue in the overlap matrix is 4.8099644801E-04.
  Using Symmetric Orthogonalization.

  SCF Guess: Orbitals guess was supplied from a previous computation.

  ==> Iterations <==

                           Total Energy        Delta E     RMS |[F,P]|

   @DF-RKS iter   0:  -381.46465686018615   -3.81465e+02   1.53260e-09 
   @DF-RKS iter   1:  -381.46465686018649   -3.41061e-13   2.23172e-09 

  ==> Post-Iterations <==

    Orbital Energies [Eh]
    ---------------------

    Doubly Occupied:                                                      

       1A    -14.568103     2A    -14.568096     3A    -10.498982  
       4A    -10.375342     5A    -10.359474     6A    -10.359465  
       7A    -10.343737     8A    -10.342208     9A    -10.342113  
      10A     -1.184892    11A     -1.093129    12A     -1.016048  
      13A     -0.928001    14A     -0.904806    15A     -0.847548  
      16A     -0.786536    17A     -0.777706    18A     -0.740408  
      19A     -0.736618    20A     -0.689999    21A     -0.669039  
      22A     -0.630891    23A     -0.616009    24A     -0.593423  
      25A     -0.579810    26A     -0.578907    27A     -0.517081  
      28A     -0.508987    29A     -0.500807    30A     -0.472219  
      31A     -0.410594    32A     -0.407083  

    Virtual:                                                              

      33A     -0.218298    34A     -0.157762    35A     -0.129461  
      36A     -0.112810    37A     -0.076534    38A     -0.068141  
      39A     -0.041134    40A     -0.031767    41A      0.011371  
      42A      0.024281    43A      0.028750    44A      0.063616  
      45A      0.077849    46A      0.082866    47A      0.118989  
      48A      0.145110    49A      0.154016    50A      0.174799  
      51A      0.218129    52A      0.242922    53A      0.299331  
      54A      0.348532    55A      0.350006    56A      0.375916  
      57A      0.390851    58A      0.396637    59A      0.421707  
      60A      0.423427    61A      0.441843    62A      0.447424  
      63A      0.450263    64A      0.470033    65A      0.470478  
      66A      0.473609    67A      0.483217    68A      0.496591  
      69A      0.501269    70A      0.541249    71A      0.557958  
      72A      0.589047    73A      0.615582    74A      0.645916  
      75A      0.665309    76A      0.685667    77A      0.692313  
      78A      0.704701    79A      0.716565    80A      0.742527  
      81A      0.777367    82A      0.781343    83A      0.786772  
      84A      0.804606    85A      0.827887    86A      0.853053  
      87A      0.854403    88A      0.931912    89A      0.970462  
      90A      1.004211    91A      1.006495    92A      1.030352  
      93A      1.036044    94A      1.057999    95A      1.137441  
      96A      1.178467    97A      1.222377    98A      1.273325  
      99A      1.280630   100A      1.308460   101A      1.320539  
     102A      1.343958   103A      1.355594   104A      1.370165  
     105A      1.377166   106A      1.456047   107A      1.515072  
     108A      1.609244   109A      1.623575   110A      1.647781  
     111A      1.680966   112A      1.736084   113A      1.752820  
     114A      1.799639   115A      1.817981   116A      1.862364  
     117A      1.899600   118A      1.901933   119A      1.939123  
     120A      1.978257   121A      1.992518   122A      2.023396  
     123A      2.036202   124A      2.068022   125A      2.124612  
     126A      2.125733   127A      2.155355   128A      2.208112  
     129A      2.225270   130A      2.267345   131A      2.338842  
     132A      2.364768   133A      2.446294   134A      2.456195  
     135A      2.490492   136A      2.517771   137A      2.537302  
     138A      2.589447   139A      2.601797   140A      2.636620  
     141A      2.738259   142A      2.884359   143A      2.993641  
     144A      3.257034   145A      3.637212   146A      3.674577  
     147A      3.910487   148A      3.946205   149A      3.961294  
     150A      4.047293   151A      4.169592   152A      4.257227  
     153A      4.545449  

    Final Occupation by Irrep:
              A 
    DOCC [    32 ]

  Energy converged.

  @DF-RKS Final Energy:  -381.46465686018649

   => Energetics <=

    Nuclear Repulsion Energy =            417.2491594938667276
    One-Electron Energy =               -1329.5828239474785732
    Two-Electron Energy =                 575.2885614497781717
    DFT Exchange-Correlation Energy =     -44.4079209463527533
    Empirical Dispersion Energy =          -0.0116329100000000
    VV10 Nonlocal Energy =                  0.0000000000000000
    Total Energy =                       -381.4646568601864374



Properties will be evaluated at   0.000000,   0.000000,   0.000000 [a0]

Properties computed using the SCF density matrix

  Nuclear Dipole Moment: [e a0]
     X:     0.0000      Y:    -0.0000      Z:     0.0248

  Electronic Dipole Moment: [e a0]
     X:    -0.0000      Y:     0.0000      Z:    -2.2687

  Dipole Moment: [e a0]
     X:    -0.0000      Y:     0.0000      Z:    -2.2439     Total:     2.2439

  Dipole Moment: [D]
     X:    -0.0000      Y:     0.0000      Z:    -5.7034     Total:     5.7034


*** tstop() called on arancio.prib.upf.edu at Sat Sep 29 20:52:11 2018
Module time:
	user time   =      20.94 seconds =       0.35 minutes
	system time =       0.20 seconds =       0.00 minutes
	total time  =          7 seconds =       0.12 minutes
Total time:
	user time   =     138.47 seconds =       2.31 minutes
	system time =       0.98 seconds =       0.02 minutes
	total time  =         39 seconds =       0.65 minutes

*** tstart() called on arancio.prib.upf.edu
*** at Sat Sep 29 20:52:11 2018


         ------------------------------------------------------------
                                   SCF GRAD                          
                          Rob Parrish, Justin Turney,                
                       Andy Simmonett, and Alex Sokolov              
         ------------------------------------------------------------

  ==> Geometry <==

    Molecular point group: c1
    Full point group: C1

    Geometry (in Angstrom), charge = 1, multiplicity = 1:

       Center              X                  Y                   Z               Mass       
    ------------   -----------------  -----------------  -----------------  -----------------
         C            0.000000000000     0.000000000000    -0.177864000000    12.000000000000
         C            0.036678000000     1.219374000000     0.524165000000    12.000000000000
         C            0.031765000000     1.213120000000     1.915444000000    12.000000000000
         C            0.000000000000     0.000000000000     2.610107000000    12.000000000000
         C           -0.031765000000    -1.213120000000     1.915444000000    12.000000000000
         C           -0.036678000000    -1.219375000000     0.524165000000    12.000000000000
         C            0.000000000000     0.000000000000    -1.644734000000    12.000000000000
         H            0.018170000000     2.164705000000    -0.010854000000     1.007825032070
         H            0.042402000000     2.152895000000     2.457886000000     1.007825032070
         H            0.000000000000     0.000000000000     3.695756000000     1.007825032070
         H           -0.042402000000    -2.152895000000     2.457886000000     1.007825032070
         H           -0.018170000000    -2.164705000000    -0.010853000000     1.007825032070
         N            0.546037000000    -1.015073000000    -2.308461000000    14.003074004780
         N           -0.546037000000     1.015073000000    -2.308460000000    14.003074004780
         H           -0.653831000000     1.019312000000    -3.315997000000     1.007825032070
         H           -0.812421000000     1.855998000000    -1.813316000000     1.007825032070
         H            0.812421000000    -1.855998000000    -1.813317000000     1.007825032070
         H            0.653831000000    -1.019311000000    -3.315997000000     1.007825032070

  Nuclear repulsion =  417.249159493866728

  ==> Basis Set <==

  Basis Set: 6-31G*
    Blend: 6-31G*
    Number of shells: 72
    Number of basis function: 153
    Number of Cartesian functions: 153
    Spherical Harmonics?: false
    Max angular momentum: 2

  ==> DFJKGrad: Density-Fitted SCF Gradients <==

    Gradient:                    1
    J tasked:                  Yes
    K tasked:                  Yes
    wK tasked:                  No
    OpenMP threads:              4
    Integrals threads:           4
    Memory (MB):              2002
    Schwarz Cutoff:          0E+00
    Fitting Condition:       1E-12

   => Auxiliary Basis Set <=

  Basis Set: (6-31G* AUX)
    Blend: CC-PVDZ-JKFIT
    Number of shells: 297
    Number of basis function: 954
    Number of Cartesian functions: 954
    Spherical Harmonics?: false
    Max angular momentum: 3

  ==> DFT Potential <==

   => Composite Functional: B3LYP-D3ZERO <= 

    B3LYP-d3zero Hyb-GGA Exchange-Correlation Functional

    P. J. Stephens, F. J. Devlin, C. F. Chabalowski, and M. J. Frisch, J. Phys. Chem. 98, 11623 (1994)

    Deriv               =              1
    GGA                 =           TRUE
    Meta                =          FALSE

    Exchange Hybrid     =           TRUE
    MP2 Hybrid          =          FALSE

   => Exchange Functionals <=

    0.0800   Slater exchange
    0.7200         Becke 88

   => Exact (HF) Exchange <=

    0.2000               HF 

   => Correlation Functionals <=

    0.1900   Vosko, Wilk & Nusair (VWN5_RPA)
    0.8100   Lee, Yang & Parr

   => Molecular Quadrature <=

    Radial Scheme       =       TREUTLER
    Pruning Scheme      =           FLAT
    Nuclear Scheme      =       TREUTLER

    BS radius alpha     =              1
    Pruning alpha       =              1
    Radial Points       =             75
    Spherical Points    =            302
    Total Points        =         396706
    Total Blocks        =           2974
    Max Points          =            256
    Max Functions       =            149


  -Total Gradient:
     Atom            X                  Y                   Z
    ------   -----------------  -----------------  -----------------
       1       -0.000000023859     0.000000502058    -0.002315103410
       2        0.007800988817     0.003216530186    -0.000406014683
       3        0.000437699723    -0.000573738248     0.000191952169
       4       -0.000000000307    -0.000000069195     0.000354225226
       5       -0.000437691718     0.000573955443     0.000192048883
       6       -0.007800991707    -0.003217947295    -0.000406362451
       7       -0.000000103333     0.000000227161     0.001597323839
       8       -0.004417181762    -0.001027149128    -0.002248529391
       9       -0.000865348903     0.000046785995    -0.000013972032
      10       -0.000000000497     0.000000005778     0.000094302572
      11        0.000865347491    -0.000046786256    -0.000014033902
      12        0.004417158609     0.001027921850    -0.002248033238
      13        0.004103013003     0.001237618969     0.001225578702
      14       -0.004102742188    -0.001237953060     0.001226816168
      15       -0.003044976362    -0.001296374774    -0.000131916588
      16        0.004612196760     0.002067689304     0.001508745915
      17       -0.004612214678    -0.002067638999     0.001508796247
      18        0.003044870795     0.001296420213    -0.000131045536


*** tstop() called on arancio.prib.upf.edu at Sat Sep 29 20:52:18 2018
Module time:
	user time   =      24.80 seconds =       0.41 minutes
	system time =       0.20 seconds =       0.00 minutes
	total time  =          7 seconds =       0.12 minutes
Total time:
	user time   =     163.32 seconds =       2.72 minutes
	system time =       1.19 seconds =       0.02 minutes
	total time  =         46 seconds =       0.77 minutes

			-----------------------------------------
			 OPTKING 2.0: for geometry optimizations 
			  - R.A. King,  Bethel University        
			-----------------------------------------
	At level 2: Red. Int., RFO, backsteps, smaller trust.

	Internal coordinates to be generated automatically.
	Detected frag 1 with atoms:  1 2 3 4 5 6 7 8 9 10 11 12 13 14 15 16 17 18
	---Fragment 1 Bond Connectivity---
	 1 : 2 6 7
	 2 : 1 3 8
	 3 : 2 4 9
	 4 : 3 5 10
	 5 : 4 6 11
	 6 : 1 5 12
	 7 : 1 13 14
	 8 : 2
	 9 : 3
	 10 : 4
	 11 : 5
	 12 : 6
	 13 : 7 17 18
	 14 : 7 15 16
	 15 : 14
	 16 : 14
	 17 : 13
	 18 : 13

	Assuming in current code that numbering for constraints corresponds to unified fragment.
	Frozen dihedral atom list: 
	     2     1     7    13
	---Fragment 1 Geometry and Gradient---
	 C           0.0000000000        0.0000000000       -0.3361142489
	 C           0.0693113751        2.3042829136        0.9905282984
	 C           0.0600271506        2.2924645663        3.6196645829
	 C           0.0000000000        0.0000000000        4.9323874075
	 C          -0.0600271506       -2.2924645663        3.6196645829
	 C          -0.0693113751       -2.3042848033        0.9905282984
	 C           0.0000000000        0.0000000000       -3.1080968214
	 H           0.0343363238        4.0906996085       -0.0205110874
	 H           0.0801281675        4.0683819429        4.6447314059
	 H           0.0000000000        0.0000000000        6.9839666940
	 H          -0.0801281675       -4.0683819429        4.6447314059
	 H          -0.0343363238       -4.0906996085       -0.0205091977
	 N           1.0318603884       -1.9182099749       -4.3623590784
	 N          -1.0318603884        1.9182099749       -4.3623571887
	 H          -1.2355615272        1.9262205240       -6.2663261875
	 H          -1.5352531946        3.5073279232       -3.4266706324
	 H           1.5352531946       -3.5073279232       -3.4266725221
	 H           1.2355615272       -1.9262186342       -6.2663261875
	            -0.0000000239        0.0000005021       -0.0023151034
	             0.0078009888        0.0032165302       -0.0004060147
	             0.0004376997       -0.0005737382        0.0001919522
	            -0.0000000003       -0.0000000692        0.0003542252
	            -0.0004376917        0.0005739554        0.0001920489
	            -0.0078009917       -0.0032179473       -0.0004063625
	            -0.0000001033        0.0000002272        0.0015973238
	            -0.0044171818       -0.0010271491       -0.0022485294
	            -0.0008653489        0.0000467860       -0.0000139720
	            -0.0000000005        0.0000000058        0.0000943026
	             0.0008653475       -0.0000467863       -0.0000140339
	             0.0044171586        0.0010279218       -0.0022480332
	             0.0041030130        0.0012376190        0.0012255787
	            -0.0041027422       -0.0012379531        0.0012268162
	            -0.0030449764       -0.0012963748       -0.0001319166
	             0.0046121968        0.0020676893        0.0015087459
	            -0.0046122147       -0.0020676390        0.0015087962
	             0.0030448708        0.0012964202       -0.0001310455

	Previous optimization step data not found.  Starting new optimization.

	---Fragment 1 Intrafragment Coordinates---
	 - Coordinate -           - BOHR/RAD -       - ANG/DEG -
	 R(1,2)           =         2.659794	       1.407502
	 R(1,6)           =         2.659796	       1.407503
	 R(1,7)           =         2.771983	       1.466870
	 R(2,3)           =         2.629179	       1.391302
	 R(2,8)           =         2.052976	       1.086388
	 R(3,4)           =         2.642393	       1.398294
	 R(3,9)           =         2.050622	       1.085142
	 R(4,5)           =         2.642393	       1.398294
	 R(4,10)          =         2.051579	       1.085649
	 R(5,6)           =         2.629179	       1.391302
	 R(5,11)          =         2.050622	       1.085142
	 R(6,12)          =         2.052973	       1.086386
	 R(7,13)          =         2.513452	       1.330061
	 R(7,14)          =         2.513451	       1.330061
	 R(13,17)         =         1.911599	       1.011574
	 R(13,18)         =         1.914850	       1.013295
	 R(14,15)         =         1.914852	       1.013296
	 R(14,16)         =         1.911599	       1.011574
	 B(1,2,3)         =         2.088380	     119.655376
	 B(1,2,8)         =         2.103396	     120.515689
	 B(1,6,5)         =         2.088379	     119.655315
	 B(1,6,12)        =         2.103396	     120.515729
	 B(1,7,13)        =         2.093264	     119.935175
	 B(1,7,14)        =         2.093263	     119.935137
	 B(2,1,6)         =         2.097220	     120.161857
	 B(2,1,7)         =         2.092983	     119.919082
	 B(2,3,4)         =         2.095279	     120.050636
	 B(2,3,9)         =         2.089719	     119.732108
	 B(3,2,8)         =         2.090149	     119.756722
	 B(3,4,5)         =         2.101793	     120.423859
	 B(3,4,10)        =         2.090696	     119.788070
	 B(4,3,9)         =         2.098135	     120.214297
	 B(4,5,6)         =         2.095280	     120.050677
	 B(4,5,11)        =         2.098135	     120.214297
	 B(5,4,10)        =         2.090696	     119.788070
	 B(5,6,12)        =         2.090149	     119.756743
	 B(6,1,7)         =         2.092982	     119.919061
	 B(6,5,11)        =         2.089719	     119.732067
	 B(7,13,17)       =         2.092411	     119.886344
	 B(7,13,18)       =         2.144859	     122.891394
	 B(7,14,15)       =         2.144860	     122.891406
	 B(7,14,16)       =         2.092412	     119.886381
	 B(13,7,14)       =         2.096659	     120.129688
	 B(15,14,16)      =         2.043399	     117.078158
	 B(17,13,18)      =         2.043400	     117.078208
	 D(1,2,3,4)       =         0.007799	       0.446825
	 D(1,2,3,9)       =        -3.122896	    -178.928735
	 D(1,6,5,4)       =         0.007799	       0.446822
	 D(1,6,5,11)      =        -3.122896	    -178.928737
	 D(1,7,13,17)     =         0.187843	      10.762627
	 D(1,7,13,18)     =        -3.032164	    -173.730227
	 D(1,7,14,15)     =        -3.032165	    -173.730264
	 D(1,7,14,16)     =         0.187843	      10.762631
	 D(2,1,6,5)       =        -0.003906	      -0.223802
	 D(2,1,6,12)      =        -3.091437	    -177.126283
	*D(2,1,7,13)      =         2.617994	     150.000011
	 D(2,1,7,14)      =        -0.523599	     -29.999989
	 D(2,3,4,5)       =        -0.003942	      -0.225875
	 D(2,3,4,10)      =         3.137650	     179.774125
	 D(3,2,1,6)       =        -0.003906	      -0.223806
	 D(3,2,1,7)       =         3.137687	     179.776196
	 D(3,4,5,6)       =        -0.003942	      -0.225874
	 D(3,4,5,11)      =         3.126699	     179.146646
	 D(4,3,2,8)       =         3.095744	     177.373058
	 D(4,5,6,12)      =         3.095744	     177.373055
	 D(5,4,3,9)       =         3.126699	     179.146646
	 D(5,6,1,7)       =         3.137687	     179.776197
	 D(6,1,2,8)       =        -3.091437	    -177.126287
	 D(6,1,7,13)      =        -0.523599	     -29.999988
	 D(6,1,7,14)      =         2.617994	     150.000012
	 D(6,5,4,10)      =         3.137650	     179.774126
	 D(7,1,2,8)       =         0.050156	       2.873714
	 D(7,1,6,12)      =         0.050156	       2.873716
	 D(8,2,3,9)       =        -0.034950	      -2.002503
	 D(9,3,4,10)      =        -0.014894	      -0.853354
	 D(10,4,5,11)     =        -0.014894	      -0.853354
	 D(11,5,6,12)     =        -0.034950	      -2.002504
	 D(13,7,14,15)    =         0.109428	       6.269736
	 D(13,7,14,16)    =        -2.953749	    -169.237369
	 D(14,7,13,17)    =        -2.953749	    -169.237373
	 D(14,7,13,18)    =         0.109428	       6.269773

	Current energy   :      -381.4646568602

	Generating empirical Hessian (Schlegel '84) for each fragment.
	Taking RFO optimization step.
	Going to follow RFO solution 1.
	Using RFO vector 1.

	Determining step-restricting scale parameter for RS-RFO.
	Maximum step size allowed    0.20000

	 Iter      |step|        alpha        rfo_root  
	------------------------------------------------
	    0     0.45326       1.00000           1
	    1     0.31791       3.91159           1
	    2     0.24252       8.37465           1
	    3     0.20900      12.20539           1
	    4     0.20057      13.50093           1
	    5     0.20000      13.59348           1
	------------------------------------------------
	Norm of target step-size    0.20000
	Projected energy change by RFO approximation:        -0.0033037276

	Back-transformation to cartesian coordinates...
	Could not converge backtransformation.
	Using first guess instead.

	Back-transformation to cartesian coordinates to adjust frozen coordinates...
	Successfully converged to displaced geometry.

	--- Internal Coordinate Step in ANG or DEG, aJ/ANG or AJ/DEG ---
	 ---------------------------------------------------------------------------
	   Coordinate                Previous        Force       Change         New 
	   ----------                --------       ------       ------       ------
	    1 R(1,2)          =      1.407502     0.006686     0.000959     1.408461
	    2 R(1,6)          =      1.407503     0.006684     0.000949     1.408452
	    3 R(1,7)          =      1.466870     0.056107     0.008988     1.475858
	    4 R(2,3)          =      1.391302    -0.003457    -0.000428     1.390874
	    5 R(2,8)          =      1.086388    -0.002376     0.000358     1.086746
	    6 R(3,4)          =      1.398294    -0.010851    -0.001393     1.396901
	    7 R(3,9)          =      1.085142    -0.000210     0.000107     1.085250
	    8 R(4,5)          =      1.398294    -0.010848    -0.001408     1.396886
	    9 R(4,10)         =      1.085649    -0.000784    -0.000123     1.085526
	   10 R(5,6)          =      1.391302    -0.003452    -0.000378     1.390924
	   11 R(5,11)         =      1.085142    -0.000210     0.000203     1.085345
	   12 R(6,12)         =      1.086386    -0.002368     0.000353     1.086740
	   13 R(7,13)         =      1.330061     0.005070     0.000631     1.330693
	   14 R(7,14)         =      1.330061     0.005073     0.000714     1.330775
	   15 R(13,17)        =      1.011574    -0.010244     0.001166     1.012740
	   16 R(13,18)        =      1.013295    -0.003690     0.000608     1.013903
	   17 R(14,15)        =      1.013296    -0.003697     0.000150     1.013446
	   18 R(14,16)        =      1.011574    -0.010244     0.001077     1.012651
	   19 B(1,2,3)        =    119.655376     0.000142     0.417513   120.072889
	   20 B(1,2,8)        =    120.515689     0.000132     0.573438   121.089128
	   21 B(1,6,5)        =    119.655315     0.000142     0.418281   120.073596
	   22 B(1,6,12)       =    120.515729     0.000132     0.585365   121.101095
	   23 B(1,7,13)       =    119.935175     0.000255     0.660953   120.596127
	   24 B(1,7,14)       =    119.935137     0.000255     0.658629   120.593767
	   25 B(2,1,6)        =    120.161857    -0.000274    -0.720692   119.441165
	   26 B(2,1,7)        =    119.919082     0.000137     0.359254   120.278336
	   27 B(2,3,4)        =    120.050636     0.000019     0.026110   120.076746
	   28 B(2,3,9)        =    119.732108    -0.000008    -0.008476   119.723631
	   29 B(3,2,8)        =    119.756722    -0.000264    -0.920084   118.836638
	   30 B(3,4,5)        =    120.423859    -0.000046    -0.164960   120.258900
	   31 B(3,4,10)       =    119.788070     0.000023     0.083442   119.871512
	   32 B(4,3,9)        =    120.214297    -0.000011    -0.015041   120.199255
	   33 B(4,5,6)        =    120.050677     0.000019     0.024115   120.074792
	   34 B(4,5,11)       =    120.214297    -0.000010    -0.017644   120.196652
	   35 B(5,4,10)       =    119.788070     0.000023     0.081480   119.869550
	   36 B(5,6,12)       =    119.756743    -0.000264    -0.933314   118.823429
	   37 B(6,1,7)        =    119.919061     0.000137     0.359040   120.278101
	   38 B(6,5,11)       =    119.732067    -0.000008    -0.003682   119.728385
	   39 B(7,13,17)      =    119.886344     0.000196     0.693862   120.580206
	   40 B(7,13,18)      =    122.891394    -0.000102    -0.403497   122.487898
	   41 B(7,14,15)      =    122.891406    -0.000102    -0.410132   122.481274
	   42 B(7,14,16)      =    119.886381     0.000196     0.738113   120.624494
	   43 B(13,7,14)      =    120.129688    -0.000509    -1.322164   118.807523
	   44 B(15,14,16)     =    117.078158    -0.000088    -0.255246   116.822912
	   45 B(17,13,18)     =    117.078208    -0.000088    -0.217327   116.860882
	   46 D(1,2,3,4)      =      0.446825    -0.000016    -0.899606    -0.452781
	   47 D(1,2,3,9)      =   -178.928735    -0.000023    -1.303966  -180.232701
	   48 D(1,6,5,4)      =      0.446822    -0.000013    -0.690502    -0.243680
	   49 D(1,6,5,11)     =   -178.928737    -0.000021    -1.165147  -180.093885
	   50 D(1,7,13,17)    =     10.762627    -0.000074    -4.063904     6.698723
	   51 D(1,7,13,18)    =   -173.730227    -0.000050    -2.732746  -176.462972
	   52 D(1,7,14,15)    =   -173.730264    -0.000040    -2.131481  -175.861745
	   53 D(1,7,14,16)    =     10.762631    -0.000064    -3.454725     7.307907
	   54 D(2,1,6,5)      =     -0.223802     0.000003     0.138024    -0.085778
	   55 D(2,1,6,12)     =   -177.126283    -0.000042    -2.454730  -179.581013
	   56 *D(2,1,7,13)    =    150.000011     0.000000    -0.000000   150.000011
	   57 D(2,1,7,14)     =    -29.999989    -0.000010    -0.591592   -30.591581
	   58 D(2,3,4,5)      =     -0.225875     0.000006     0.347513     0.121638
	   59 D(2,3,4,10)     =    179.774125     0.000008     0.418609   180.192733
	   60 D(3,2,1,6)      =     -0.223806     0.000011     0.658161     0.434355
	   61 D(3,2,1,7)      =    179.776196     0.000002     0.096425   179.872621
	   62 D(3,4,5,6)      =     -0.225874     0.000008     0.454259     0.228384
	   63 D(3,4,5,11)     =    179.146646     0.000017     0.931235   180.077882
	   64 D(4,3,2,8)      =    177.373058     0.000033     1.756927   179.129985
	   65 D(4,5,6,12)     =    177.373055     0.000035     1.889937   179.262993
	   66 D(5,4,3,9)      =    179.146646     0.000014     0.753856   179.900503
	   67 D(5,6,1,7)      =    179.776197     0.000012     0.699758   180.475955
	   68 D(6,1,2,8)      =   -177.126287    -0.000035    -2.012557  -179.138844
	   69 D(6,1,7,13)     =    -29.999988    -0.000009    -0.566467   -30.566454
	   70 D(6,1,7,14)     =    150.000012    -0.000019    -1.158059   148.841953
	   71 D(6,5,4,10)     =    179.774126     0.000007     0.383165   180.157291
	   72 D(7,1,2,8)      =      2.873714    -0.000044    -2.574293     0.299421
	   73 D(7,1,6,12)     =      2.873716    -0.000033    -1.892995     0.980721
	   74 D(8,2,3,9)      =     -2.002503     0.000025     1.352567    -0.649936
	   75 D(9,3,4,10)     =     -0.853354     0.000015     0.824951    -0.028402
	   76 D(10,4,5,11)    =     -0.853354     0.000016     0.860141     0.006788
	   77 D(11,5,6,12)    =     -2.002504     0.000026     1.415292    -0.587212
	   78 D(13,7,14,15)   =      6.269736    -0.000050    -2.712630     3.557106
	   79 D(13,7,14,16)   =   -169.237369    -0.000074    -4.035874  -173.273243
	   80 D(14,7,13,17)   =   -169.237373    -0.000064    -3.482740  -172.720113
	   81 D(14,7,13,18)   =      6.269773    -0.000040    -2.151582     4.118191
	 ---------------------------------------------------------------------------
	Successfully symmetrized geometry.

  ==> Convergence Check <==

  Measures of convergence in internal coordinates in au.
  Criteria marked as inactive (o), active & met (*), and active & unmet ( ).
  --------------------------------------------------------------------------------------------- ~
   Step     Total Energy     Delta E     MAX Force     RMS Force      MAX Disp      RMS Disp    ~
  --------------------------------------------------------------------------------------------- ~
    Convergence Criteria    1.00e-06 *    3.00e-04 *             o    1.20e-03 *             o  ~
  --------------------------------------------------------------------------------------------- ~
      1    -381.46465686   -3.81e+02      6.81e-03      2.03e-03 o    7.09e-02      2.22e-02 o  ~
  ---------------------------------------------------------------------------------------------

	Writing optimization data to binary file.
	Structure for next step:
	Cartesian Geometry (in Angstrom)
	    C     0.0082792637   0.0010544929  -0.1739754022
	    C     0.0397364519   1.2166590701   0.5367137825
	    C     0.0392629744   1.2110630066   1.9275766589
	    C    -0.0019597526   0.0001364649   2.6227662846
	    C    -0.0403180723  -1.2102694208   1.9265355994
	    C    -0.0328228895  -1.2148792942   0.5356395251
	    C     0.0058114427   0.0017743742  -1.6498308813
	    H     0.0577412361   2.1705811186   0.0164009477
	    H     0.0674153149   2.1509244601   2.4694571694
	    H    -0.0053621091  -0.0002402297   3.7082871898
	    H    -0.0736039548  -2.1504896226   2.4676938793
	    H    -0.0509408062  -2.1684836734   0.0147617272
	    N     0.5525286073  -1.0038107008  -2.3285368030
	    N    -0.5535758694   1.0023963003  -2.3257034347
	    H    -0.6259578214   1.0029627383  -3.3365614112
	    H    -0.8867565235   1.8280543157  -1.8432705713
	    H     0.8869448594  -1.8292301314  -1.8463635474
	    H     0.6135776483  -1.0082032687  -3.3405907126
			--------------------------
			 OPTKING Finished Execution 
			--------------------------

    Structure for next step:
    Molecular point group: c1
    Full point group: C1

    Geometry (in Angstrom), charge = 1, multiplicity = 1:

    C            0.008279263704     0.001054492929    -0.173975402189
    C            0.039736451916     1.216659070070     0.536713782465
    C            0.039262974390     1.211063006568     1.927576658936
    C           -0.001959752556     0.000136464861     2.622766284553
    C           -0.040318072279    -1.210269420751     1.926535599378
    C           -0.032822889498    -1.214879294202     0.535639525103
    C            0.005811442731     0.001774374168    -1.649830881348
    H            0.057741236060     2.170581118584     0.016400947694
    H            0.067415314891     2.150924460071     2.469457169445
    H           -0.005362109085    -0.000240229667     3.708287189765
    H           -0.073603954811    -2.150489622605     2.467693879275
    H           -0.050940806181    -2.168483673440     0.014761727153
    N            0.552528607349    -1.003810700811    -2.328536802998
    N           -0.553575869376     1.002396300270    -2.325703434712
    H           -0.625957821421     1.002962738343    -3.336561411209
    H           -0.886756523466     1.828054315687    -1.843270571315
    H            0.886944859374    -1.829230131410    -1.846363547414
    H            0.613577648259    -1.008203268665    -3.340590712581

gradient() will perform analytic gradient computation.

*** tstart() called on arancio.prib.upf.edu
*** at Sat Sep 29 20:52:18 2018

   => Loading Basis Set <=

    Name: 6-31G*
    Role: ORBITAL
    Keyword: BASIS
    atoms 1-7         entry C          line   111 file /shared/joao/test_parameterize/miniconda3/share/psi4/basis/6-31gs.gbs 
    atoms 8-12, 15-18 entry H          line    44 file /shared/joao/test_parameterize/miniconda3/share/psi4/basis/6-31gs.gbs 
    atoms 13-14       entry N          line   128 file /shared/joao/test_parameterize/miniconda3/share/psi4/basis/6-31gs.gbs 


         ---------------------------------------------------------
                                   SCF
            by Justin Turney, Rob Parrish, Andy Simmonett
                             and Daniel Smith
                              RKS Reference
                        4 Threads,   2861 MiB Core
         ---------------------------------------------------------

  ==> Geometry <==

    Molecular point group: c1
    Full point group: C1

    Geometry (in Angstrom), charge = 1, multiplicity = 1:

       Center              X                  Y                   Z               Mass       
    ------------   -----------------  -----------------  -----------------  -----------------
         C            0.008279263704     0.001054492929    -0.173975402189    12.000000000000
         C            0.039736451916     1.216659070070     0.536713782465    12.000000000000
         C            0.039262974390     1.211063006568     1.927576658936    12.000000000000
         C           -0.001959752556     0.000136464861     2.622766284553    12.000000000000
         C           -0.040318072279    -1.210269420751     1.926535599378    12.000000000000
         C           -0.032822889498    -1.214879294202     0.535639525103    12.000000000000
         C            0.005811442731     0.001774374168    -1.649830881348    12.000000000000
         H            0.057741236060     2.170581118584     0.016400947694     1.007825032070
         H            0.067415314891     2.150924460071     2.469457169445     1.007825032070
         H           -0.005362109085    -0.000240229667     3.708287189765     1.007825032070
         H           -0.073603954811    -2.150489622605     2.467693879275     1.007825032070
         H           -0.050940806181    -2.168483673440     0.014761727153     1.007825032070
         N            0.552528607349    -1.003810700811    -2.328536802998    14.003074004780
         N           -0.553575869376     1.002396300270    -2.325703434712    14.003074004780
         H           -0.625957821421     1.002962738343    -3.336561411209     1.007825032070
         H           -0.886756523466     1.828054315687    -1.843270571315     1.007825032070
         H            0.886944859374    -1.829230131410    -1.846363547414     1.007825032070
         H            0.613577648259    -1.008203268665    -3.340590712581     1.007825032070

  Running in c1 symmetry.

  Rotational constants: A =      0.12266  B =      0.03946  C =      0.03078 [cm^-1]
  Rotational constants: A =   3677.25229  B =   1182.97885  C =    922.73983 [MHz]
  Nuclear repulsion =  416.320970560242358

  Charge       = 1
  Multiplicity = 1
  Electrons    = 64
  Nalpha       = 32
  Nbeta        = 32

  ==> Algorithm <==

  SCF Algorithm Type is DF.
  DIIS enabled.
  MOM disabled.
  Fractional occupation disabled.
  Guess Type is READ.
  Energy threshold   = 1.00e-08
  Density threshold  = 1.00e-08
  Integral threshold = 0.00e+00

  ==> Primary Basis <==

  Basis Set: 6-31G*
    Blend: 6-31G*
    Number of shells: 72
    Number of basis function: 153
    Number of Cartesian functions: 153
    Spherical Harmonics?: false
    Max angular momentum: 2

  ==> DFT Potential <==

   => Composite Functional: B3LYP-D3ZERO <= 

    B3LYP-d3zero Hyb-GGA Exchange-Correlation Functional

    P. J. Stephens, F. J. Devlin, C. F. Chabalowski, and M. J. Frisch, J. Phys. Chem. 98, 11623 (1994)

    Deriv               =              1
    GGA                 =           TRUE
    Meta                =          FALSE

    Exchange Hybrid     =           TRUE
    MP2 Hybrid          =          FALSE

   => Exchange Functionals <=

    0.0800   Slater exchange
    0.7200         Becke 88

   => Exact (HF) Exchange <=

    0.2000               HF 

   => Correlation Functionals <=

    0.1900   Vosko, Wilk & Nusair (VWN5_RPA)
    0.8100   Lee, Yang & Parr

   => Molecular Quadrature <=

    Radial Scheme       =       TREUTLER
    Pruning Scheme      =           FLAT
    Nuclear Scheme      =       TREUTLER

    BS radius alpha     =              1
    Pruning alpha       =              1
    Radial Points       =             75
    Spherical Points    =            302
    Total Points        =         396751
    Total Blocks        =           2977
    Max Points          =            256
    Max Functions       =            149

   => -D3ZERO: Empirical Dispersion <=

    Grimme's -D3 (zero-damping) Dispersion Correction
    Grimme S.; Antony J.; Ehrlich S.; Krieg H. (2010), J. Chem. Phys., 132: 154104

        S6 =   1.000000E+00
        S8 =   1.703000E+00
       SR6 =   1.261000E+00
       SR8 =   1.000000E+00
    ALPHA6 =   1.400000E+01

   => Loading Basis Set <=

    Name: (6-31G* AUX)
    Role: JKFIT
    Keyword: DF_BASIS_SCF
    atoms 1-7         entry C          line   121 file /shared/joao/test_parameterize/miniconda3/share/psi4/basis/cc-pvdz-jkfit.gbs 
    atoms 8-12, 15-18 entry H          line    51 file /shared/joao/test_parameterize/miniconda3/share/psi4/basis/cc-pvdz-jkfit.gbs 
    atoms 13-14       entry N          line   171 file /shared/joao/test_parameterize/miniconda3/share/psi4/basis/cc-pvdz-jkfit.gbs 

  Reading orbitals from file 180, no projection.

  ==> Pre-Iterations <==

   -------------------------------------------------------
    Irrep   Nso     Nmo     Nalpha   Nbeta   Ndocc  Nsocc
   -------------------------------------------------------
     A        153     153       0       0       0       0
   -------------------------------------------------------
    Total     153     153      32      32      32       0
   -------------------------------------------------------

  ==> Integral Setup <==

  ==> DiskDFJK: Density-Fitted J/K Matrices <==

    J tasked:                  Yes
    K tasked:                  Yes
    wK tasked:                  No
    OpenMP threads:              4
    Integrals threads:           4
    Memory (MB):              2002
    Algorithm:                Core
    Integral Cache:           NONE
    Schwarz Cutoff:          1E-12
    Fitting Condition:       1E-12

   => Auxiliary Basis Set <=

  Basis Set: (6-31G* AUX)
    Blend: CC-PVDZ-JKFIT
    Number of shells: 297
    Number of basis function: 954
    Number of Cartesian functions: 954
    Spherical Harmonics?: false
    Max angular momentum: 3

  Minimum eigenvalue in the overlap matrix is 4.7388604248E-04.
  Using Symmetric Orthogonalization.

  SCF Guess: Orbitals guess was supplied from a previous computation.

  ==> Iterations <==

                           Total Energy        Delta E     RMS |[F,P]|

   @DF-RKS iter   0:  -381.45611459016675   -3.81456e+02   7.42528e-04 
   @DF-RKS iter   1:  -381.46677659604256   -1.06620e-02   8.38817e-05 
   @DF-RKS iter   2:  -381.46678697066989   -1.03746e-05   8.83165e-05 DIIS
   @DF-RKS iter   3:  -381.46680901682407   -2.20462e-05   3.40827e-05 DIIS
   @DF-RKS iter   4:  -381.46681242901110   -3.41219e-06   1.41339e-05 DIIS
   @DF-RKS iter   5:  -381.46681301345751   -5.84446e-07   3.13736e-06 DIIS
   @DF-RKS iter   6:  -381.46681304252132   -2.90638e-08   8.18676e-07 DIIS
   @DF-RKS iter   7:  -381.46681304430132   -1.77999e-09   1.61314e-07 DIIS
   @DF-RKS iter   8:  -381.46681304436629   -6.49720e-11   6.46885e-08 DIIS
   @DF-RKS iter   9:  -381.46681304437647   -1.01750e-11   1.46604e-08 DIIS
   @DF-RKS iter  10:  -381.46681304437777   -1.30740e-12   7.72850e-09 DIIS

  ==> Post-Iterations <==

    Orbital Energies [Eh]
    ---------------------

    Doubly Occupied:                                                      

       1A    -14.568176     2A    -14.568164     3A    -10.499917  
       4A    -10.376785     5A    -10.358633     6A    -10.358537  
       7A    -10.342931     8A    -10.341121     9A    -10.341036  
      10A     -1.184819    11A     -1.091146    12A     -1.015287  
      13A     -0.927093    14A     -0.903634    15A     -0.847359  
      16A     -0.786864    17A     -0.775139    18A     -0.739720  
      19A     -0.736448    20A     -0.686983    21A     -0.669291  
      22A     -0.628883    23A     -0.616673    24A     -0.593163  
      25A     -0.580213    26A     -0.576681    27A     -0.517366  
      28A     -0.507832    29A     -0.499596    30A     -0.471375  
      31A     -0.410937    32A     -0.406264  

    Virtual:                                                              

      33A     -0.217656    34A     -0.156830    35A     -0.128654  
      36A     -0.113034    37A     -0.074181    38A     -0.068367  
      39A     -0.039462    40A     -0.034851    41A      0.010854  
      42A      0.022505    43A      0.027153    44A      0.063911  
      45A      0.071396    46A      0.079332    47A      0.119402  
      48A      0.142702    49A      0.156154    50A      0.173381  
      51A      0.212890    52A      0.242528    53A      0.298843  
      54A      0.349190    55A      0.350371    56A      0.376343  
      57A      0.390398    58A      0.397002    59A      0.421112  
      60A      0.421644    61A      0.442174    62A      0.450672  
      63A      0.451586    64A      0.470004    65A      0.471073  
[...]
	             0.0012521465        0.0010717120       -0.0000884011
	            -0.0000043892        0.0000017221       -0.0000025899
	            -0.0000008288        0.0000020485       -0.0000047245
	            -0.0000016389        0.0000008318       -0.0000022153
	            -0.0000004326       -0.0000025837       -0.0000049901
	            -0.0000058103       -0.0000000478        0.0000138925
	            -0.0013168631       -0.0007549853        0.0000272430
	            -0.0000625316        0.0000006760        0.0000192363
	             0.0000344501        0.0000071970        0.0000146204
	             0.0000559981       -0.0000307791       -0.0000172971
	            -0.0000423319        0.0000559023       -0.0000354974
	            -0.0000234719       -0.0000012923        0.0000158819

	---Fragment 1 Intrafragment Coordinates---
	 - Coordinate -           - BOHR/RAD -       - ANG/DEG -
	 R(1,2)           =         2.660934	       1.408105
	 R(1,6)           =         2.660884	       1.408079
	 R(1,7)           =         2.771143	       1.466426
	 R(2,3)           =         2.628345	       1.390860
	 R(2,8)           =         2.052976	       1.086388
	 R(3,4)           =         2.642455	       1.398327
	 R(3,9)           =         2.050580	       1.085120
	 R(4,5)           =         2.642094	       1.398136
	 R(4,10)          =         2.051578	       1.085648
	 R(5,6)           =         2.628723	       1.391060
	 R(5,11)          =         2.050592	       1.085127
	 R(6,12)          =         2.052661	       1.086222
	 R(7,13)          =         2.515122	       1.330945
	 R(7,14)          =         2.514670	       1.330706
	 R(13,17)         =         1.911100	       1.011311
	 R(13,18)         =         1.914507	       1.013114
	 R(14,15)         =         1.914520	       1.013120
	 R(14,16)         =         1.910974	       1.011244
	 B(1,2,3)         =         2.090871	     119.798084
	 B(1,2,8)         =         2.105121	     120.614555
	 B(1,6,5)         =         2.090553	     119.779843
	 B(1,6,12)        =         2.105777	     120.652124
	 B(1,7,13)        =         2.096601	     120.126400
	 B(1,7,14)        =         2.096351	     120.112074
	 B(2,1,6)         =         2.093270	     119.935521
	 B(2,1,7)         =         2.095708	     120.075206
	 B(2,3,4)         =         2.095219	     120.047234
	 B(2,3,9)         =         2.089643	     119.727747
	 B(3,2,8)         =         2.085540	     119.492651
	 B(3,4,5)         =         2.100918	     120.373724
	 B(3,4,10)        =         2.091094	     119.810873
	 B(4,3,9)         =         2.098270	     120.222004
	 B(4,5,6)         =         2.095481	     120.062219
	 B(4,5,11)        =         2.098250	     120.220849
	 B(5,4,10)        =         2.091172	     119.815304
	 B(5,6,12)        =         2.085477	     119.489058
	 B(6,1,7)         =         2.093809	     119.966394
	 B(6,5,11)        =         2.089363	     119.711669
	 B(7,13,17)       =         2.095383	     120.056605
	 B(7,13,18)       =         2.141734	     122.712311
	 B(7,14,15)       =         2.142192	     122.738540
	 B(7,14,16)       =         2.096179	     120.102212
	 B(13,7,14)       =         2.090075	     119.752480
	 B(15,14,16)      =         2.041569	     116.973301
	 B(17,13,18)      =         2.040624	     116.919164
	 D(1,2,3,4)       =        -0.008950	      -0.512825
	 D(1,2,3,9)       =         3.121643	     178.856953
	 D(1,6,5,4)       =         0.000156	       0.008929
	 D(1,6,5,11)      =         3.127216	     179.176287
	 D(1,7,13,17)     =        -0.226580	     -12.982075
	 D(1,7,13,18)     =         3.030456	     173.632354
	 D(1,7,14,15)     =         3.039649	     174.159034
	 D(1,7,14,16)     =        -0.191095	     -10.948944
	 D(2,1,6,5)       =        -0.008053	      -0.461427
	 D(2,1,6,12)      =         3.076853	     176.290673
	*D(2,1,7,13)      =         2.617994	     150.000011
	 D(2,1,7,14)      =        -0.542740	     -31.096733
	 D(2,3,4,5)       =         0.001052	       0.060271
	 D(2,3,4,10)      =        -3.138541	    -179.825176
	 D(3,2,1,6)       =         0.012460	       0.713906
	 D(3,2,1,7)       =         3.123679	     178.973637
	 D(3,4,5,6)       =         0.003386	       0.194006
	 D(3,4,5,11)      =        -3.123600	    -178.969075
	 D(4,3,2,8)       =        -3.089175	    -176.996668
	 D(4,5,6,12)      =        -3.085413	    -176.781163
	 D(5,4,3,9)       =        -3.129486	    -179.306363
	 D(5,6,1,7)       =        -3.119306	    -178.723067
	 D(6,1,2,8)       =         3.091984	     177.157633
	 D(6,1,7,13)      =        -0.553981	     -31.740799
	 D(6,1,7,14)      =         2.568469	     147.162457
	 D(6,5,4,10)      =        -3.140206	    -179.920552
	 D(7,1,2,8)       =        -0.079982	      -4.582636
	 D(7,1,6,12)      =        -0.034400	      -1.970967
	 D(8,2,3,9)       =         0.041419	       2.373110
	 D(9,3,4,10)      =         0.014106	       0.808190
	 D(10,4,5,11)     =         0.015994	       0.916367
	 D(11,5,6,12)     =         0.041647	       2.386195
	 D(13,7,14,15)    =        -0.121014	      -6.933595
	 D(13,7,14,16)    =         2.931428	     167.958427
	 D(14,7,13,17)    =         2.934085	     168.110713
	 D(14,7,13,18)    =        -0.092064	      -5.274859

	Current energy   :      -381.4703166222

	Energy change for the previous step:
		Projected    :        -0.0000027710
		Actual       :        -0.0000009549

	Performing BFGS update.
	Previous computed or guess Hessian on step 1.
	Steps to be used in Hessian update: 7 6
	Taking RFO optimization step.
	Going to follow RFO solution 1.
	Using RFO vector 1.
	Norm of target step-size    0.00518
	Projected energy change by RFO approximation:        -0.0000003544

	Back-transformation to cartesian coordinates...
	Successfully converged to displaced geometry.

	Back-transformation to cartesian coordinates to adjust frozen coordinates...
	Successfully converged to displaced geometry.

	--- Internal Coordinate Step in ANG or DEG, aJ/ANG or AJ/DEG ---
	 ---------------------------------------------------------------------------
	   Coordinate                Previous        Force       Change         New 
	   ----------                --------       ------       ------       ------
	    1 R(1,2)          =      1.408105     0.000175     0.000054     1.408159
	    2 R(1,6)          =      1.408079     0.000036     0.000028     1.408107
	    3 R(1,7)          =      1.466426    -0.000464    -0.000181     1.466244
	    4 R(2,3)          =      1.390860    -0.000046    -0.000016     1.390844
	    5 R(2,8)          =      1.086388    -0.000015    -0.000014     1.086374
	    6 R(3,4)          =      1.398327     0.000020     0.000003     1.398330
	    7 R(3,9)          =      1.085120    -0.000000    -0.000001     1.085120
	    8 R(4,5)          =      1.398136     0.000063     0.000015     1.398151
	    9 R(4,10)         =      1.085648     0.000008     0.000003     1.085651
	   10 R(5,6)          =      1.391060    -0.000132    -0.000038     1.391022
	   11 R(5,11)         =      1.085127    -0.000003    -0.000002     1.085125
	   12 R(6,12)         =      1.086222     0.000056     0.000005     1.086226
	   13 R(7,13)         =      1.330945     0.000244     0.000055     1.331000
	   14 R(7,14)         =      1.330706     0.000322     0.000065     1.330771
	   15 R(13,17)        =      1.011311     0.000643     0.000099     1.011410
	   16 R(13,18)        =      1.013114     0.000125     0.000019     1.013133
	   17 R(14,15)        =      1.013120     0.000113     0.000019     1.013140
	   18 R(14,16)        =      1.011244     0.000493     0.000080     1.011324
	   19 B(1,2,3)        =    119.798084    -0.000000    -0.001590   119.796494
	   20 B(1,2,8)        =    120.614555     0.000000    -0.003188   120.611368
	   21 B(1,6,5)        =    119.779843     0.000001     0.000835   119.780678
	   22 B(1,6,12)       =    120.652124    -0.000001    -0.010518   120.641606
	   23 B(1,7,13)       =    120.126400    -0.000003    -0.007036   120.119364
	   24 B(1,7,14)       =    120.112074     0.000002     0.009801   120.121875
	   25 B(2,1,6)        =    119.935521    -0.000000    -0.000017   119.935503
	   26 B(2,1,7)        =    120.075206     0.000002     0.003652   120.078858
	   27 B(2,3,4)        =    120.047234    -0.000000    -0.000415   120.046819
	   28 B(2,3,9)        =    119.727747     0.000000     0.004087   119.731833
	   29 B(3,2,8)        =    119.492651     0.000000     0.004551   119.497202
	   30 B(3,4,5)        =    120.373724     0.000000     0.002779   120.376503
	   31 B(3,4,10)       =    119.810873    -0.000000    -0.001152   119.809721
	   32 B(4,3,9)        =    120.222004    -0.000000    -0.003716   120.218288
	   33 B(4,5,6)        =    120.062219    -0.000000    -0.001492   120.060727
	   34 B(4,5,11)       =    120.220849    -0.000000    -0.003390   120.217459
	   35 B(5,4,10)       =    119.815304    -0.000000    -0.001609   119.813695
	   36 B(5,6,12)       =    119.489058     0.000001     0.010294   119.499352
	   37 B(6,1,7)        =    119.966394    -0.000001    -0.002447   119.963947
	   38 B(6,5,11)       =    119.711669     0.000000     0.004936   119.716605
	   39 B(7,13,17)      =    120.056605    -0.000000     0.003272   120.059876
	   40 B(7,13,18)      =    122.712311     0.000001    -0.004776   122.707536
	   41 B(7,14,15)      =    122.738540     0.000001    -0.005855   122.732685
	   42 B(7,14,16)      =    120.102212     0.000000     0.002261   120.104473
	   43 B(13,7,14)      =    119.752480     0.000001    -0.003794   119.748686
	   44 B(15,14,16)     =    116.973301    -0.000001    -0.013459   116.959842
	   45 B(17,13,18)     =    116.919164    -0.000001    -0.009696   116.909468
	   46 D(1,2,3,4)      =     -0.512825     0.000000     0.002642    -0.510183
	   47 D(1,2,3,9)      =    178.856953     0.000000    -0.002010   178.854943
	   48 D(1,6,5,4)      =      0.008929     0.000000    -0.002929     0.005999
	   49 D(1,6,5,11)     =    179.176287     0.000000     0.001353   179.177641
	   50 D(1,7,13,17)    =    -12.982075    -0.000000    -0.079313   -13.061387
	   51 D(1,7,13,18)    =    173.632354     0.000000     0.038582   173.670935
	   52 D(1,7,14,15)    =    174.159034     0.000001     0.129997   174.289032
	   53 D(1,7,14,16)    =    -10.948944    -0.000000    -0.099257   -11.048201
	   54 D(2,1,6,5)      =     -0.461427     0.000000     0.010899    -0.450528
	   55 D(2,1,6,12)     =    176.290673     0.000000     0.023813   176.314486
	   56 *D(2,1,7,13)    =    150.000011     0.000000     0.000000   150.000011
	   57 D(2,1,7,14)     =    -31.096733    -0.000000    -0.060690   -31.157424
	   58 D(2,3,4,5)      =      0.060271     0.000000     0.005376     0.065647
	   59 D(2,3,4,10)     =   -179.825176    -0.000000    -0.006116  -179.831291
	   60 D(3,2,1,6)      =      0.713906    -0.000000    -0.010757     0.703149
	   61 D(3,2,1,7)      =    178.973637     0.000000     0.034960   179.008597
	   62 D(3,4,5,6)      =      0.194006    -0.000000    -0.005217     0.188789
	   63 D(3,4,5,11)     =   -178.969075    -0.000000    -0.009592  -178.978667
	   64 D(4,3,2,8)      =   -176.996668     0.000000     0.006966  -176.989701
	   65 D(4,5,6,12)     =   -176.781163    -0.000000    -0.015018  -176.796181
	   66 D(5,4,3,9)      =   -179.306363     0.000000     0.010001  -179.296362
	   67 D(5,6,1,7)      =   -178.723067    -0.000000    -0.034872  -178.757939
	   68 D(6,1,2,8)      =    177.157633    -0.000000    -0.014854   177.142780
	   69 D(6,1,7,13)     =    -31.740799     0.000000     0.045773   -31.695026
	   70 D(6,1,7,14)     =    147.162457    -0.000000    -0.014918   147.147539
	   71 D(6,5,4,10)     =   -179.920552     0.000000     0.006276  -179.914277
	   72 D(7,1,2,8)      =     -4.582636     0.000000     0.030863    -4.551773
	   73 D(7,1,6,12)     =     -1.970967    -0.000000    -0.021958    -1.992925
	   74 D(8,2,3,9)      =      2.373110     0.000000     0.002315     2.375425
	   75 D(9,3,4,10)     =      0.808190    -0.000000    -0.001491     0.806699
	   76 D(10,4,5,11)    =      0.916367    -0.000000     0.001901     0.918268
	   77 D(11,5,6,12)    =      2.386195    -0.000000    -0.010735     2.375460
	   78 D(13,7,14,15)   =     -6.933595     0.000000     0.069496    -6.864098
	   79 D(13,7,14,16)   =    167.958427    -0.000001    -0.159759   167.798669
	   80 D(14,7,13,17)   =    168.110713     0.000000    -0.018999   168.091714
	   81 D(14,7,13,18)   =     -5.274859     0.000000     0.098895    -5.175964
	 ---------------------------------------------------------------------------
	Successfully symmetrized geometry.

  ==> Convergence Check <==

  Measures of convergence in internal coordinates in au.
  Criteria marked as inactive (o), active & met (*), and active & unmet ( ).
  ---------------------------------------------------------------------------------------------
   Step     Total Energy     Delta E     MAX Force     RMS Force      MAX Disp      RMS Disp   
  ---------------------------------------------------------------------------------------------
    Convergence Criteria    1.00e-06 *    3.00e-04 *             o    1.20e-03 *             o
  ---------------------------------------------------------------------------------------------
      8    -381.47031662   -9.55e-07 *    7.81e-05 *    1.79e-05 o    2.79e-03      5.76e-04 o  ~
  ---------------------------------------------------------------------------------------------


  **** Optimization is complete! (in 8 steps) ****

  ==> Optimization Summary <==

  Measures of convergence in internal coordinates in au.
  --------------------------------------------------------------------------------------------------------------- ~
   Step         Total Energy             Delta E       MAX Force       RMS Force        MAX Disp        RMS Disp  ~
  --------------------------------------------------------------------------------------------------------------- ~
      1    -381.464656860186   -381.464656860186      0.00681022      0.00202770      0.07092850      0.02221021  ~
      2    -381.466813044378     -0.002156184191      0.00346479      0.00118430      0.07835581      0.02223970  ~
      3    -381.468336217477     -0.001523173099      0.00270767      0.00087656      0.08562557      0.02219927  ~
      4    -381.469434306605     -0.001098089128      0.00252213      0.00064584      0.09004979      0.02218858  ~
      5    -381.470092162060     -0.000657855455      0.00259191      0.00047553      0.09417350      0.02219303  ~
      6    -381.470292833881     -0.000200671821      0.00257485      0.00041392      0.00870471      0.00284260  ~
      7    -381.470315667216     -0.000022833335      0.00021739      0.00004184      0.00458197      0.00100451  ~
      8    -381.470316622162     -0.000000954946      0.00007807      0.00001790      0.00278831      0.00057614  ~
  --------------------------------------------------------------------------------------------------------------- ~

	Writing optimization data to binary file.
	Final energy is   -381.4703166221624
	Final (previous) structure:
	Cartesian Geometry (in Angstrom)
	    C     0.0230645771   0.0013635396  -0.1774354543
	    C     0.0687662495   1.2192364553   0.5278713762
	    C     0.0586566323   1.2132993025   1.9186824281
	    C    -0.0075636267   0.0014583615   2.6132143561
	    C    -0.0626895354  -1.2100193181   1.9174649151
	    C    -0.0478290176  -1.2160684486   0.5264969733
	    C     0.0107124068   0.0013804238  -1.6438089328
	    H     0.1698257821   2.1621145034  -0.0022299318
	    H     0.1126845703   2.1515182877   2.4611880799
	    H    -0.0180990967   0.0014400043   3.6988115310
	    H    -0.1308692723  -2.1480697731   2.4586791301
	    H    -0.1439750117  -2.1583875543  -0.0051683060
	    N     0.5478115563  -1.0137966986  -2.3163824543
	    N    -0.5569487540   1.0059635970  -2.3066452326
	    H    -0.5135112889   1.0907726543  -3.3152746855
	    H    -1.1224524654   1.6837687179  -1.8132895093
	    H     1.1336678320  -1.6849776527  -1.8378034172
	    H     0.4787484623  -1.1009964018  -3.3233708659
	Saving final (previous) structure.
	Removing binary optimization data file.
			--------------------------
			 OPTKING Finished Execution 
			--------------------------

    Final optimized geometry and variables:
    Molecular point group: c1
    Full point group: C1

    Geometry (in Angstrom), charge = 1, multiplicity = 1:

    C            0.023064577114     0.001363539552    -0.177435454287
    C            0.068766249513     1.219236455284     0.527871376224
    C            0.058656632314     1.213299302547     1.918682428125
    C           -0.007563626679     0.001458361460     2.613214356101
    C           -0.062689535395    -1.210019318070     1.917464915141
    C           -0.047829017606    -1.216068448567     0.526496973284
    C            0.010712406752     0.001380423757    -1.643808932828
    H            0.169825782108     2.162114503354    -0.002229931792
    H            0.112684570275     2.151518287663     2.461188079896
    H           -0.018099096733     0.001440004284     3.698811530987
    H           -0.130869272265    -2.148069773080     2.458679130083
    H           -0.143975011694    -2.158387554274    -0.005168306035
    N            0.547811556274    -1.013796698641    -2.316382454342
    N           -0.556948754035     1.005963596967    -2.306645232603
    H           -0.513511288932     1.090772654300    -3.315274685508
    H           -1.122452465350     1.683768717921    -1.813289509322
    H            1.133667831999    -1.684977652655    -1.837803417220
    H            0.478748462341    -1.100996401802    -3.323370865904

	Removing binary optimization data file.
	Cleaning optimization helper files.


Properties will be evaluated at   0.000000,   0.000000,   0.000000 [a0]
OEProp: No title given, name of density matrix used for the following properties is 'SCF density'
  Nuclear Dipole Moment: [e a0]
     X:     0.3038      Y:     0.0118      Z:     0.1044

  Electronic Dipole Moment: [e a0]
     X:    -0.3089      Y:    -0.0115      Z:    -2.3333

  Dipole Moment: [e a0]
     X:    -0.0051      Y:     0.0004      Z:    -2.2289     Total:     2.2289

  Dipole Moment: [D]
     X:    -0.0130      Y:     0.0009      Z:    -5.6653     Total:     5.6653

  Quadrupole Moment: [D A]
    XX:   -51.2958     YY:   -36.1846     ZZ:   -13.1199
    XY:    -5.1499     XZ:    -0.0257     YZ:     0.0828

  Traceless Quadrupole Moment: [D A]
    XX:   -17.7624     YY:    -2.6512     ZZ:    20.4135
    XY:    -5.1499     XZ:    -0.0257     YZ:     0.0828

  Mulliken Charges: (a.u.)
   Center  Symbol    Alpha    Beta     Spin     Total
       1     C     2.95190  2.95190  0.00000  0.09620
       2     C     3.08423  3.08423  0.00000 -0.16845
       3     C     3.06252  3.06252  0.00000 -0.12503
       4     C     3.05133  3.05133  0.00000 -0.10266
       5     C     3.06215  3.06215  0.00000 -0.12429
       6     C     3.08276  3.08276  0.00000 -0.16552
       7     C     2.71803  2.71803  0.00000  0.56393
       8     H     0.41471  0.41471  0.00000  0.17059
       9     H     0.40530  0.40530  0.00000  0.18941
      10     H     0.40358  0.40358  0.00000  0.19283
      11     H     0.40528  0.40528  0.00000  0.18943
      12     H     0.41483  0.41483  0.00000  0.17034
      13     N     3.86602  3.86602  0.00000 -0.73203
      14     N     3.86553  3.86553  0.00000 -0.73107
      15     H     0.30576  0.30576  0.00000  0.38848
      16     H     0.30012  0.30012  0.00000  0.39977
      17     H     0.30019  0.30019  0.00000  0.39961
      18     H     0.30577  0.30577  0.00000  0.38847

   Total alpha = 32.00000, Total beta = 32.00000, Total charge =  1.00000


    Psi4 stopped on: Saturday, 29 September 2018 08:55PM
    Psi4 wall time for execution: 0:03:36.83

*** Psi4 exiting successfully. Buy a developer a beer!
