
    -----------------------------------------------------------------------
          Psi4: An Open-Source Ab Initio Electronic Structure Package
                               Psi4 1.2.1 release

                         Git: Rev {HEAD} 406f4de 


    R. M. Parrish, L. A. Burns, D. G. A. Smith, A. C. Simmonett,
    A. E. DePrince III, E. G. Hohenstein, U. Bozkaya, A. Yu. Sokolov,
    R. Di Remigio, R. M. Richard, J. F. Gonthier, A. M. James,
    H. R. McAlexander, A. Kumar, M. Saitow, X. Wang, B. P. Pritchard,
    P. Verma, H. F. Schaefer III, K. Patkowski, R. A. King, E. F. Valeev,
    F. A. Evangelista, J. M. Turney, T. D. Crawford, and C. D. Sherrill,
    J. Chem. Theory Comput. 13(7) pp 3185--3197 (2017).
    (doi: 10.1021/acs.jctc.7b00174)


                         Additional Contributions by
    P. Kraus, H. Kruse, M. H. Lechner, M. C. Schieber, and R. A. Shaw

    -----------------------------------------------------------------------


    Psi4 started on: Saturday, 29 September 2018 05:09PM

    Process ID: 13413
    Host:       loro.prib.upf.edu
    PSIDATADIR: /shared/joao/test_parameterize/miniconda3/share/psi4
    Memory:     500.0 MiB
    Threads:    1
    
  ==> Input File <==

--------------------------------------------------------------------------
set_num_threads(1)
set_memory('5348 MB')

set { scf_mem_safety_factor 0.7 }

set { reference rks }
set { basis cc-pVDZ }

molecule MOL {
    0 1
    noreorient
    nocom
    symmetry c1
    O    1.050400   0.042900  -0.048100
    C    2.474100   0.047400  -0.029000
    C    3.002600  -1.068900  -0.932000
    N    4.462700  -1.072400  -1.006800
    H    0.760400   0.728400   0.578000
    H    2.809900  -0.097900   1.003200
    H    2.817400   1.026800  -0.378600
    H    2.581000  -0.963300  -1.938400
    H    2.653800  -2.036400  -0.553400
    H    4.800484  -0.111677  -1.055740
    H    4.745250  -1.512266  -1.882548
}

set optking { frozen_dihedral = (" 2 3 4 10 ") }

energy, wfn = energy('B3LYP-D3', return_wfn=True)

import os
os.chdir(os.environ['HTMD_PSI4_WORKDIR'])

oeprop(wfn, 'DIPOLE', 'QUADRUPOLE', 'MULLIKEN_CHARGES')

with open('psi4out.xyz', 'w') as f:
    f.write('11 ' )
    f.write('%.12f\n' % energy)
    f.write(MOL.save_string_xyz())
--------------------------------------------------------------------------
  Threads set to 1 by Python driver.

  Memory set to   4.981 GiB by Python driver.

*** tstart() called on loro.prib.upf.edu
*** at Sat Sep 29 17:09:46 2018

   => Loading Basis Set <=

    Name: CC-PVDZ
    Role: ORBITAL
    Keyword: BASIS
    atoms 1    entry O          line   198 file /shared/joao/test_parameterize/miniconda3/share/psi4/basis/cc-pvdz.gbs 
    atoms 2-3  entry C          line   138 file /shared/joao/test_parameterize/miniconda3/share/psi4/basis/cc-pvdz.gbs 
    atoms 4    entry N          line   168 file /shared/joao/test_parameterize/miniconda3/share/psi4/basis/cc-pvdz.gbs 
    atoms 5-11 entry H          line    22 file /shared/joao/test_parameterize/miniconda3/share/psi4/basis/cc-pvdz.gbs 


         ---------------------------------------------------------
                                   SCF
            by Justin Turney, Rob Parrish, Andy Simmonett
                             and Daniel Smith
                              RKS Reference
                        1 Threads,   5100 MiB Core
         ---------------------------------------------------------

  ==> Geometry <==

    Molecular point group: c1
    Full point group: C1

    Geometry (in Angstrom), charge = 0, multiplicity = 1:

       Center              X                  Y                   Z               Mass       
    ------------   -----------------  -----------------  -----------------  -----------------
         O            1.050400000000     0.042900000000    -0.048100000000    15.994914619560
         C            2.474100000000     0.047400000000    -0.029000000000    12.000000000000
         C            3.002600000000    -1.068900000000    -0.932000000000    12.000000000000
         N            4.462700000000    -1.072400000000    -1.006800000000    14.003074004780
         H            0.760400000000     0.728400000000     0.578000000000     1.007825032070
         H            2.809900000000    -0.097900000000     1.003200000000     1.007825032070
         H            2.817400000000     1.026800000000    -0.378600000000     1.007825032070
         H            2.581000000000    -0.963300000000    -1.938400000000     1.007825032070
         H            2.653800000000    -2.036400000000    -0.553400000000     1.007825032070
         H            4.800484000000    -0.111677000000    -1.055740000000     1.007825032070
         H            4.745250000000    -1.512266000000    -1.882548000000     1.007825032070

  Running in c1 symmetry.

  Rotational constants: A =      0.72232  B =      0.02770  C =      0.02699 [cm^-1]
  Rotational constants: A =  21654.48731  B =    830.30530  C =    809.12868 [MHz]
  Nuclear repulsion =  130.571380080172872

  Charge       = 0
  Multiplicity = 1
  Electrons    = 34
  Nalpha       = 17
  Nbeta        = 17

  ==> Algorithm <==

  SCF Algorithm Type is DF.
  DIIS enabled.
  MOM disabled.
  Fractional occupation disabled.
  Guess Type is SAD.
  Energy threshold   = 1.00e-06
  Density threshold  = 1.00e-06
  Integral threshold = 0.00e+00

  ==> Primary Basis <==

  Basis Set: CC-PVDZ
    Blend: CC-PVDZ
    Number of shells: 45
    Number of basis function: 91
    Number of Cartesian functions: 95
    Spherical Harmonics?: true
    Max angular momentum: 2

  ==> DFT Potential <==

   => Composite Functional: B3LYP-D3ZERO <= 

    B3LYP-d3zero Hyb-GGA Exchange-Correlation Functional

    P. J. Stephens, F. J. Devlin, C. F. Chabalowski, and M. J. Frisch, J. Phys. Chem. 98, 11623 (1994)

    Deriv               =              1
    GGA                 =           TRUE
    Meta                =          FALSE

    Exchange Hybrid     =           TRUE
    MP2 Hybrid          =          FALSE

   => Exchange Functionals <=

    0.0800   Slater exchange
    0.7200         Becke 88

   => Exact (HF) Exchange <=

    0.2000               HF 

   => Correlation Functionals <=

    0.1900   Vosko, Wilk & Nusair (VWN5_RPA)
    0.8100   Lee, Yang & Parr

   => Molecular Quadrature <=

    Radial Scheme       =       TREUTLER
    Pruning Scheme      =           FLAT
    Nuclear Scheme      =       TREUTLER

    BS radius alpha     =              1
    Pruning alpha       =              1
    Radial Points       =             75
    Spherical Points    =            302
    Total Points        =         245073
    Total Blocks        =           1885
    Max Points          =            256
    Max Functions       =             91

   => -D3ZERO: Empirical Dispersion <=

    Grimme's -D3 (zero-damping) Dispersion Correction
    Grimme S.; Antony J.; Ehrlich S.; Krieg H. (2010), J. Chem. Phys., 132: 154104

        S6 =   1.000000E+00
        S8 =   1.703000E+00
       SR6 =   1.261000E+00
       SR8 =   1.000000E+00
    ALPHA6 =   1.400000E+01

   => Loading Basis Set <=

    Name: (CC-PVDZ AUX)
    Role: JKFIT
    Keyword: DF_BASIS_SCF
    atoms 1    entry O          line   221 file /shared/joao/test_parameterize/miniconda3/share/psi4/basis/cc-pvdz-jkfit.gbs 
    atoms 2-3  entry C          line   121 file /shared/joao/test_parameterize/miniconda3/share/psi4/basis/cc-pvdz-jkfit.gbs 
    atoms 4    entry N          line   171 file /shared/joao/test_parameterize/miniconda3/share/psi4/basis/cc-pvdz-jkfit.gbs 
    atoms 5-11 entry H          line    51 file /shared/joao/test_parameterize/miniconda3/share/psi4/basis/cc-pvdz-jkfit.gbs 

  ==> Pre-Iterations <==

   -------------------------------------------------------
    Irrep   Nso     Nmo     Nalpha   Nbeta   Ndocc  Nsocc
   -------------------------------------------------------
     A         91      91       0       0       0       0
   -------------------------------------------------------
    Total      91      91      17      17      17       0
   -------------------------------------------------------

  ==> Integral Setup <==

  DFHelper Memory: AOs need 0.036 [GiB]; user supplied 3.486 [GiB]. Using in-core AOs.

  ==> MemDFJK: Density-Fitted J/K Matrices <==

    J tasked:                   Yes
    K tasked:                   Yes
    wK tasked:                   No
    OpenMP threads:               1
    Memory (MB):               3570
    Algorithm:                 Core
    Schwarz Cutoff:           1E-12
    Mask sparsity (%):       0.3623
    Fitting Condition:        1E-12

   => Auxiliary Basis Set <=

  Basis Set: (CC-PVDZ AUX)
    Blend: CC-PVDZ-JKFIT
    Number of shells: 159
    Number of basis function: 441
    Number of Cartesian functions: 499
    Spherical Harmonics?: true
    Max angular momentum: 3

  Minimum eigenvalue in the overlap matrix is 4.5567303800E-03.
  Using Symmetric Orthogonalization.

  SCF Guess: Superposition of Atomic Densities via on-the-fly atomic UHF.

  ==> Iterations <==

                           Total Energy        Delta E     RMS |[F,P]|

   @DF-RKS iter   0:  -210.84641209487540   -2.10846e+02   3.67173e-02 
   @DF-RKS iter   1:  -210.21238602287710    6.34026e-01   7.07128e-03 
   @DF-RKS iter   2:  -210.06885408949992    1.43532e-01   9.66132e-03 DIIS
   @DF-RKS iter   3:  -210.38824547758307   -3.19391e-01   5.91328e-04 DIIS
   @DF-RKS iter   4:  -210.38897669298711   -7.31215e-04   3.69778e-04 DIIS
   @DF-RKS iter   5:  -210.38945915449133   -4.82462e-04   4.90008e-05 DIIS
   @DF-RKS iter   6:  -210.38946553057716   -6.37609e-06   2.32136e-05 DIIS
   @DF-RKS iter   7:  -210.38946750445751   -1.97388e-06   2.08257e-06 DIIS
   @DF-RKS iter   8:  -210.38946752029415   -1.58366e-08   6.20426e-07 DIIS

  ==> Post-Iterations <==

    Orbital Energies [Eh]
    ---------------------

    Doubly Occupied:                                                      

       1A    -19.129683     2A    -14.303567     3A    -10.228092  
       4A    -10.201399     5A     -1.012042     6A     -0.876714  
       7A     -0.712871     8A     -0.600859     9A     -0.508642  
      10A     -0.476786    11A     -0.466427    12A     -0.413463  
      13A     -0.380650    14A     -0.374370    15A     -0.324489  
      16A     -0.263493    17A     -0.229063  

    Virtual:                                                              

      18A      0.049182    19A      0.058320    20A      0.101260  
      21A      0.113280    22A      0.124982    23A      0.152122  
      24A      0.175054    25A      0.208315    26A      0.240407  
      27A      0.253140    28A      0.443543    29A      0.446964  
      30A      0.482745    31A      0.506872    32A      0.563660  
      33A      0.584439    34A      0.608477    35A      0.623410  
      36A      0.635639    37A      0.651574    38A      0.658983  
      39A      0.668397    40A      0.689928    41A      0.821776  
      42A      0.832621    43A      0.848264    44A      0.912763  
      45A      0.972716    46A      0.995056    47A      1.003776  
      48A      1.062295    49A      1.150597    50A      1.211990  
      51A      1.223674    52A      1.238949    53A      1.346717  
      54A      1.385956    55A      1.440439    56A      1.464484  
      57A      1.516556    58A      1.594906    59A      1.599072  
      60A      1.622677    61A      1.654547    62A      1.675702  
      63A      1.704766    64A      1.720863    65A      1.755705  
      66A      1.775292    67A      1.817900    68A      1.857203  
      69A      1.916163    70A      1.961019    71A      1.975344  
      72A      2.024873    73A      2.041835    74A      2.127317  
      75A      2.162816    76A      2.230859    77A      2.295268  
      78A      2.373980    79A      2.421539    80A      2.452511  
      81A      2.476952    82A      2.524792    83A      2.603396  
      84A      2.663175    85A      2.820242    86A      2.952918  
      87A      3.012938    88A      3.040485    89A      3.119211  
      90A      3.204575    91A      3.693684  

    Final Occupation by Irrep:
              A 
    DOCC [    17 ]

  Energy converged.

  @DF-RKS Final Energy:  -210.38946752029415

   => Energetics <=

    Nuclear Repulsion Energy =            130.5713800801728723
    One-Electron Energy =                -544.0339896334087371
    Two-Electron Energy =                 226.5651191410944136
    DFT Exchange-Correlation Energy =     -23.4870615181526468
    Empirical Dispersion Energy =          -0.0049155900000000
    VV10 Nonlocal Energy =                  0.0000000000000000
    Total Energy =                       -210.3894675202941187



Properties will be evaluated at   0.000000,   0.000000,   0.000000 [a0]

Properties computed using the SCF density matrix

  Nuclear Dipole Moment: [e a0]
     X:   177.0117      Y:   -30.7249      Z:   -32.9302

  Electronic Dipole Moment: [e a0]
     X:  -176.8547      Y:    31.3384      Z:    32.8572

  Dipole Moment: [e a0]
     X:     0.1569      Y:     0.6134      Z:    -0.0729     Total:     0.6374

  Dipole Moment: [D]
     X:     0.3988      Y:     1.5592      Z:    -0.1853     Total:     1.6200


*** tstop() called on loro.prib.upf.edu at Sat Sep 29 17:10:04 2018
Module time:
	user time   =      14.89 seconds =       0.25 minutes
	system time =       0.24 seconds =       0.00 minutes
	total time  =         18 seconds =       0.30 minutes
Total time:
	user time   =      14.89 seconds =       0.25 minutes
	system time =       0.24 seconds =       0.00 minutes
	total time  =         18 seconds =       0.30 minutes


Properties will be evaluated at   0.000000,   0.000000,   0.000000 [a0]
OEProp: No title given, name of density matrix used for the following properties is 'SCF density'
  Nuclear Dipole Moment: [e a0]
     X:   177.0117      Y:   -30.7249      Z:   -32.9302

  Electronic Dipole Moment: [e a0]
     X:  -176.8547      Y:    31.3384      Z:    32.8572

  Dipole Moment: [e a0]
     X:     0.1569      Y:     0.6134      Z:    -0.0729     Total:     0.6374

  Dipole Moment: [D]
     X:     0.3988      Y:     1.5592      Z:    -0.1853     Total:     1.6200

  Quadrupole Moment: [D A]
    XX:   -25.5528     YY:   -25.0596     ZZ:   -22.4131
    XY:     3.8473     XZ:    -5.2091     YZ:     2.1978

  Traceless Quadrupole Moment: [D A]
    XX:    -1.2110     YY:    -0.7178     ZZ:     1.9287
    XY:     3.8473     XZ:    -5.2091     YZ:     2.1978

  Mulliken Charges: (a.u.)
   Center  Symbol    Alpha    Beta     Spin     Total
       1     O     4.13809  4.13809  0.00000 -0.27618
       2     C     2.93706  2.93706  0.00000  0.12588
       3     C     2.97862  2.97862  0.00000  0.04277
       4     N     3.59400  3.59400  0.00000 -0.18800
       5     H     0.42985  0.42985  0.00000  0.14030
       6     H     0.49684  0.49684  0.00000  0.00632
       7     H     0.50390  0.50390  0.00000 -0.00780
       8     H     0.50010  0.50010  0.00000 -0.00020
       9     H     0.49000  0.49000  0.00000  0.02000
      10     H     0.46821  0.46821  0.00000  0.06358
      11     H     0.46334  0.46334  0.00000  0.07333

   Total alpha = 17.00000, Total beta = 17.00000, Total charge =  0.00000


    Psi4 stopped on: Saturday, 29 September 2018 05:10PM
    Psi4 wall time for execution: 0:00:17.65

*** Psi4 exiting successfully. Buy a developer a beer!
