
    -----------------------------------------------------------------------
          Psi4: An Open-Source Ab Initio Electronic Structure Package
                               Psi4 1.2.1 release

                         Git: Rev {HEAD} 406f4de 


    R. M. Parrish, L. A. Burns, D. G. A. Smith, A. C. Simmonett,
    A. E. DePrince III, E. G. Hohenstein, U. Bozkaya, A. Yu. Sokolov,
    R. Di Remigio, R. M. Richard, J. F. Gonthier, A. M. James,
    H. R. McAlexander, A. Kumar, M. Saitow, X. Wang, B. P. Pritchard,
    P. Verma, H. F. Schaefer III, K. Patkowski, R. A. King, E. F. Valeev,
    F. A. Evangelista, J. M. Turney, T. D. Crawford, and C. D. Sherrill,
    J. Chem. Theory Comput. 13(7) pp 3185--3197 (2017).
    (doi: 10.1021/acs.jctc.7b00174)


                         Additional Contributions by
    P. Kraus, H. Kruse, M. H. Lechner, M. C. Schieber, and R. A. Shaw

    -----------------------------------------------------------------------


    Psi4 started on: Saturday, 29 September 2018 05:10PM

    Process ID: 13875
    Host:       loro.prib.upf.edu
    PSIDATADIR: /shared/joao/test_parameterize/miniconda3/share/psi4
    Memory:     500.0 MiB
    Threads:    1
    
  ==> Input File <==

--------------------------------------------------------------------------
set_num_threads(1)
set_memory('5348 MB')

set { scf_mem_safety_factor 0.7 }

set { reference rks }
set { basis cc-pVDZ }

molecule MOL {
    0 1
    noreorient
    nocom
    symmetry c1
    O    1.050400   0.042900  -0.048100
    C    2.474100   0.047400  -0.029000
    C    3.002600  -1.068900  -0.932000
    N    4.462700  -1.072400  -1.006800
    H    0.766126   0.961802   0.096185
    H    2.809900  -0.097900   1.003200
    H    2.817400   1.026800  -0.378600
    H    2.581000  -0.963300  -1.938400
    H    2.653800  -2.036400  -0.553400
    H    4.779000  -0.221000  -1.470000
    H    4.758600  -1.842500  -1.606500
}

set optking { frozen_dihedral = (" 3 2 1 5 ") }

energy, wfn = energy('B3LYP-D3', return_wfn=True)

import os
os.chdir(os.environ['HTMD_PSI4_WORKDIR'])

oeprop(wfn, 'DIPOLE', 'QUADRUPOLE', 'MULLIKEN_CHARGES')

with open('psi4out.xyz', 'w') as f:
    f.write('11 ' )
    f.write('%.12f\n' % energy)
    f.write(MOL.save_string_xyz())
--------------------------------------------------------------------------
  Threads set to 1 by Python driver.

  Memory set to   4.981 GiB by Python driver.

*** tstart() called on loro.prib.upf.edu
*** at Sat Sep 29 17:10:24 2018

   => Loading Basis Set <=

    Name: CC-PVDZ
    Role: ORBITAL
    Keyword: BASIS
    atoms 1    entry O          line   198 file /shared/joao/test_parameterize/miniconda3/share/psi4/basis/cc-pvdz.gbs 
    atoms 2-3  entry C          line   138 file /shared/joao/test_parameterize/miniconda3/share/psi4/basis/cc-pvdz.gbs 
    atoms 4    entry N          line   168 file /shared/joao/test_parameterize/miniconda3/share/psi4/basis/cc-pvdz.gbs 
    atoms 5-11 entry H          line    22 file /shared/joao/test_parameterize/miniconda3/share/psi4/basis/cc-pvdz.gbs 


         ---------------------------------------------------------
                                   SCF
            by Justin Turney, Rob Parrish, Andy Simmonett
                             and Daniel Smith
                              RKS Reference
                        1 Threads,   5100 MiB Core
         ---------------------------------------------------------

  ==> Geometry <==

    Molecular point group: c1
    Full point group: C1

    Geometry (in Angstrom), charge = 0, multiplicity = 1:

       Center              X                  Y                   Z               Mass       
    ------------   -----------------  -----------------  -----------------  -----------------
         O            1.050400000000     0.042900000000    -0.048100000000    15.994914619560
         C            2.474100000000     0.047400000000    -0.029000000000    12.000000000000
         C            3.002600000000    -1.068900000000    -0.932000000000    12.000000000000
         N            4.462700000000    -1.072400000000    -1.006800000000    14.003074004780
         H            0.766126000000     0.961802000000     0.096185000000     1.007825032070
         H            2.809900000000    -0.097900000000     1.003200000000     1.007825032070
         H            2.817400000000     1.026800000000    -0.378600000000     1.007825032070
         H            2.581000000000    -0.963300000000    -1.938400000000     1.007825032070
         H            2.653800000000    -2.036400000000    -0.553400000000     1.007825032070
         H            4.779000000000    -0.221000000000    -1.470000000000     1.007825032070
         H            4.758600000000    -1.842500000000    -1.606500000000     1.007825032070

  Running in c1 symmetry.

  Rotational constants: A =      0.72072  B =      0.02762  C =      0.02695 [cm^-1]
  Rotational constants: A =  21606.78307  B =    828.11302  C =    808.08063 [MHz]
  Nuclear repulsion =  130.447917626793895

  Charge       = 0
  Multiplicity = 1
  Electrons    = 34
  Nalpha       = 17
  Nbeta        = 17

  ==> Algorithm <==

  SCF Algorithm Type is DF.
  DIIS enabled.
  MOM disabled.
  Fractional occupation disabled.
  Guess Type is SAD.
  Energy threshold   = 1.00e-06
  Density threshold  = 1.00e-06
  Integral threshold = 0.00e+00

  ==> Primary Basis <==

  Basis Set: CC-PVDZ
    Blend: CC-PVDZ
    Number of shells: 45
    Number of basis function: 91
    Number of Cartesian functions: 95
    Spherical Harmonics?: true
    Max angular momentum: 2

  ==> DFT Potential <==

   => Composite Functional: B3LYP-D3ZERO <= 

    B3LYP-d3zero Hyb-GGA Exchange-Correlation Functional

    P. J. Stephens, F. J. Devlin, C. F. Chabalowski, and M. J. Frisch, J. Phys. Chem. 98, 11623 (1994)

    Deriv               =              1
    GGA                 =           TRUE
    Meta                =          FALSE

    Exchange Hybrid     =           TRUE
    MP2 Hybrid          =          FALSE

   => Exchange Functionals <=

    0.0800   Slater exchange
    0.7200         Becke 88

   => Exact (HF) Exchange <=

    0.2000               HF 

   => Correlation Functionals <=

    0.1900   Vosko, Wilk & Nusair (VWN5_RPA)
    0.8100   Lee, Yang & Parr

   => Molecular Quadrature <=

    Radial Scheme       =       TREUTLER
    Pruning Scheme      =           FLAT
    Nuclear Scheme      =       TREUTLER

    BS radius alpha     =              1
    Pruning alpha       =              1
    Radial Points       =             75
    Spherical Points    =            302
    Total Points        =         245080
    Total Blocks        =           1897
    Max Points          =            256
    Max Functions       =             91

   => -D3ZERO: Empirical Dispersion <=

    Grimme's -D3 (zero-damping) Dispersion Correction
    Grimme S.; Antony J.; Ehrlich S.; Krieg H. (2010), J. Chem. Phys., 132: 154104

        S6 =   1.000000E+00
        S8 =   1.703000E+00
       SR6 =   1.261000E+00
       SR8 =   1.000000E+00
    ALPHA6 =   1.400000E+01

   => Loading Basis Set <=

    Name: (CC-PVDZ AUX)
    Role: JKFIT
    Keyword: DF_BASIS_SCF
    atoms 1    entry O          line   221 file /shared/joao/test_parameterize/miniconda3/share/psi4/basis/cc-pvdz-jkfit.gbs 
    atoms 2-3  entry C          line   121 file /shared/joao/test_parameterize/miniconda3/share/psi4/basis/cc-pvdz-jkfit.gbs 
    atoms 4    entry N          line   171 file /shared/joao/test_parameterize/miniconda3/share/psi4/basis/cc-pvdz-jkfit.gbs 
    atoms 5-11 entry H          line    51 file /shared/joao/test_parameterize/miniconda3/share/psi4/basis/cc-pvdz-jkfit.gbs 

  ==> Pre-Iterations <==

   -------------------------------------------------------
    Irrep   Nso     Nmo     Nalpha   Nbeta   Ndocc  Nsocc
   -------------------------------------------------------
     A         91      91       0       0       0       0
   -------------------------------------------------------
    Total      91      91      17      17      17       0
   -------------------------------------------------------

  ==> Integral Setup <==

  DFHelper Memory: AOs need 0.036 [GiB]; user supplied 3.486 [GiB]. Using in-core AOs.

  ==> MemDFJK: Density-Fitted J/K Matrices <==

    J tasked:                   Yes
    K tasked:                   Yes
    wK tasked:                   No
    OpenMP threads:               1
    Memory (MB):               3570
    Algorithm:                 Core
    Schwarz Cutoff:           1E-12
    Mask sparsity (%):       0.4830
    Fitting Condition:        1E-12

   => Auxiliary Basis Set <=

  Basis Set: (CC-PVDZ AUX)
    Blend: CC-PVDZ-JKFIT
    Number of shells: 159
    Number of basis function: 441
    Number of Cartesian functions: 499
    Spherical Harmonics?: true
    Max angular momentum: 3

  Minimum eigenvalue in the overlap matrix is 4.5686083015E-03.
  Using Symmetric Orthogonalization.

  SCF Guess: Superposition of Atomic Densities via on-the-fly atomic UHF.

  ==> Iterations <==

                           Total Energy        Delta E     RMS |[F,P]|

   @DF-RKS iter   0:  -210.80021891539826   -2.10800e+02   3.66329e-02 
   @DF-RKS iter   1:  -210.22087543027379    5.79343e-01   6.91656e-03 
   @DF-RKS iter   2:  -210.08528133430133    1.35594e-01   9.40957e-03 DIIS
   @DF-RKS iter   3:  -210.38945002405049   -3.04169e-01   5.57323e-04 DIIS
   @DF-RKS iter   4:  -210.39010165913999   -6.51635e-04   3.47838e-04 DIIS
   @DF-RKS iter   5:  -210.39053160523011   -4.29946e-04   4.75637e-05 DIIS
   @DF-RKS iter   6:  -210.39053757879378   -5.97356e-06   2.30756e-05 DIIS
   @DF-RKS iter   7:  -210.39053952539950   -1.94661e-06   1.93152e-06 DIIS
   @DF-RKS iter   8:  -210.39053953850927   -1.31098e-08   5.79336e-07 DIIS

  ==> Post-Iterations <==

    Orbital Energies [Eh]
    ---------------------

    Doubly Occupied:                                                      

       1A    -19.127264     2A    -14.304530     3A    -10.223985  
       4A    -10.200849     5A     -1.009847     6A     -0.876420  
       7A     -0.711766     8A     -0.597538     9A     -0.509107  
      10A     -0.481792    11A     -0.458413    12A     -0.408187  
      13A     -0.391035    14A     -0.366944    15A     -0.321260  
      16A     -0.261413    17A     -0.230871  

    Virtual:                                                              

      18A      0.049367    19A      0.056135    20A      0.102710  
      21A      0.115217    22A      0.128396    23A      0.157230  
      24A      0.167877    25A      0.204201    26A      0.245020  
      27A      0.258965    28A      0.436075    29A      0.450973  
      30A      0.490696    31A      0.497373    32A      0.573520  
      33A      0.579702    34A      0.602874    35A      0.608397  
      36A      0.639678    37A      0.652775    38A      0.659690  
      39A      0.678747    40A      0.697582    41A      0.817965  
      42A      0.833423    43A      0.844559    44A      0.918165  
      45A      0.959526    46A      1.002236    47A      1.017691  
      48A      1.062060    49A      1.174845    50A      1.210195  
      51A      1.217182    52A      1.256879    53A      1.308508  
      54A      1.388412    55A      1.418796    56A      1.479896  
      57A      1.519851    58A      1.607855    59A      1.617762  
      60A      1.643066    61A      1.648341    62A      1.656792  
      63A      1.711748    64A      1.739934    65A      1.749803  
      66A      1.771120    67A      1.820598    68A      1.852690  
      69A      1.880832    70A      1.946563    71A      2.017087  
      72A      2.024120    73A      2.037614    74A      2.129403  
      75A      2.157109    76A      2.244750    77A      2.278413  
      78A      2.369584    79A      2.399855    80A      2.440204  
      81A      2.487719    82A      2.537988    83A      2.611998  
      84A      2.682405    85A      2.827194    86A      2.949690  
      87A      3.008404    88A      3.048742    89A      3.123509  
      90A      3.207120    91A      3.690244  

    Final Occupation by Irrep:
              A 
    DOCC [    17 ]

  Energy converged.

  @DF-RKS Final Energy:  -210.39053953850927

   => Energetics <=

    Nuclear Repulsion Energy =            130.4479176267938954
    One-Electron Energy =                -543.8322179676571295
    Two-Electron Energy =                 226.4854395207721893
    DFT Exchange-Correlation Energy =     -23.4867563184182551
    Empirical Dispersion Energy =          -0.0049224000000000
    VV10 Nonlocal Energy =                  0.0000000000000000
    Total Energy =                       -210.3905395385092731



Properties will be evaluated at   0.000000,   0.000000,   0.000000 [a0]

Properties computed using the SCF density matrix

  Nuclear Dipole Moment: [e a0]
     X:   177.0071      Y:   -31.1145      Z:   -34.1018

  Electronic Dipole Moment: [e a0]
     X:  -176.8282      Y:    31.6501      Z:    33.6787

  Dipole Moment: [e a0]
     X:     0.1790      Y:     0.5356      Z:    -0.4232     Total:     0.7057

  Dipole Moment: [D]
     X:     0.4549      Y:     1.3613      Z:    -1.0756     Total:     1.7936


*** tstop() called on loro.prib.upf.edu at Sat Sep 29 17:10:42 2018
Module time:
	user time   =      15.15 seconds =       0.25 minutes
	system time =       0.22 seconds =       0.00 minutes
	total time  =         18 seconds =       0.30 minutes
Total time:
	user time   =      15.15 seconds =       0.25 minutes
	system time =       0.22 seconds =       0.00 minutes
	total time  =         18 seconds =       0.30 minutes


Properties will be evaluated at   0.000000,   0.000000,   0.000000 [a0]
OEProp: No title given, name of density matrix used for the following properties is 'SCF density'
  Nuclear Dipole Moment: [e a0]
     X:   177.0071      Y:   -31.1145      Z:   -34.1018

  Electronic Dipole Moment: [e a0]
     X:  -176.8282      Y:    31.6501      Z:    33.6787

  Dipole Moment: [e a0]
     X:     0.1790      Y:     0.5356      Z:    -0.4232     Total:     0.7057

  Dipole Moment: [D]
     X:     0.4549      Y:     1.3613      Z:    -1.0756     Total:     1.7936

  Quadrupole Moment: [D A]
    XX:   -25.3327     YY:   -22.4162     ZZ:   -23.3714
    XY:     1.1876     XZ:    -6.4407     YZ:     1.6420

  Traceless Quadrupole Moment: [D A]
    XX:    -1.6259     YY:     1.2906     ZZ:     0.3354
    XY:     1.1876     XZ:    -6.4407     YZ:     1.6420

  Mulliken Charges: (a.u.)
   Center  Symbol    Alpha    Beta     Spin     Total
       1     O     4.13944  4.13944  0.00000 -0.27887
       2     C     2.93002  2.93002  0.00000  0.13997
       3     C     2.98396  2.98396  0.00000  0.03207
       4     N     3.59345  3.59345  0.00000 -0.18690
       5     H     0.42937  0.42937  0.00000  0.14126
       6     H     0.49592  0.49592  0.00000  0.00816
       7     H     0.50504  0.50504  0.00000 -0.01009
       8     H     0.50347  0.50347  0.00000 -0.00694
       9     H     0.48921  0.48921  0.00000  0.02158
      10     H     0.46655  0.46655  0.00000  0.06690
      11     H     0.46357  0.46357  0.00000  0.07286

   Total alpha = 17.00000, Total beta = 17.00000, Total charge =  0.00000


    Psi4 stopped on: Saturday, 29 September 2018 05:10PM
    Psi4 wall time for execution: 0:00:18.29

*** Psi4 exiting successfully. Buy a developer a beer!
