
    -----------------------------------------------------------------------
          Psi4: An Open-Source Ab Initio Electronic Structure Package
                               Psi4 1.2.1 release

                         Git: Rev {HEAD} 406f4de 


    R. M. Parrish, L. A. Burns, D. G. A. Smith, A. C. Simmonett,
    A. E. DePrince III, E. G. Hohenstein, U. Bozkaya, A. Yu. Sokolov,
    R. Di Remigio, R. M. Richard, J. F. Gonthier, A. M. James,
    H. R. McAlexander, A. Kumar, M. Saitow, X. Wang, B. P. Pritchard,
    P. Verma, H. F. Schaefer III, K. Patkowski, R. A. King, E. F. Valeev,
    F. A. Evangelista, J. M. Turney, T. D. Crawford, and C. D. Sherrill,
    J. Chem. Theory Comput. 13(7) pp 3185--3197 (2017).
    (doi: 10.1021/acs.jctc.7b00174)


                         Additional Contributions by
    P. Kraus, H. Kruse, M. H. Lechner, M. C. Schieber, and R. A. Shaw

    -----------------------------------------------------------------------


    Psi4 started on: Saturday, 29 September 2018 05:11PM

    Process ID: 14355
    Host:       loro.prib.upf.edu
    PSIDATADIR: /shared/joao/test_parameterize/miniconda3/share/psi4
    Memory:     500.0 MiB
    Threads:    1
    
  ==> Input File <==

--------------------------------------------------------------------------
set_num_threads(1)
set_memory('5348 MB')

set { scf_mem_safety_factor 0.7 }

set { reference rks }
set { basis cc-pVDZ }

molecule MOL {
    0 1
    noreorient
    nocom
    symmetry c1
    O    1.050400   0.042900  -0.048100
    C    2.474100   0.047400  -0.029000
    C    3.002600  -1.068900  -0.932000
    N    4.462700  -1.072400  -1.006800
    H    0.758293   0.373665   0.818664
    H    2.809900  -0.097900   1.003200
    H    2.817400   1.026800  -0.378600
    H    2.581000  -0.963300  -1.938400
    H    2.653800  -2.036400  -0.553400
    H    4.779000  -0.221000  -1.470000
    H    4.758600  -1.842500  -1.606500
}

set optking { frozen_dihedral = (" 3 2 1 5 ") }

energy, wfn = energy('B3LYP-D3', return_wfn=True)

import os
os.chdir(os.environ['HTMD_PSI4_WORKDIR'])

oeprop(wfn, 'DIPOLE', 'QUADRUPOLE', 'MULLIKEN_CHARGES')

with open('psi4out.xyz', 'w') as f:
    f.write('11 ' )
    f.write('%.12f\n' % energy)
    f.write(MOL.save_string_xyz())
--------------------------------------------------------------------------
  Threads set to 1 by Python driver.

  Memory set to   4.981 GiB by Python driver.

*** tstart() called on loro.prib.upf.edu
*** at Sat Sep 29 17:11:02 2018

   => Loading Basis Set <=

    Name: CC-PVDZ
    Role: ORBITAL
    Keyword: BASIS
    atoms 1    entry O          line   198 file /shared/joao/test_parameterize/miniconda3/share/psi4/basis/cc-pvdz.gbs 
    atoms 2-3  entry C          line   138 file /shared/joao/test_parameterize/miniconda3/share/psi4/basis/cc-pvdz.gbs 
    atoms 4    entry N          line   168 file /shared/joao/test_parameterize/miniconda3/share/psi4/basis/cc-pvdz.gbs 
    atoms 5-11 entry H          line    22 file /shared/joao/test_parameterize/miniconda3/share/psi4/basis/cc-pvdz.gbs 


         ---------------------------------------------------------
                                   SCF
            by Justin Turney, Rob Parrish, Andy Simmonett
                             and Daniel Smith
                              RKS Reference
                        1 Threads,   5100 MiB Core
         ---------------------------------------------------------

  ==> Geometry <==

    Molecular point group: c1
    Full point group: C1

    Geometry (in Angstrom), charge = 0, multiplicity = 1:

       Center              X                  Y                   Z               Mass       
    ------------   -----------------  -----------------  -----------------  -----------------
         O            1.050400000000     0.042900000000    -0.048100000000    15.994914619560
         C            2.474100000000     0.047400000000    -0.029000000000    12.000000000000
         C            3.002600000000    -1.068900000000    -0.932000000000    12.000000000000
         N            4.462700000000    -1.072400000000    -1.006800000000    14.003074004780
         H            0.758293000000     0.373665000000     0.818664000000     1.007825032070
         H            2.809900000000    -0.097900000000     1.003200000000     1.007825032070
         H            2.817400000000     1.026800000000    -0.378600000000     1.007825032070
         H            2.581000000000    -0.963300000000    -1.938400000000     1.007825032070
         H            2.653800000000    -2.036400000000    -0.553400000000     1.007825032070
         H            4.779000000000    -0.221000000000    -1.470000000000     1.007825032070
         H            4.758600000000    -1.842500000000    -1.606500000000     1.007825032070

  Running in c1 symmetry.

  Rotational constants: A =      0.72395  B =      0.02762  C =      0.02696 [cm^-1]
  Rotational constants: A =  21703.33381  B =    828.15686  C =    808.25977 [MHz]
  Nuclear repulsion =  130.440007222031056

  Charge       = 0
  Multiplicity = 1
  Electrons    = 34
  Nalpha       = 17
  Nbeta        = 17

  ==> Algorithm <==

  SCF Algorithm Type is DF.
  DIIS enabled.
  MOM disabled.
  Fractional occupation disabled.
  Guess Type is SAD.
  Energy threshold   = 1.00e-06
  Density threshold  = 1.00e-06
  Integral threshold = 0.00e+00

  ==> Primary Basis <==

  Basis Set: CC-PVDZ
    Blend: CC-PVDZ
    Number of shells: 45
    Number of basis function: 91
    Number of Cartesian functions: 95
    Spherical Harmonics?: true
    Max angular momentum: 2

  ==> DFT Potential <==

   => Composite Functional: B3LYP-D3ZERO <= 

    B3LYP-d3zero Hyb-GGA Exchange-Correlation Functional

    P. J. Stephens, F. J. Devlin, C. F. Chabalowski, and M. J. Frisch, J. Phys. Chem. 98, 11623 (1994)

    Deriv               =              1
    GGA                 =           TRUE
    Meta                =          FALSE

    Exchange Hybrid     =           TRUE
    MP2 Hybrid          =          FALSE

   => Exchange Functionals <=

    0.0800   Slater exchange
    0.7200         Becke 88

   => Exact (HF) Exchange <=

    0.2000               HF 

   => Correlation Functionals <=

    0.1900   Vosko, Wilk & Nusair (VWN5_RPA)
    0.8100   Lee, Yang & Parr

   => Molecular Quadrature <=

    Radial Scheme       =       TREUTLER
    Pruning Scheme      =           FLAT
    Nuclear Scheme      =       TREUTLER

    BS radius alpha     =              1
    Pruning alpha       =              1
    Radial Points       =             75
    Spherical Points    =            302
    Total Points        =         245082
    Total Blocks        =           1886
    Max Points          =            256
    Max Functions       =             91

   => -D3ZERO: Empirical Dispersion <=

    Grimme's -D3 (zero-damping) Dispersion Correction
    Grimme S.; Antony J.; Ehrlich S.; Krieg H. (2010), J. Chem. Phys., 132: 154104

        S6 =   1.000000E+00
        S8 =   1.703000E+00
       SR6 =   1.261000E+00
       SR8 =   1.000000E+00
    ALPHA6 =   1.400000E+01

   => Loading Basis Set <=

    Name: (CC-PVDZ AUX)
    Role: JKFIT
    Keyword: DF_BASIS_SCF
    atoms 1    entry O          line   221 file /shared/joao/test_parameterize/miniconda3/share/psi4/basis/cc-pvdz-jkfit.gbs 
    atoms 2-3  entry C          line   121 file /shared/joao/test_parameterize/miniconda3/share/psi4/basis/cc-pvdz-jkfit.gbs 
    atoms 4    entry N          line   171 file /shared/joao/test_parameterize/miniconda3/share/psi4/basis/cc-pvdz-jkfit.gbs 
    atoms 5-11 entry H          line    51 file /shared/joao/test_parameterize/miniconda3/share/psi4/basis/cc-pvdz-jkfit.gbs 

  ==> Pre-Iterations <==

   -------------------------------------------------------
    Irrep   Nso     Nmo     Nalpha   Nbeta   Ndocc  Nsocc
   -------------------------------------------------------
     A         91      91       0       0       0       0
   -------------------------------------------------------
    Total      91      91      17      17      17       0
   -------------------------------------------------------

  ==> Integral Setup <==

  DFHelper Memory: AOs need 0.036 [GiB]; user supplied 3.486 [GiB]. Using in-core AOs.

  ==> MemDFJK: Density-Fitted J/K Matrices <==

    J tasked:                   Yes
    K tasked:                   Yes
    wK tasked:                   No
    OpenMP threads:               1
    Memory (MB):               3570
    Algorithm:                 Core
    Schwarz Cutoff:           1E-12
    Mask sparsity (%):       0.5072
    Fitting Condition:        1E-12

   => Auxiliary Basis Set <=

  Basis Set: (CC-PVDZ AUX)
    Blend: CC-PVDZ-JKFIT
    Number of shells: 159
    Number of basis function: 441
    Number of Cartesian functions: 499
    Spherical Harmonics?: true
    Max angular momentum: 3

  Minimum eigenvalue in the overlap matrix is 4.5673929822E-03.
  Using Symmetric Orthogonalization.

  SCF Guess: Superposition of Atomic Densities via on-the-fly atomic UHF.

  ==> Iterations <==

                           Total Energy        Delta E     RMS |[F,P]|

   @DF-RKS iter   0:  -210.88769897383798   -2.10888e+02   3.67538e-02 
   @DF-RKS iter   1:  -210.20602768961936    6.81671e-01   7.22057e-03 
   @DF-RKS iter   2:  -210.05995902206411    1.46069e-01   9.82668e-03 DIIS
   @DF-RKS iter   3:  -210.38967772477827   -3.29719e-01   6.09157e-04 DIIS
   @DF-RKS iter   4:  -210.39043058884792   -7.52864e-04   3.87073e-04 DIIS
   @DF-RKS iter   5:  -210.39096052021040   -5.29931e-04   5.19673e-05 DIIS
   @DF-RKS iter   6:  -210.39096776878844   -7.24858e-06   2.40002e-05 DIIS
   @DF-RKS iter   7:  -210.39096986898642   -2.10020e-06   2.38249e-06 DIIS
   @DF-RKS iter   8:  -210.39096988973606   -2.07496e-08   6.51678e-07 DIIS

  ==> Post-Iterations <==

    Orbital Energies [Eh]
    ---------------------

    Doubly Occupied:                                                      

       1A    -19.127295     2A    -14.304317     3A    -10.223931  
       4A    -10.200819     5A     -1.009762     6A     -0.876237  
       7A     -0.711654     8A     -0.597580     9A     -0.508055  
      10A     -0.485399    11A     -0.448540    12A     -0.421246  
      13A     -0.387823    14A     -0.361207    15A     -0.323602  
      16A     -0.261893    17A     -0.230488  

    Virtual:                                                              

      18A      0.049725    19A      0.058304    20A      0.100142  
      21A      0.121132    22A      0.126033    23A      0.152085  
      24A      0.169399    25A      0.206482    26A      0.244765  
      27A      0.258711    28A      0.438450    29A      0.450430  
      30A      0.484136    31A      0.501723    32A      0.568208  
      33A      0.582318    34A      0.608406    35A      0.613285  
      36A      0.639239    37A      0.646815    38A      0.658362  
      39A      0.678661    40A      0.701741    41A      0.815226  
      42A      0.834208    43A      0.846563    44A      0.916916  
      45A      0.964638    46A      0.997465    47A      1.017744  
      48A      1.061492    49A      1.175166    50A      1.210550  
      51A      1.219119    52A      1.257121    53A      1.305052  
      54A      1.384125    55A      1.425707    56A      1.484204  
      57A      1.512726    58A      1.606536    59A      1.620252  
      60A      1.626514    61A      1.655912    62A      1.673312  
      63A      1.710447    64A      1.737705    65A      1.753271  
      66A      1.773926    67A      1.801386    68A      1.864206  
      69A      1.881334    70A      1.962023    71A      1.990298  
      72A      2.025617    73A      2.038579    74A      2.132060  
      75A      2.163639    76A      2.245907    77A      2.280673  
      78A      2.367886    79A      2.398648    80A      2.444893  
      81A      2.471312    82A      2.549436    83A      2.606357  
      84A      2.686833    85A      2.825435    86A      2.944436  
      87A      3.024541    88A      3.041451    89A      3.120287  
      90A      3.209043    91A      3.689293  

    Final Occupation by Irrep:
              A 
    DOCC [    17 ]

  Energy converged.

  @DF-RKS Final Energy:  -210.39096988973606

   => Energetics <=

    Nuclear Repulsion Energy =            130.4400072220310562
    One-Electron Energy =                -543.8200360021064625
    Two-Electron Energy =                 226.4805903372465821
    DFT Exchange-Correlation Energy =     -23.4866097169072319
    Empirical Dispersion Energy =          -0.0049217300000000
    VV10 Nonlocal Energy =                  0.0000000000000000
    Total Energy =                       -210.3909698897360556



Properties will be evaluated at   0.000000,   0.000000,   0.000000 [a0]

Properties computed using the SCF density matrix

  Nuclear Dipole Moment: [e a0]
     X:   176.9923      Y:   -32.2259      Z:   -32.7365

  Electronic Dipole Moment: [e a0]
     X:  -176.8182      Y:    32.4037      Z:    32.7526

  Dipole Moment: [e a0]
     X:     0.1741      Y:     0.1778      Z:     0.0160     Total:     0.2494

  Dipole Moment: [D]
     X:     0.4426      Y:     0.4518      Z:     0.0407     Total:     0.6338


*** tstop() called on loro.prib.upf.edu at Sat Sep 29 17:11:18 2018
Module time:
	user time   =      14.74 seconds =       0.25 minutes
	system time =       0.22 seconds =       0.00 minutes
	total time  =         16 seconds =       0.27 minutes
Total time:
	user time   =      14.74 seconds =       0.25 minutes
	system time =       0.22 seconds =       0.00 minutes
	total time  =         16 seconds =       0.27 minutes


Properties will be evaluated at   0.000000,   0.000000,   0.000000 [a0]
OEProp: No title given, name of density matrix used for the following properties is 'SCF density'
  Nuclear Dipole Moment: [e a0]
     X:   176.9923      Y:   -32.2259      Z:   -32.7365

  Electronic Dipole Moment: [e a0]
     X:  -176.8182      Y:    32.4037      Z:    32.7526

  Dipole Moment: [e a0]
     X:     0.1741      Y:     0.1778      Z:     0.0160     Total:     0.2494

  Dipole Moment: [D]
     X:     0.4426      Y:     0.4518      Z:     0.0407     Total:     0.6338

  Quadrupole Moment: [D A]
    XX:   -25.3301     YY:   -24.2343     ZZ:   -21.7486
    XY:     0.7073     XZ:    -5.8838     YZ:     2.0991

  Traceless Quadrupole Moment: [D A]
    XX:    -1.5591     YY:    -0.4633     ZZ:     2.0224
    XY:     0.7073     XZ:    -5.8838     YZ:     2.0991

  Mulliken Charges: (a.u.)
   Center  Symbol    Alpha    Beta     Spin     Total
       1     O     4.13942  4.13942  0.00000 -0.27884
       2     C     2.93034  2.93034  0.00000  0.13933
       3     C     2.98433  2.98433  0.00000  0.03133
       4     N     3.59407  3.59407  0.00000 -0.18814
       5     H     0.42919  0.42919  0.00000  0.14162
       6     H     0.49819  0.49819  0.00000  0.00362
       7     H     0.50264  0.50264  0.00000 -0.00527
       8     H     0.50041  0.50041  0.00000 -0.00081
       9     H     0.49219  0.49219  0.00000  0.01563
      10     H     0.46564  0.46564  0.00000  0.06873
      11     H     0.46360  0.46360  0.00000  0.07280

   Total alpha = 17.00000, Total beta = 17.00000, Total charge =  0.00000


    Psi4 stopped on: Saturday, 29 September 2018 05:11PM
    Psi4 wall time for execution: 0:00:16.92

*** Psi4 exiting successfully. Buy a developer a beer!
