
    -----------------------------------------------------------------------
          Psi4: An Open-Source Ab Initio Electronic Structure Package
                               Psi4 1.2.1 release

                         Git: Rev {HEAD} 406f4de 


    R. M. Parrish, L. A. Burns, D. G. A. Smith, A. C. Simmonett,
    A. E. DePrince III, E. G. Hohenstein, U. Bozkaya, A. Yu. Sokolov,
    R. Di Remigio, R. M. Richard, J. F. Gonthier, A. M. James,
    H. R. McAlexander, A. Kumar, M. Saitow, X. Wang, B. P. Pritchard,
    P. Verma, H. F. Schaefer III, K. Patkowski, R. A. King, E. F. Valeev,
    F. A. Evangelista, J. M. Turney, T. D. Crawford, and C. D. Sherrill,
    J. Chem. Theory Comput. 13(7) pp 3185--3197 (2017).
    (doi: 10.1021/acs.jctc.7b00174)


                         Additional Contributions by
    P. Kraus, H. Kruse, M. H. Lechner, M. C. Schieber, and R. A. Shaw

    -----------------------------------------------------------------------


    Psi4 started on: Saturday, 29 September 2018 05:09PM

    Process ID: 13487
    Host:       loro.prib.upf.edu
    PSIDATADIR: /shared/joao/test_parameterize/miniconda3/share/psi4
    Memory:     500.0 MiB
    Threads:    1
    
  ==> Input File <==

--------------------------------------------------------------------------
set_num_threads(1)
set_memory('5348 MB')

set { scf_mem_safety_factor 0.7 }

set { reference rks }
set { basis cc-pVDZ }

molecule MOL {
    0 1
    noreorient
    nocom
    symmetry c1
    O    1.050400   0.042900  -0.048100
    C    2.474100   0.047400  -0.029000
    C    3.002600  -1.068900  -0.932000
    N    4.462700  -1.072400  -1.006800
    H    0.760400   0.728400   0.578000
    H    2.809900  -0.097900   1.003200
    H    2.817400   1.026800  -0.378600
    H    2.581000  -0.963300  -1.938400
    H    2.653800  -2.036400  -0.553400
    H    4.842812  -0.565081  -0.208286
    H    4.750105  -0.547820  -1.832915
}

set optking { frozen_dihedral = (" 2 3 4 10 ") }

energy, wfn = energy('B3LYP-D3', return_wfn=True)

import os
os.chdir(os.environ['HTMD_PSI4_WORKDIR'])

oeprop(wfn, 'DIPOLE', 'QUADRUPOLE', 'MULLIKEN_CHARGES')

with open('psi4out.xyz', 'w') as f:
    f.write('11 ' )
    f.write('%.12f\n' % energy)
    f.write(MOL.save_string_xyz())
--------------------------------------------------------------------------
  Threads set to 1 by Python driver.

  Memory set to   4.981 GiB by Python driver.

*** tstart() called on loro.prib.upf.edu
*** at Sat Sep 29 17:09:47 2018

   => Loading Basis Set <=

    Name: CC-PVDZ
    Role: ORBITAL
    Keyword: BASIS
    atoms 1    entry O          line   198 file /shared/joao/test_parameterize/miniconda3/share/psi4/basis/cc-pvdz.gbs 
    atoms 2-3  entry C          line   138 file /shared/joao/test_parameterize/miniconda3/share/psi4/basis/cc-pvdz.gbs 
    atoms 4    entry N          line   168 file /shared/joao/test_parameterize/miniconda3/share/psi4/basis/cc-pvdz.gbs 
    atoms 5-11 entry H          line    22 file /shared/joao/test_parameterize/miniconda3/share/psi4/basis/cc-pvdz.gbs 


         ---------------------------------------------------------
                                   SCF
            by Justin Turney, Rob Parrish, Andy Simmonett
                             and Daniel Smith
                              RKS Reference
                        1 Threads,   5100 MiB Core
         ---------------------------------------------------------

  ==> Geometry <==

    Molecular point group: c1
    Full point group: C1

    Geometry (in Angstrom), charge = 0, multiplicity = 1:

       Center              X                  Y                   Z               Mass       
    ------------   -----------------  -----------------  -----------------  -----------------
         O            1.050400000000     0.042900000000    -0.048100000000    15.994914619560
         C            2.474100000000     0.047400000000    -0.029000000000    12.000000000000
         C            3.002600000000    -1.068900000000    -0.932000000000    12.000000000000
         N            4.462700000000    -1.072400000000    -1.006800000000    14.003074004780
         H            0.760400000000     0.728400000000     0.578000000000     1.007825032070
         H            2.809900000000    -0.097900000000     1.003200000000     1.007825032070
         H            2.817400000000     1.026800000000    -0.378600000000     1.007825032070
         H            2.581000000000    -0.963300000000    -1.938400000000     1.007825032070
         H            2.653800000000    -2.036400000000    -0.553400000000     1.007825032070
         H            4.842812000000    -0.565081000000    -0.208286000000     1.007825032070
         H            4.750105000000    -0.547820000000    -1.832915000000     1.007825032070

  Running in c1 symmetry.

  Rotational constants: A =      0.72269  B =      0.02779  C =      0.02712 [cm^-1]
  Rotational constants: A =  21665.67877  B =    833.02926  C =    813.03263 [MHz]
  Nuclear repulsion =  130.849678439757355

  Charge       = 0
  Multiplicity = 1
  Electrons    = 34
  Nalpha       = 17
  Nbeta        = 17

  ==> Algorithm <==

  SCF Algorithm Type is DF.
  DIIS enabled.
  MOM disabled.
  Fractional occupation disabled.
  Guess Type is SAD.
  Energy threshold   = 1.00e-06
  Density threshold  = 1.00e-06
  Integral threshold = 0.00e+00

  ==> Primary Basis <==

  Basis Set: CC-PVDZ
    Blend: CC-PVDZ
    Number of shells: 45
    Number of basis function: 91
    Number of Cartesian functions: 95
    Spherical Harmonics?: true
    Max angular momentum: 2

  ==> DFT Potential <==

   => Composite Functional: B3LYP-D3ZERO <= 

    B3LYP-d3zero Hyb-GGA Exchange-Correlation Functional

    P. J. Stephens, F. J. Devlin, C. F. Chabalowski, and M. J. Frisch, J. Phys. Chem. 98, 11623 (1994)

    Deriv               =              1
    GGA                 =           TRUE
    Meta                =          FALSE

    Exchange Hybrid     =           TRUE
    MP2 Hybrid          =          FALSE

   => Exchange Functionals <=

    0.0800   Slater exchange
    0.7200         Becke 88

   => Exact (HF) Exchange <=

    0.2000               HF 

   => Correlation Functionals <=

    0.1900   Vosko, Wilk & Nusair (VWN5_RPA)
    0.8100   Lee, Yang & Parr

   => Molecular Quadrature <=

    Radial Scheme       =       TREUTLER
    Pruning Scheme      =           FLAT
    Nuclear Scheme      =       TREUTLER

    BS radius alpha     =              1
    Pruning alpha       =              1
    Radial Points       =             75
    Spherical Points    =            302
    Total Points        =         245075
    Total Blocks        =           1893
    Max Points          =            256
    Max Functions       =             91

   => -D3ZERO: Empirical Dispersion <=

    Grimme's -D3 (zero-damping) Dispersion Correction
    Grimme S.; Antony J.; Ehrlich S.; Krieg H. (2010), J. Chem. Phys., 132: 154104

        S6 =   1.000000E+00
        S8 =   1.703000E+00
       SR6 =   1.261000E+00
       SR8 =   1.000000E+00
    ALPHA6 =   1.400000E+01

   => Loading Basis Set <=

    Name: (CC-PVDZ AUX)
    Role: JKFIT
    Keyword: DF_BASIS_SCF
    atoms 1    entry O          line   221 file /shared/joao/test_parameterize/miniconda3/share/psi4/basis/cc-pvdz-jkfit.gbs 
    atoms 2-3  entry C          line   121 file /shared/joao/test_parameterize/miniconda3/share/psi4/basis/cc-pvdz-jkfit.gbs 
    atoms 4    entry N          line   171 file /shared/joao/test_parameterize/miniconda3/share/psi4/basis/cc-pvdz-jkfit.gbs 
    atoms 5-11 entry H          line    51 file /shared/joao/test_parameterize/miniconda3/share/psi4/basis/cc-pvdz-jkfit.gbs 

  ==> Pre-Iterations <==

   -------------------------------------------------------
    Irrep   Nso     Nmo     Nalpha   Nbeta   Ndocc  Nsocc
   -------------------------------------------------------
     A         91      91       0       0       0       0
   -------------------------------------------------------
    Total      91      91      17      17      17       0
   -------------------------------------------------------

  ==> Integral Setup <==

  DFHelper Memory: AOs need 0.036 [GiB]; user supplied 3.486 [GiB]. Using in-core AOs.

  ==> MemDFJK: Density-Fitted J/K Matrices <==

    J tasked:                   Yes
    K tasked:                   Yes
    wK tasked:                   No
    OpenMP threads:               1
    Memory (MB):               3570
    Algorithm:                 Core
    Schwarz Cutoff:           1E-12
    Mask sparsity (%):       0.1449
    Fitting Condition:        1E-12

   => Auxiliary Basis Set <=

  Basis Set: (CC-PVDZ AUX)
    Blend: CC-PVDZ-JKFIT
    Number of shells: 159
    Number of basis function: 441
    Number of Cartesian functions: 499
    Spherical Harmonics?: true
    Max angular momentum: 3

  Minimum eigenvalue in the overlap matrix is 4.5286237779E-03.
  Using Symmetric Orthogonalization.

  SCF Guess: Superposition of Atomic Densities via on-the-fly atomic UHF.

  ==> Iterations <==

                           Total Energy        Delta E     RMS |[F,P]|

   @DF-RKS iter   0:  -210.84463218088618   -2.10845e+02   3.66763e-02 
   @DF-RKS iter   1:  -210.21672278102105    6.27909e-01   6.99836e-03 
   @DF-RKS iter   2:  -210.07005076579577    1.46672e-01   9.65327e-03 DIIS
   @DF-RKS iter   3:  -210.38866606495441   -3.18615e-01   6.22854e-04 DIIS
   @DF-RKS iter   4:  -210.38958424274335   -9.18178e-04   3.61525e-04 DIIS
   @DF-RKS iter   5:  -210.39005512786136   -4.70885e-04   4.89817e-05 DIIS
   @DF-RKS iter   6:  -210.39006136482186   -6.23696e-06   2.44294e-05 DIIS
   @DF-RKS iter   7:  -210.39006350669470   -2.14187e-06   2.15727e-06 DIIS
   @DF-RKS iter   8:  -210.39006352350540   -1.68107e-08   7.96835e-07 DIIS

  ==> Post-Iterations <==

    Orbital Energies [Eh]
    ---------------------

    Doubly Occupied:                                                      

       1A    -19.129431     2A    -14.306405     3A    -10.226866  
       4A    -10.201986     5A     -1.012058     6A     -0.879273  
       7A     -0.711368     8A     -0.605381     9A     -0.508926  
      10A     -0.490776    11A     -0.450266    12A     -0.416682  
      13A     -0.396375    14A     -0.356662    15A     -0.329526  
      16A     -0.264174    17A     -0.234036  

    Virtual:                                                              

      18A      0.049605    19A      0.055864    20A      0.094328  
      21A      0.110893    22A      0.127132    23A      0.149631  
      24A      0.169953    25A      0.216660    26A      0.245573  
      27A      0.259540    28A      0.429452    29A      0.450074  
      30A      0.493287    31A      0.525460    32A      0.538012  
      33A      0.564879    34A      0.599855    35A      0.626427  
      36A      0.631191    37A      0.653851    38A      0.657808  
      39A      0.678940    40A      0.692000    41A      0.827812  
      42A      0.847728    43A      0.862254    44A      0.904157  
      45A      0.934185    46A      0.963484    47A      0.991404  
      48A      1.060230    49A      1.194124    50A      1.201633  
      51A      1.231470    52A      1.271905    53A      1.308104  
      54A      1.346364    55A      1.407957    56A      1.515224  
      57A      1.563433    58A      1.592372    59A      1.603387  
      60A      1.625164    61A      1.642813    62A      1.664648  
      63A      1.684751    64A      1.718498    65A      1.736934  
      66A      1.786982    67A      1.817458    68A      1.871346  
      69A      1.900812    70A      1.948610    71A      2.001917  
      72A      2.036121    73A      2.073707    74A      2.115949  
      75A      2.161593    76A      2.209326    77A      2.290300  
      78A      2.374924    79A      2.403130    80A      2.428824  
      81A      2.474964    82A      2.555334    83A      2.633880  
      84A      2.655855    85A      2.817637    86A      2.955292  
      87A      3.015788    88A      3.044240    89A      3.093396  
      90A      3.207634    91A      3.691653  

    Final Occupation by Irrep:
              A 
    DOCC [    17 ]

  Energy converged.

  @DF-RKS Final Energy:  -210.39006352350540

   => Energetics <=

    Nuclear Repulsion Energy =            130.8496784397573549
    One-Electron Energy =                -544.5564778064507436
    Two-Electron Energy =                 226.8087879679227399
    DFT Exchange-Correlation Energy =     -23.4870213347347594
    Empirical Dispersion Energy =          -0.0050307900000000
    VV10 Nonlocal Energy =                  0.0000000000000000
    Total Energy =                       -210.3900635235054324



Properties will be evaluated at   0.000000,   0.000000,   0.000000 [a0]

Properties computed using the SCF density matrix

  Nuclear Dipole Moment: [e a0]
     X:   177.1008      Y:   -29.7592      Z:   -31.2349

  Electronic Dipole Moment: [e a0]
     X:  -176.9163      Y:    30.6213      Z:    31.5579

  Dipole Moment: [e a0]
     X:     0.1845      Y:     0.8621      Z:     0.3230     Total:     0.9389

  Dipole Moment: [D]
     X:     0.4689      Y:     2.1911      Z:     0.8209     Total:     2.3864


*** tstop() called on loro.prib.upf.edu at Sat Sep 29 17:10:05 2018
Module time:
	user time   =      15.18 seconds =       0.25 minutes
	system time =       0.21 seconds =       0.00 minutes
	total time  =         18 seconds =       0.30 minutes
Total time:
	user time   =      15.18 seconds =       0.25 minutes
	system time =       0.21 seconds =       0.00 minutes
	total time  =         18 seconds =       0.30 minutes


Properties will be evaluated at   0.000000,   0.000000,   0.000000 [a0]
OEProp: No title given, name of density matrix used for the following properties is 'SCF density'
  Nuclear Dipole Moment: [e a0]
     X:   177.1008      Y:   -29.7592      Z:   -31.2349

  Electronic Dipole Moment: [e a0]
     X:  -176.9163      Y:    30.6213      Z:    31.5579

  Dipole Moment: [e a0]
     X:     0.1845      Y:     0.8621      Z:     0.3230     Total:     0.9389

  Dipole Moment: [D]
     X:     0.4689      Y:     2.1911      Z:     0.8209     Total:     2.3864

  Quadrupole Moment: [D A]
    XX:   -24.8915     YY:   -27.8252     ZZ:   -23.3936
    XY:     7.0354     XZ:     0.4117     YZ:    -0.4776

  Traceless Quadrupole Moment: [D A]
    XX:     0.4786     YY:    -2.4551     ZZ:     1.9765
    XY:     7.0354     XZ:     0.4117     YZ:    -0.4776

  Mulliken Charges: (a.u.)
   Center  Symbol    Alpha    Beta     Spin     Total
       1     O     4.13801  4.13801  0.00000 -0.27602
       2     C     2.94339  2.94339  0.00000  0.11322
       3     C     2.97864  2.97864  0.00000  0.04273
       4     N     3.59045  3.59045  0.00000 -0.18090
       5     H     0.43078  0.43078  0.00000  0.13844
       6     H     0.50018  0.50018  0.00000 -0.00036
       7     H     0.50636  0.50636  0.00000 -0.01272
       8     H     0.49133  0.49133  0.00000  0.01733
       9     H     0.49014  0.49014  0.00000  0.01971
      10     H     0.46764  0.46764  0.00000  0.06472
      11     H     0.46307  0.46307  0.00000  0.07385

   Total alpha = 17.00000, Total beta = 17.00000, Total charge = -0.00000


    Psi4 stopped on: Saturday, 29 September 2018 05:10PM
    Psi4 wall time for execution: 0:00:17.41

*** Psi4 exiting successfully. Buy a developer a beer!
