
    -----------------------------------------------------------------------
          Psi4: An Open-Source Ab Initio Electronic Structure Package
                               Psi4 1.2.1 release

                         Git: Rev {HEAD} 406f4de 


    R. M. Parrish, L. A. Burns, D. G. A. Smith, A. C. Simmonett,
    A. E. DePrince III, E. G. Hohenstein, U. Bozkaya, A. Yu. Sokolov,
    R. Di Remigio, R. M. Richard, J. F. Gonthier, A. M. James,
    H. R. McAlexander, A. Kumar, M. Saitow, X. Wang, B. P. Pritchard,
    P. Verma, H. F. Schaefer III, K. Patkowski, R. A. King, E. F. Valeev,
    F. A. Evangelista, J. M. Turney, T. D. Crawford, and C. D. Sherrill,
    J. Chem. Theory Comput. 13(7) pp 3185--3197 (2017).
    (doi: 10.1021/acs.jctc.7b00174)


                         Additional Contributions by
    P. Kraus, H. Kruse, M. H. Lechner, M. C. Schieber, and R. A. Shaw

    -----------------------------------------------------------------------


    Psi4 started on: Saturday, 29 September 2018 08:43PM

    Process ID: 3937
    Host:       rosa.prib.upf.edu
    PSIDATADIR: /shared/joao/test_parameterize/miniconda3/share/psi4
    Memory:     500.0 MiB
    Threads:    1
    
  ==> Input File <==

--------------------------------------------------------------------------
set_num_threads(4)
set_memory('3000 MB')

set { scf_mem_safety_factor 0.7 }

set { reference rks }
set { basis 6-31G* }

molecule MOL {
    1 1
    noreorient
    nocom
    symmetry c1
    C   -0.000000  -0.000000  -0.177864
    C    0.036678   1.219374   0.524165
    C    0.031765   1.213120   1.915444
    C    0.000000   0.000000   2.610107
    C   -0.031765  -1.213120   1.915444
    C   -0.036678  -1.219375   0.524165
    C   -0.000000   0.000000  -1.644734
    H    0.018170   2.164705  -0.010854
    H    0.042402   2.152895   2.457886
    H    0.000000   0.000000   3.695756
    H   -0.042402  -2.152895   2.457886
    H   -0.018170  -2.164705  -0.010853
    N   -1.128577   0.234187  -2.308460
    N    1.128577  -0.234187  -2.308461
    H    1.201113  -0.154337  -3.315997
    H    1.943991  -0.570662  -1.813317
    H   -1.943991   0.570662  -1.813316
    H   -1.201113   0.154337  -3.315997
}

set optking { frozen_dihedral = (" 2 1 7 13 ") }

set optking { dynamic_level = 1 
 geom_maxiter = 250
 print_trajectory_xyz_file = True }

energy, wfn = optimize('B3LYP-D3', return_wfn=True)

import os
os.chdir(os.environ['HTMD_PSI4_WORKDIR'])

oeprop(wfn, 'DIPOLE', 'QUADRUPOLE', 'MULLIKEN_CHARGES')

with open('psi4out.xyz', 'w') as f:
    f.write('18 ' )
    f.write('%.12f\n' % energy)
    f.write(MOL.save_string_xyz())
--------------------------------------------------------------------------
  Threads set to 4 by Python driver.

  Memory set to   2.794 GiB by Python driver.
gradient() will perform analytic gradient computation.

*** tstart() called on rosa.prib.upf.edu
*** at Sat Sep 29 20:43:34 2018

   => Loading Basis Set <=

    Name: 6-31G*
    Role: ORBITAL
    Keyword: BASIS
    atoms 1-7         entry C          line   111 file /shared/joao/test_parameterize/miniconda3/share/psi4/basis/6-31gs.gbs 
    atoms 8-12, 15-18 entry H          line    44 file /shared/joao/test_parameterize/miniconda3/share/psi4/basis/6-31gs.gbs 
    atoms 13-14       entry N          line   128 file /shared/joao/test_parameterize/miniconda3/share/psi4/basis/6-31gs.gbs 


         ---------------------------------------------------------
                                   SCF
            by Justin Turney, Rob Parrish, Andy Simmonett
                             and Daniel Smith
                              RKS Reference
                        4 Threads,   2861 MiB Core
         ---------------------------------------------------------

  ==> Geometry <==

    Molecular point group: c1
    Full point group: C1

    Geometry (in Angstrom), charge = 1, multiplicity = 1:

       Center              X                  Y                   Z               Mass       
    ------------   -----------------  -----------------  -----------------  -----------------
         C            0.000000000000     0.000000000000    -0.177864000000    12.000000000000
         C            0.036678000000     1.219374000000     0.524165000000    12.000000000000
         C            0.031765000000     1.213120000000     1.915444000000    12.000000000000
         C            0.000000000000     0.000000000000     2.610107000000    12.000000000000
         C           -0.031765000000    -1.213120000000     1.915444000000    12.000000000000
         C           -0.036678000000    -1.219375000000     0.524165000000    12.000000000000
         C            0.000000000000     0.000000000000    -1.644734000000    12.000000000000
         H            0.018170000000     2.164705000000    -0.010854000000     1.007825032070
         H            0.042402000000     2.152895000000     2.457886000000     1.007825032070
         H            0.000000000000     0.000000000000     3.695756000000     1.007825032070
         H           -0.042402000000    -2.152895000000     2.457886000000     1.007825032070
         H           -0.018170000000    -2.164705000000    -0.010853000000     1.007825032070
         N           -1.128577000000     0.234187000000    -2.308460000000    14.003074004780
         N            1.128577000000    -0.234187000000    -2.308461000000    14.003074004780
         H            1.201113000000    -0.154337000000    -3.315997000000     1.007825032070
         H            1.943991000000    -0.570662000000    -1.813317000000     1.007825032070
         H           -1.943991000000     0.570662000000    -1.813316000000     1.007825032070
         H           -1.201113000000     0.154337000000    -3.315997000000     1.007825032070

  Running in c1 symmetry.

  Rotational constants: A =      0.12190  B =      0.03679  C =      0.03328 [cm^-1]
  Rotational constants: A =   3654.48747  B =   1102.96438  C =    997.72850 [MHz]
  Nuclear repulsion =  415.851039491300355

  Charge       = 1
  Multiplicity = 1
  Electrons    = 64
  Nalpha       = 32
  Nbeta        = 32

  ==> Algorithm <==

  SCF Algorithm Type is DF.
  DIIS enabled.
  MOM disabled.
  Fractional occupation disabled.
  Guess Type is SAD.
  Energy threshold   = 1.00e-08
  Density threshold  = 1.00e-08
  Integral threshold = 0.00e+00

  ==> Primary Basis <==

  Basis Set: 6-31G*
    Blend: 6-31G*
    Number of shells: 72
    Number of basis function: 153
    Number of Cartesian functions: 153
    Spherical Harmonics?: false
    Max angular momentum: 2

  ==> DFT Potential <==

   => Composite Functional: B3LYP-D3ZERO <= 

    B3LYP-d3zero Hyb-GGA Exchange-Correlation Functional

    P. J. Stephens, F. J. Devlin, C. F. Chabalowski, and M. J. Frisch, J. Phys. Chem. 98, 11623 (1994)

    Deriv               =              1
    GGA                 =           TRUE
    Meta                =          FALSE

    Exchange Hybrid     =           TRUE
    MP2 Hybrid          =          FALSE

   => Exchange Functionals <=

    0.0800   Slater exchange
    0.7200         Becke 88

   => Exact (HF) Exchange <=

    0.2000               HF 

   => Correlation Functionals <=

    0.1900   Vosko, Wilk & Nusair (VWN5_RPA)
    0.8100   Lee, Yang & Parr

   => Molecular Quadrature <=

    Radial Scheme       =       TREUTLER
    Pruning Scheme      =           FLAT
    Nuclear Scheme      =       TREUTLER

    BS radius alpha     =              1
    Pruning alpha       =              1
    Radial Points       =             75
    Spherical Points    =            302
    Total Points        =         397344
    Total Blocks        =           2998
    Max Points          =            256
    Max Functions       =            149

   => -D3ZERO: Empirical Dispersion <=

    Grimme's -D3 (zero-damping) Dispersion Correction
    Grimme S.; Antony J.; Ehrlich S.; Krieg H. (2010), J. Chem. Phys., 132: 154104

        S6 =   1.000000E+00
        S8 =   1.703000E+00
       SR6 =   1.261000E+00
       SR8 =   1.000000E+00
    ALPHA6 =   1.400000E+01

   => Loading Basis Set <=

    Name: (6-31G* AUX)
    Role: JKFIT
    Keyword: DF_BASIS_SCF
    atoms 1-7         entry C          line   121 file /shared/joao/test_parameterize/miniconda3/share/psi4/basis/cc-pvdz-jkfit.gbs 
    atoms 8-12, 15-18 entry H          line    51 file /shared/joao/test_parameterize/miniconda3/share/psi4/basis/cc-pvdz-jkfit.gbs 
    atoms 13-14       entry N          line   171 file /shared/joao/test_parameterize/miniconda3/share/psi4/basis/cc-pvdz-jkfit.gbs 

  ==> Pre-Iterations <==

   -------------------------------------------------------
    Irrep   Nso     Nmo     Nalpha   Nbeta   Ndocc  Nsocc
   -------------------------------------------------------
     A        153     153       0       0       0       0
   -------------------------------------------------------
    Total     153     153      32      32      32       0
   -------------------------------------------------------

  ==> Integral Setup <==

  ==> DiskDFJK: Density-Fitted J/K Matrices <==

    J tasked:                  Yes
    K tasked:                  Yes
    wK tasked:                  No
    OpenMP threads:              4
    Integrals threads:           4
    Memory (MB):              2002
    Algorithm:                Core
    Integral Cache:           NONE
    Schwarz Cutoff:          1E-12
    Fitting Condition:       1E-12

   => Auxiliary Basis Set <=

  Basis Set: (6-31G* AUX)
    Blend: CC-PVDZ-JKFIT
    Number of shells: 297
    Number of basis function: 954
    Number of Cartesian functions: 954
    Spherical Harmonics?: false
    Max angular momentum: 3

  Minimum eigenvalue in the overlap matrix is 4.8861357478E-04.
  Using Symmetric Orthogonalization.

  SCF Guess: Superposition of Atomic Densities via on-the-fly atomic UHF.

  ==> Iterations <==

                           Total Energy        Delta E     RMS |[F,P]|

   @DF-RKS iter   0:  -379.63611642834172   -3.79636e+02   6.82760e-02 
   @DF-RKS iter   1:  -381.04313438185596   -1.40702e+00   1.17890e-02 
   @DF-RKS iter   2:  -380.97597706075504    6.71573e-02   1.26558e-02 DIIS
   @DF-RKS iter   3:  -381.45522015040882   -4.79243e-01   1.54716e-03 DIIS
   @DF-RKS iter   4:  -381.45972627034024   -4.50612e-03   8.74785e-04 DIIS
   @DF-RKS iter   5:  -381.46168547343473   -1.95920e-03   2.39656e-04 DIIS
   @DF-RKS iter   6:  -381.46182590822559   -1.40435e-04   7.34725e-05 DIIS
   @DF-RKS iter   7:  -381.46184064632445   -1.47381e-05   1.44598e-05 DIIS
   @DF-RKS iter   8:  -381.46184113843572   -4.92111e-07   5.62551e-06 DIIS
   @DF-RKS iter   9:  -381.46184122642234   -8.79866e-08   1.89918e-06 DIIS
   @DF-RKS iter  10:  -381.46184123737805   -1.09557e-08   6.25368e-07 DIIS
   @DF-RKS iter  11:  -381.46184123860905   -1.23100e-09   1.03341e-07 DIIS
   @DF-RKS iter  12:  -381.46184123863213   -2.30784e-11   5.80411e-08 DIIS
   @DF-RKS iter  13:  -381.46184123864191   -9.77707e-12   1.59828e-08 DIIS
   @DF-RKS iter  14:  -381.46184123864225   -3.41061e-13   9.55476e-09 DIIS

  ==> Post-Iterations <==

    Orbital Energies [Eh]
    ---------------------

    Doubly Occupied:                                                      

       1A    -14.576511     2A    -14.576504     3A    -10.505340  
       4A    -10.368166     5A    -10.349315     6A    -10.349308  
       7A    -10.333446     8A    -10.333175     9A    -10.332636  
      10A     -1.190335    11A     -1.097947    12A     -1.008707  
      13A     -0.924065    14A     -0.895096    15A     -0.846047  
      16A     -0.788748    17A     -0.764837    18A     -0.753417  
      19A     -0.729080    20A     -0.693557    21A     -0.667947  
      22A     -0.621867    23A     -0.618371    24A     -0.575726  
      25A     -0.573938    26A     -0.567258    27A     -0.514225  
      28A     -0.498589    29A     -0.490584    30A     -0.478742  
      31A     -0.403542    32A     -0.398424  

    Virtual:                                                              

      33A     -0.202734    34A     -0.163747    35A     -0.147587  
      36A     -0.114265    37A     -0.067663    38A     -0.064756  
      39A     -0.035686    40A     -0.029469    41A      0.009941  
      42A      0.014648    43A      0.025076    44A      0.055702  
      45A      0.060347    46A      0.073309    47A      0.142006  
      48A      0.146421    49A      0.165453    50A      0.188732  
      51A      0.202624    52A      0.208588    53A      0.292878  
      54A      0.344269    55A      0.356645    56A      0.376226  
      57A      0.392653    58A      0.396540    59A      0.402952  
      60A      0.425111    61A      0.443639    62A      0.453085  
      63A      0.455898    64A      0.467757    65A      0.475527  
      66A      0.481345    67A      0.482881    68A      0.498328  
      69A      0.515790    70A      0.534001    71A      0.558062  
      72A      0.569346    73A      0.594315    74A      0.639058  
      75A      0.665743    76A      0.676820    77A      0.680725  
      78A      0.685301    79A      0.700822    80A      0.711506  
      81A      0.732263    82A      0.750915    83A      0.779367  
      84A      0.786043    85A      0.813285    86A      0.831875  
      87A      0.854066    88A      0.940122    89A      0.968813  
      90A      1.013591    91A      1.016587    92A      1.024986  
      93A      1.032931    94A      1.078996    95A      1.130233  
      96A      1.184418    97A      1.208129    98A      1.289296  
      99A      1.290942   100A      1.331323   101A      1.331508  
     102A      1.362420   103A      1.365023   104A      1.391034  
     105A      1.439542   106A      1.454180   107A      1.502312  
     108A      1.593008   109A      1.604828   110A      1.659552  
     111A      1.677661   112A      1.740782   113A      1.763647  
     114A      1.800822   115A      1.821713   116A      1.844068  
     117A      1.892200   118A      1.909803   119A      1.966092  
     120A      1.993069   121A      1.999415   122A      2.001306  
     123A      2.038469   124A      2.073646   125A      2.118171  
     126A      2.140130   127A      2.161125   128A      2.193716  
     129A      2.212502   130A      2.278396   131A      2.384214  
     132A      2.392324   133A      2.401295   134A      2.435562  
     135A      2.507636   136A      2.573444   137A      2.581502  
     138A      2.591053   139A      2.630162   140A      2.631952  
     141A      2.708237   142A      2.885883   143A      2.913048  
     144A      3.258073   145A      3.627782   146A      3.633181  
     147A      3.944771   148A      3.968960   149A      3.985970  
     150A      4.126896   151A      4.179483   152A      4.262623  
     153A      4.554294  

    Final Occupation by Irrep:
              A 
    DOCC [    32 ]

  Energy converged.

  @DF-RKS Final Energy:  -381.46184123864225

   => Energetics <=

    Nuclear Repulsion Energy =            415.8510394913003552
    One-Electron Energy =               -1327.0302246084240778
    Two-Electron Energy =                 574.1308991423699126
    DFT Exchange-Correlation Energy =     -44.4019347538883267
    Empirical Dispersion Energy =          -0.0116205100000000
    VV10 Nonlocal Energy =                  0.0000000000000000
    Total Energy =                       -381.4618412386421937



Properties will be evaluated at   0.000000,   0.000000,   0.000000 [a0]

Properties computed using the SCF density matrix

  Nuclear Dipole Moment: [e a0]
     X:     0.0000      Y:    -0.0000      Z:     0.0248

  Electronic Dipole Moment: [e a0]
     X:    -0.0000      Y:     0.0000      Z:    -2.5970

  Dipole Moment: [e a0]
     X:    -0.0000      Y:    -0.0000      Z:    -2.5723     Total:     2.5723

  Dipole Moment: [D]
     X:    -0.0000      Y:    -0.0000      Z:    -6.5380     Total:     6.5380


*** tstop() called on rosa.prib.upf.edu at Sat Sep 29 20:44:02 2018
Module time:
	user time   =     100.33 seconds =       1.67 minutes
	system time =       0.88 seconds =       0.01 minutes
	total time  =         28 seconds =       0.47 minutes
Total time:
	user time   =     100.33 seconds =       1.67 minutes
	system time =       0.88 seconds =       0.01 minutes
	total time  =         28 seconds =       0.47 minutes

*** tstart() called on rosa.prib.upf.edu
*** at Sat Sep 29 20:44:03 2018


         ------------------------------------------------------------
                                   SCF GRAD                          
                          Rob Parrish, Justin Turney,                
                       Andy Simmonett, and Alex Sokolov              
         ------------------------------------------------------------

  ==> Geometry <==

    Molecular point group: c1
    Full point group: C1

    Geometry (in Angstrom), charge = 1, multiplicity = 1:

       Center              X                  Y                   Z               Mass       
    ------------   -----------------  -----------------  -----------------  -----------------
         C            0.000000000000     0.000000000000    -0.177864000000    12.000000000000
         C            0.036678000000     1.219374000000     0.524165000000    12.000000000000
         C            0.031765000000     1.213120000000     1.915444000000    12.000000000000
         C            0.000000000000     0.000000000000     2.610107000000    12.000000000000
         C           -0.031765000000    -1.213120000000     1.915444000000    12.000000000000
         C           -0.036678000000    -1.219375000000     0.524165000000    12.000000000000
         C            0.000000000000     0.000000000000    -1.644734000000    12.000000000000
         H            0.018170000000     2.164705000000    -0.010854000000     1.007825032070
         H            0.042402000000     2.152895000000     2.457886000000     1.007825032070
         H            0.000000000000     0.000000000000     3.695756000000     1.007825032070
         H           -0.042402000000    -2.152895000000     2.457886000000     1.007825032070
         H           -0.018170000000    -2.164705000000    -0.010853000000     1.007825032070
         N           -1.128577000000     0.234187000000    -2.308460000000    14.003074004780
         N            1.128577000000    -0.234187000000    -2.308461000000    14.003074004780
         H            1.201113000000    -0.154337000000    -3.315997000000     1.007825032070
         H            1.943991000000    -0.570662000000    -1.813317000000     1.007825032070
         H           -1.943991000000     0.570662000000    -1.813316000000     1.007825032070
         H           -1.201113000000     0.154337000000    -3.315997000000     1.007825032070

  Nuclear repulsion =  415.851039491300355

  ==> Basis Set <==

  Basis Set: 6-31G*
    Blend: 6-31G*
    Number of shells: 72
    Number of basis function: 153
    Number of Cartesian functions: 153
    Spherical Harmonics?: false
    Max angular momentum: 2

  ==> DFJKGrad: Density-Fitted SCF Gradients <==

    Gradient:                    1
    J tasked:                  Yes
    K tasked:                  Yes
    wK tasked:                  No
    OpenMP threads:              4
    Integrals threads:           4
    Memory (MB):              2002
    Schwarz Cutoff:          0E+00
    Fitting Condition:       1E-12

   => Auxiliary Basis Set <=

  Basis Set: (6-31G* AUX)
    Blend: CC-PVDZ-JKFIT
    Number of shells: 297
    Number of basis function: 954
    Number of Cartesian functions: 954
    Spherical Harmonics?: false
    Max angular momentum: 3

  ==> DFT Potential <==

   => Composite Functional: B3LYP-D3ZERO <= 

    B3LYP-d3zero Hyb-GGA Exchange-Correlation Functional

    P. J. Stephens, F. J. Devlin, C. F. Chabalowski, and M. J. Frisch, J. Phys. Chem. 98, 11623 (1994)

    Deriv               =              1
    GGA                 =           TRUE
    Meta                =          FALSE

    Exchange Hybrid     =           TRUE
    MP2 Hybrid          =          FALSE

   => Exchange Functionals <=

    0.0800   Slater exchange
    0.7200         Becke 88

   => Exact (HF) Exchange <=

    0.2000               HF 

   => Correlation Functionals <=

    0.1900   Vosko, Wilk & Nusair (VWN5_RPA)
    0.8100   Lee, Yang & Parr

   => Molecular Quadrature <=

    Radial Scheme       =       TREUTLER
    Pruning Scheme      =           FLAT
    Nuclear Scheme      =       TREUTLER

    BS radius alpha     =              1
    Pruning alpha       =              1
    Radial Points       =             75
    Spherical Points    =            302
    Total Points        =         397344
    Total Blocks        =           2998
    Max Points          =            256
    Max Functions       =            149


  -Total Gradient:
     Atom            X                  Y                   Z
    ------   -----------------  -----------------  -----------------
       1       -0.000000088671     0.000000477268    -0.016174985707
       2        0.005387109717     0.000427064133     0.005221538249
       3        0.000626626763     0.002649827246    -0.002290793059
       4       -0.000000001517    -0.000000078450     0.000169961897
       5       -0.000626618814    -0.002649605287    -0.002290695049
       6       -0.005387108858    -0.000428491482     0.005221176201
       7       -0.000000232027     0.000000082394     0.016147114340
       8       -0.002464737807     0.000138006997     0.000867039459
       9       -0.000601815322    -0.000150490629     0.000185368125
      10       -0.000000000279     0.000000007247     0.000015885181
      11        0.000601814364     0.000150489668     0.000185311736
      12        0.002464720038    -0.000137228237     0.000867517190
      13       -0.005230559656    -0.002470553652    -0.003637424003
      14        0.005230886144     0.002470578656    -0.003638639618
      15        0.000391573780     0.002588678555     0.001574304716
      16       -0.001410819910    -0.002975255900    -0.002005838145
      17        0.001410817382     0.002975258234    -0.002005854865
      18       -0.000391565337    -0.002588766811     0.001573464382


*** tstop() called on rosa.prib.upf.edu at Sat Sep 29 20:44:10 2018
Module time:
	user time   =      28.78 seconds =       0.48 minutes
	system time =       0.50 seconds =       0.01 minutes
	total time  =          7 seconds =       0.12 minutes
Total time:
	user time   =     129.18 seconds =       2.15 minutes
	system time =       1.38 seconds =       0.02 minutes
	total time  =         36 seconds =       0.60 minutes

			-----------------------------------------
			 OPTKING 2.0: for geometry optimizations 
			  - R.A. King,  Bethel University        
			-----------------------------------------
	At level 1: Red. Int., RFO, no backsteps, dynamic trust

	Internal coordinates to be generated automatically.
	Detected frag 1 with atoms:  1 2 3 4 5 6 7 8 9 10 11 12 13 14 15 16 17 18
	---Fragment 1 Bond Connectivity---
	 1 : 2 6 7
	 2 : 1 3 8
	 3 : 2 4 9
	 4 : 3 5 10
	 5 : 4 6 11
	 6 : 1 5 12
	 7 : 1 13 14
	 8 : 2
	 9 : 3
	 10 : 4
	 11 : 5
	 12 : 6
	 13 : 7 17 18
	 14 : 7 15 16
	 15 : 14
	 16 : 14
	 17 : 13
	 18 : 13

	Assuming in current code that numbering for constraints corresponds to unified fragment.
	Frozen dihedral atom list: 
	     2     1     7    13
	---Fragment 1 Geometry and Gradient---
	 C           0.0000000000        0.0000000000       -0.3361142489
	 C           0.0693113751        2.3042829136        0.9905282984
	 C           0.0600271506        2.2924645663        3.6196645829
	 C           0.0000000000        0.0000000000        4.9323874075
	 C          -0.0600271506       -2.2924645663        3.6196645829
	 C          -0.0693113751       -2.3042848033        0.9905282984
	 C           0.0000000000        0.0000000000       -3.1080968214
	 H           0.0343363238        4.0906996085       -0.0205110874
	 H           0.0801281675        4.0683819429        4.6447314059
	 H           0.0000000000        0.0000000000        6.9839666940
	 H          -0.0801281675       -4.0683819429        4.6447314059
	 H          -0.0343363238       -4.0906996085       -0.0205091977
	 N          -2.1327014499        0.4425492939       -4.3623571887
	 N           2.1327014499       -0.4425492939       -4.3623590784
	 H           2.2697746246       -0.2916546622       -6.2663261875
	 H           3.6736105948       -1.0783948944       -3.4266725221
	 H          -3.6736105948        1.0783948944       -3.4266706324
	 H          -2.2697746246        0.2916546622       -6.2663261875
	            -0.0000000887        0.0000004773       -0.0161749857
	             0.0053871097        0.0004270641        0.0052215382
	             0.0006266268        0.0026498272       -0.0022907931
	            -0.0000000015       -0.0000000784        0.0001699619
	            -0.0006266188       -0.0026496053       -0.0022906950
	            -0.0053871089       -0.0004284915        0.0052211762
	            -0.0000002320        0.0000000824        0.0161471143
	            -0.0024647378        0.0001380070        0.0008670395
	            -0.0006018153       -0.0001504906        0.0001853681
	            -0.0000000003        0.0000000072        0.0000158852
	             0.0006018144        0.0001504897        0.0001853117
	             0.0024647200       -0.0001372282        0.0008675172
	            -0.0052305597       -0.0024705537       -0.0036374240
	             0.0052308861        0.0024705787       -0.0036386396
	             0.0003915738        0.0025886786        0.0015743047
	            -0.0014108199       -0.0029752559       -0.0020058381
	             0.0014108174        0.0029752582       -0.0020058549
	            -0.0003915653       -0.0025887668        0.0015734644

	Previous optimization step data not found.  Starting new optimization.

	---Fragment 1 Intrafragment Coordinates---
	 - Coordinate -           - BOHR/RAD -       - ANG/DEG -
	 R(1,2)           =         2.659794	       1.407502
	 R(1,6)           =         2.659796	       1.407503
	 R(1,7)           =         2.771983	       1.466870
	 R(2,3)           =         2.629179	       1.391302
	 R(2,8)           =         2.052976	       1.086388
	 R(3,4)           =         2.642393	       1.398294
	 R(3,9)           =         2.050622	       1.085142
	 R(4,5)           =         2.642393	       1.398294
	 R(4,10)          =         2.051579	       1.085649
	 R(5,6)           =         2.629179	       1.391302
	 R(5,11)          =         2.050622	       1.085142
	 R(6,12)          =         2.052973	       1.086386
	 R(7,13)          =         2.513451	       1.330061
	 R(7,14)          =         2.513452	       1.330061
	 R(13,17)         =         1.911599	       1.011575
	 R(13,18)         =         1.914851	       1.013296
	 R(14,15)         =         1.914850	       1.013295
	 R(14,16)         =         1.911599	       1.011575
	 B(1,2,3)         =         2.088380	     119.655376
	 B(1,2,8)         =         2.103396	     120.515689
	 B(1,6,5)         =         2.088379	     119.655315
	 B(1,6,12)        =         2.103396	     120.515729
	 B(1,7,13)        =         2.093263	     119.935137
	 B(1,7,14)        =         2.093264	     119.935175
	 B(2,1,6)         =         2.097220	     120.161857
	 B(2,1,7)         =         2.092983	     119.919082
	 B(2,3,4)         =         2.095279	     120.050636
	 B(2,3,9)         =         2.089719	     119.732108
	 B(3,2,8)         =         2.090149	     119.756722
	 B(3,4,5)         =         2.101793	     120.423859
	 B(3,4,10)        =         2.090696	     119.788070
	 B(4,3,9)         =         2.098135	     120.214297
	 B(4,5,6)         =         2.095280	     120.050677
	 B(4,5,11)        =         2.098135	     120.214297
	 B(5,4,10)        =         2.090696	     119.788070
	 B(5,6,12)        =         2.090149	     119.756743
	 B(6,1,7)         =         2.092982	     119.919061
	 B(6,5,11)        =         2.089719	     119.732067
	 B(7,13,17)       =         2.092412	     119.886368
	 B(7,13,18)       =         2.144860	     122.891417
	 B(7,14,15)       =         2.144861	     122.891457
	 B(7,14,16)       =         2.092411	     119.886331
	 B(13,7,14)       =         2.096659	     120.129688
	 B(15,14,16)      =         2.043399	     117.078150
	 B(17,13,18)      =         2.043399	     117.078152
	 D(1,2,3,4)       =         0.007799	       0.446825
	 D(1,2,3,9)       =        -3.122896	    -178.928735
	 D(1,6,5,4)       =         0.007799	       0.446822
	 D(1,6,5,11)      =        -3.122896	    -178.928737
	 D(1,7,13,17)     =         0.187845	      10.762723
	 D(1,7,13,18)     =        -3.032165	    -173.730279
	 D(1,7,14,15)     =        -3.032165	    -173.730270
	 D(1,7,14,16)     =         0.187845	      10.762719
	 D(2,1,6,5)       =        -0.003906	      -0.223802
	 D(2,1,6,12)      =        -3.091437	    -177.126283
	*D(2,1,7,13)      =        -1.396264	     -80.000026
	 D(2,1,7,14)      =         1.745329	      99.999974
	 D(2,3,4,5)       =        -0.003942	      -0.225875
	 D(2,3,4,10)      =         3.137650	     179.774125
	 D(3,2,1,6)       =        -0.003906	      -0.223806
	 D(3,2,1,7)       =         3.137687	     179.776196
	 D(3,4,5,6)       =        -0.003942	      -0.225874
	 D(3,4,5,11)      =         3.126699	     179.146646
	 D(4,3,2,8)       =         3.095744	     177.373058
	 D(4,5,6,12)      =         3.095744	     177.373055
	 D(5,4,3,9)       =         3.126699	     179.146646
	 D(5,6,1,7)       =         3.137687	     179.776197
	 D(6,1,2,8)       =        -3.091437	    -177.126287
	 D(6,1,7,13)      =         1.745329	      99.999975
	 D(6,1,7,14)      =        -1.396264	     -80.000025
	 D(6,5,4,10)      =         3.137650	     179.774126
	 D(7,1,2,8)       =         0.050156	       2.873714
	 D(7,1,6,12)      =         0.050156	       2.873716
	 D(8,2,3,9)       =        -0.034950	      -2.002503
	 D(9,3,4,10)      =        -0.014894	      -0.853354
	 D(10,4,5,11)     =        -0.014894	      -0.853354
	 D(11,5,6,12)     =        -0.034950	      -2.002504
	 D(13,7,14,15)    =         0.109427	       6.269730
	 D(13,7,14,16)    =        -2.953748	    -169.237281
	 D(14,7,13,17)    =        -2.953748	    -169.237277
	 D(14,7,13,18)    =         0.109427	       6.269721

	Current energy   :      -381.4618412386

	Generating empirical Hessian (Schlegel '84) for each fragment.
	Taking RFO optimization step.
	Going to follow RFO solution 1.
	Using RFO vector 1.
	Norm of target step-size    0.34940
	Projected energy change by RFO approximation:        -0.0059096604

	Back-transformation to cartesian coordinates...
	Could not converge backtransformation.
	Using first guess instead.

	Back-transformation to cartesian coordinates to adjust frozen coordinates...
	Successfully converged to displaced geometry.

	--- Internal Coordinate Step in ANG or DEG, aJ/ANG or AJ/DEG ---
	 ---------------------------------------------------------------------------
	   Coordinate                Previous        Force       Change         New 
	   ----------                --------       ------       ------       ------
	    1 R(1,2)          =      1.407502    -0.032144    -0.004713     1.402789
	    2 R(1,6)          =      1.407503    -0.032149    -0.004591     1.402912
	    3 R(1,7)          =      1.466870     0.066018     0.011640     1.478510
	    4 R(2,3)          =      1.391302     0.016594     0.002318     1.393620
	    5 R(2,8)          =      1.086388     0.002186     0.001408     1.087796
	    6 R(3,4)          =      1.398294    -0.007499    -0.000908     1.397385
	    7 R(3,9)          =      1.085142     0.000355     0.000330     1.085472
	    8 R(4,5)          =      1.398294    -0.007500    -0.000908     1.397386
	    9 R(4,10)         =      1.085649    -0.000138    -0.000020     1.085629
	   10 R(5,6)          =      1.391302     0.016591     0.002265     1.393567
	   11 R(5,11)         =      1.085142     0.000356     0.000230     1.085372
	   12 R(6,12)         =      1.086386     0.002193     0.001363     1.087750
	   13 R(7,13)         =      1.330061    -0.043138    -0.004606     1.325454
	   14 R(7,14)         =      1.330061    -0.043142    -0.004494     1.325567
	   15 R(13,17)        =      1.011575     0.009302     0.006750     1.018325
	   16 R(13,18)        =      1.013296     0.010985     0.004299     1.017595
	   17 R(14,15)        =      1.013295     0.010992     0.004957     1.018251
	   18 R(14,16)        =      1.011575     0.009302     0.006766     1.018341
	   19 B(1,2,3)        =    119.655376    -0.000124    -0.412676   119.242700
	   20 B(1,2,8)        =    120.515689     0.000004    -0.034103   120.481587
	   21 B(1,6,5)        =    119.655315    -0.000124    -0.414416   119.240898
	   22 B(1,6,12)       =    120.515729     0.000004    -0.050997   120.464732
	   23 B(1,7,13)       =    119.935137    -0.000175    -0.518629   119.416509
	   24 B(1,7,14)       =    119.935175    -0.000175    -0.524496   119.410679
	   25 B(2,1,6)        =    120.161857     0.000250     0.698650   120.860507
	   26 B(2,1,7)        =    119.919082    -0.000125    -0.347207   119.571875
	   27 B(2,3,4)        =    120.050636     0.000022     0.109000   120.159636
	   28 B(2,3,9)        =    119.732108    -0.000030    -0.134801   119.597307
	   29 B(3,2,8)        =    119.756722     0.000126     0.514919   120.271641
	   30 B(3,4,5)        =    120.423859    -0.000046    -0.091722   120.332138
	   31 B(3,4,10)       =    119.788070     0.000023     0.046040   119.834110
	   32 B(4,3,9)        =    120.214297     0.000008     0.027868   120.242165
	   33 B(4,5,6)        =    120.050677     0.000022     0.109289   120.159967
	   34 B(4,5,11)       =    120.214297     0.000008     0.032526   120.246823
	   35 B(5,4,10)       =    119.788070     0.000023     0.045612   119.833683
	   36 B(5,6,12)       =    119.756743     0.000125     0.532421   120.289164
	   37 B(6,1,7)        =    119.919061    -0.000125    -0.355822   119.563239
	   38 B(6,5,11)       =    119.732067    -0.000030    -0.139323   119.592743
	   39 B(7,13,17)      =    119.886368    -0.000109    -0.619599   119.266769
	   40 B(7,13,18)      =    122.891417     0.000072     0.246792   123.138209
	   41 B(7,14,15)      =    122.891457     0.000072     0.268292   123.159749
	   42 B(7,14,16)      =    119.886331    -0.000109    -0.664086   119.222245
	   43 B(13,7,14)      =    120.129688     0.000349     1.038946   121.168634
	   44 B(15,14,16)     =    117.078150     0.000040     0.477940   117.556090
	   45 B(17,13,18)     =    117.078152     0.000040     0.454971   117.533123
	   46 D(1,2,3,4)      =      0.446825    -0.000006    -0.828816    -0.381991
	   47 D(1,2,3,9)      =   -178.928735    -0.000012    -1.796027  -180.724762
	   48 D(1,6,5,4)      =      0.446822    -0.000007    -1.112111    -0.665289
	   49 D(1,6,5,11)     =   -178.928737    -0.000013    -1.984531  -180.913269
	   50 D(1,7,13,17)    =     10.762723    -0.000049    -6.434208     4.328516
	   51 D(1,7,13,18)    =   -173.730279    -0.000037    -4.875486  -178.605765
	   52 D(1,7,14,15)    =   -173.730270    -0.000041    -5.601918  -179.332188
	   53 D(1,7,14,16)    =     10.762719    -0.000053    -7.160813     3.601906
	   54 D(2,1,6,5)      =     -0.223802     0.000005     0.845366     0.621565
	   55 D(2,1,6,12)     =   -177.126283    -0.000021    -3.079670  -180.205953
	   56 *D(2,1,7,13)    =    -80.000026     0.000000     0.000000   -80.000026
	   57 D(2,1,7,14)     =     99.999974     0.000004     0.734762   100.734736
	   58 D(2,3,4,5)      =     -0.225875     0.000004     0.563947     0.338071
	   59 D(2,3,4,10)     =    179.774125     0.000003     0.467597   180.241722
	   60 D(3,2,1,6)      =     -0.223806     0.000002     0.125367    -0.098439
	   61 D(3,2,1,7)      =    179.776196     0.000005     0.889964   180.666159
	   62 D(3,4,5,6)      =     -0.225874     0.000003     0.419196     0.193321
	   63 D(3,4,5,11)     =    179.146646     0.000009     1.296289   180.442936
	   64 D(4,3,2,8)      =    177.373058     0.000019     2.975498   180.348555
	   65 D(4,5,6,12)     =    177.373055     0.000018     2.787689   180.160744
	   66 D(5,4,3,9)      =    179.146646     0.000010     1.536423   180.683069
	   67 D(5,6,1,7)      =    179.776197     0.000001     0.080834   179.857031
	   68 D(6,1,2,8)      =   -177.126287    -0.000024    -3.704270  -180.830557
	   69 D(6,1,7,13)     =     99.999975     0.000004     0.754582   100.754557
	   70 D(6,1,7,14)     =    -80.000025     0.000008     1.489344   -78.510681
	   71 D(6,5,4,10)     =    179.774126     0.000003     0.515545   180.289671
	   72 D(7,1,2,8)      =      2.873714    -0.000020    -2.939673    -0.065958
	   73 D(7,1,6,12)     =      2.873716    -0.000025    -3.844202    -0.970487
	   74 D(8,2,3,9)      =     -2.002503     0.000013     2.008287     0.005785
	   75 D(9,3,4,10)     =     -0.853354     0.000009     1.440073     0.586720
	   76 D(10,4,5,11)    =     -0.853354     0.000009     1.392639     0.539285
	   77 D(11,5,6,12)    =     -2.002504     0.000012     1.915268    -0.087236
	   78 D(13,7,14,15)   =      6.269730    -0.000037    -4.853910     1.415820
	   79 D(13,7,14,16)   =   -169.237281    -0.000049    -6.412805  -175.650086
	   80 D(14,7,13,17)   =   -169.237277    -0.000053    -7.182259  -176.419536
	   81 D(14,7,13,18)   =      6.269721    -0.000041    -5.623537     0.646184
	 ---------------------------------------------------------------------------
	Successfully symmetrized geometry.

  ==> Convergence Check <==

  Measures of convergence in internal coordinates in au.
  Criteria marked as inactive (o), active & met (*), and active & unmet ( ).
  --------------------------------------------------------------------------------------------- ~
   Step     Total Energy     Delta E     MAX Force     RMS Force      MAX Disp      RMS Disp    ~
  --------------------------------------------------------------------------------------------- ~
    Convergence Criteria    1.00e-06 *    3.00e-04 *             o    1.20e-03 *             o  ~
  --------------------------------------------------------------------------------------------- ~
      1    -381.46184124   -3.81e+02      8.01e-03      1.92e-03 o    1.25e-01      3.87e-02 o  ~
  ---------------------------------------------------------------------------------------------

	Writing optimization data to binary file.
	Structure for next step:
	Cartesian Geometry (in Angstrom)
	    C    -0.0073122372   0.0034925124  -0.1746852136
	    C     0.0221139811   1.2222122323   0.5193423395
	    C     0.0307199560   1.2120340605   1.9128986018
	    C     0.0021333076  -0.0008339567   2.6063105422
	    C    -0.0281403117  -1.2116316654   1.9093605426
	    C    -0.0259594516  -1.2175860595   0.5158082502
	    C    -0.0016703945   0.0054481828  -1.6531835346
	    H     0.0500392458   2.1651413523  -0.0223265191
	    H     0.0653924655   2.1514110755   2.4556855821
	    H     0.0050336296  -0.0024931744   3.6919346704
	    H    -0.0575686522  -2.1526934274   2.4493322353
	    H    -0.0521237164  -2.1587951977  -0.0288390109
	    N    -1.1305418168   0.2366191665  -2.3081939991
	    N     1.1292831810  -0.2385247531  -2.3001368881
	    H     1.2003606412  -0.2415943165  -3.3158999593
	    H     1.9643216860  -0.4779650462  -1.7687263317
	    H    -1.9704322593   0.4749112602  -1.7839935111
	    H    -1.1956492541   0.2308467543  -3.3236877965
			--------------------------
			 OPTKING Finished Execution 
			--------------------------

    Structure for next step:
    Molecular point group: c1
    Full point group: C1

    Geometry (in Angstrom), charge = 1, multiplicity = 1:

    C           -0.007312237171     0.003492512385    -0.174685213609
    C            0.022113981098     1.222212232344     0.519342339467
    C            0.030719956041     1.212034060478     1.912898601800
    C            0.002133307574    -0.000833956700     2.606310542189
    C           -0.028140311720    -1.211631665361     1.909360542637
    C           -0.025959451554    -1.217586059528     0.515808250174
    C           -0.001670394457     0.005448182840    -1.653183534620
    H            0.050039245823     2.165141352336    -0.022326519106
    H            0.065392465501     2.151411075515     2.455685582091
    H            0.005033629575    -0.002493174393     3.691934670366
    H           -0.057568652236    -2.152693427408     2.449332235260
    H           -0.052123716443    -2.158795197712    -0.028839010865
    N           -1.130541816773     0.236619166514    -2.308193999075
    N            1.129283180963    -0.238524753089    -2.300136888070
    H            1.200360641175    -0.241594316519    -3.315899959321
    H            1.964321685992    -0.477965046183    -1.768726331727
    H           -1.970432259255     0.474911260169    -1.783993511054
    H           -1.195649254132     0.230846754312    -3.323687796536

gradient() will perform analytic gradient computation.

*** tstart() called on rosa.prib.upf.edu
*** at Sat Sep 29 20:44:11 2018

   => Loading Basis Set <=

    Name: 6-31G*
    Role: ORBITAL
    Keyword: BASIS
    atoms 1-7         entry C          line   111 file /shared/joao/test_parameterize/miniconda3/share/psi4/basis/6-31gs.gbs 
    atoms 8-12, 15-18 entry H          line    44 file /shared/joao/test_parameterize/miniconda3/share/psi4/basis/6-31gs.gbs 
    atoms 13-14       entry N          line   128 file /shared/joao/test_parameterize/miniconda3/share/psi4/basis/6-31gs.gbs 


         ---------------------------------------------------------
                                   SCF
            by Justin Turney, Rob Parrish, Andy Simmonett
                             and Daniel Smith
                              RKS Reference
                        4 Threads,   2861 MiB Core
         ---------------------------------------------------------

  ==> Geometry <==

    Molecular point group: c1
    Full point group: C1

    Geometry (in Angstrom), charge = 1, multiplicity = 1:

       Center              X                  Y                   Z               Mass       
    ------------   -----------------  -----------------  -----------------  -----------------
         C           -0.007312237171     0.003492512385    -0.174685213609    12.000000000000
         C            0.022113981098     1.222212232344     0.519342339467    12.000000000000
         C            0.030719956041     1.212034060478     1.912898601800    12.000000000000
         C            0.002133307574    -0.000833956700     2.606310542189    12.000000000000
         C           -0.028140311720    -1.211631665361     1.909360542637    12.000000000000
         C           -0.025959451554    -1.217586059528     0.515808250174    12.000000000000
         C           -0.001670394457     0.005448182840    -1.653183534620    12.000000000000
         H            0.050039245823     2.165141352336    -0.022326519106     1.007825032070
         H            0.065392465501     2.151411075515     2.455685582091     1.007825032070
         H            0.005033629575    -0.002493174393     3.691934670366     1.007825032070
         H           -0.057568652236    -2.152693427408     2.449332235260     1.007825032070
         H           -0.052123716443    -2.158795197712    -0.028839010865     1.007825032070
         N           -1.130541816773     0.236619166514    -2.308193999075    14.003074004780
         N            1.129283180963    -0.238524753089    -2.300136888070    14.003074004780
         H            1.200360641175    -0.241594316519    -3.315899959321     1.007825032070
         H            1.964321685992    -0.477965046183    -1.768726331727     1.007825032070
         H           -1.970432259255     0.474911260169    -1.783993511054     1.007825032070
         H           -1.195649254132     0.230846754312    -3.323687796536     1.007825032070

  Running in c1 symmetry.

  Rotational constants: A =      0.12183  B =      0.03688  C =      0.03337 [cm^-1]
  Rotational constants: A =   3652.45992  B =   1105.75578  C =   1000.54039 [MHz]
  Nuclear repulsion =  416.040572542805990

  Charge       = 1
  Multiplicity = 1
  Electrons    = 64
  Nalpha       = 32
  Nbeta        = 32

  ==> Algorithm <==

  SCF Algorithm Type is DF.
  DIIS enabled.
  MOM disabled.
  Fractional occupation disabled.
  Guess Type is READ.
  Energy threshold   = 1.00e-08
  Density threshold  = 1.00e-08
  Integral threshold = 0.00e+00

  ==> Primary Basis <==

  Basis Set: 6-31G*
    Blend: 6-31G*
    Number of shells: 72
    Number of basis function: 153
    Number of Cartesian functions: 153
    Spherical Harmonics?: false
    Max angular momentum: 2

  ==> DFT Potential <==

   => Composite Functional: B3LYP-D3ZERO <= 

    B3LYP-d3zero Hyb-GGA Exchange-Correlation Functional

    P. J. Stephens, F. J. Devlin, C. F. Chabalowski, and M. J. Frisch, J. Phys. Chem. 98, 11623 (1994)

    Deriv               =              1
    GGA                 =           TRUE
    Meta                =          FALSE

    Exchange Hybrid     =           TRUE
    MP2 Hybrid          =          FALSE

   => Exchange Functionals <=

    0.0800   Slater exchange
    0.7200         Becke 88

   => Exact (HF) Exchange <=

    0.2000               HF 

   => Correlation Functionals <=

    0.1900   Vosko, Wilk & Nusair (VWN5_RPA)
    0.8100   Lee, Yang & Parr

   => Molecular Quadrature <=

    Radial Scheme       =       TREUTLER
    Pruning Scheme      =           FLAT
    Nuclear Scheme      =       TREUTLER

    BS radius alpha     =              1
    Pruning alpha       =              1
    Radial Points       =             75
    Spherical Points    =            302
    Total Points        =         397354
    Total Blocks        =           3001
    Max Points          =            256
    Max Functions       =            151

   => -D3ZERO: Empirical Dispersion <=

    Grimme's -D3 (zero-damping) Dispersion Correction
    Grimme S.; Antony J.; Ehrlich S.; Krieg H. (2010), J. Chem. Phys., 132: 154104

        S6 =   1.000000E+00
        S8 =   1.703000E+00
       SR6 =   1.261000E+00
       SR8 =   1.000000E+00
    ALPHA6 =   1.400000E+01

   => Loading Basis Set <=

    Name: (6-31G* AUX)
    Role: JKFIT
    Keyword: DF_BASIS_SCF
    atoms 1-7         entry C          line   121 file /shared/joao/test_parameterize/miniconda3/share/psi4/basis/cc-pvdz-jkfit.gbs 
    atoms 8-12, 15-18 entry H          line    51 file /shared/joao/test_parameterize/miniconda3/share/psi4/basis/cc-pvdz-jkfit.gbs 
    atoms 13-14       entry N          line   171 file /shared/joao/test_parameterize/miniconda3/share/psi4/basis/cc-pvdz-jkfit.gbs 

  Reading orbitals from file 180, no projection.

  ==> Pre-Iterations <==

   -------------------------------------------------------
    Irrep   Nso     Nmo     Nalpha   Nbeta   Ndocc  Nsocc
   -------------------------------------------------------
     A        153     153       0       0       0       0
   -------------------------------------------------------
    Total     153     153      32      32      32       0
   -------------------------------------------------------

  ==> Integral Setup <==

  ==> DiskDFJK: Density-Fitted J/K Matrices <==

    J tasked:                  Yes
    K tasked:                  Yes
    wK tasked:                  No
    OpenMP threads:              4
    Integrals threads:           4
    Memory (MB):              2002
    Algorithm:                Core
    Integral Cache:           NONE
    Schwarz Cutoff:          1E-12
    Fitting Condition:       1E-12

   => Auxiliary Basis Set <=

  Basis Set: (6-31G* AUX)
    Blend: CC-PVDZ-JKFIT
    Number of shells: 297
    Number of basis function: 954
    Number of Cartesian functions: 954
    Spherical Harmonics?: false
    Max angular momentum: 3

  Minimum eigenvalue in the overlap matrix is 4.8492528706E-04.
  Using Symmetric Orthogonalization.

  SCF Guess: Orbitals guess was supplied from a previous computation.

  ==> Iterations <==

                           Total Energy        Delta E     RMS |[F,P]|

   @DF-RKS iter   0:  -381.45338905228243   -3.81453e+02   1.03807e-03 
   @DF-RKS iter   1:  -381.46399133344090   -1.06023e-02   1.30391e-04 
   @DF-RKS iter   2:  -381.46400888514478   -1.75517e-05   1.44661e-04 DIIS
   @DF-RKS iter   3:  -381.46406484253652   -5.59574e-05   5.55801e-05 DIIS
   @DF-RKS iter   4:  -381.46407432635596   -9.48382e-06   1.49016e-05 DIIS
   @DF-RKS iter   5:  -381.46407491384423   -5.87488e-07   6.38369e-06 DIIS
   @DF-RKS iter   6:  -381.46407503929464   -1.25450e-07   8.19028e-07 DIIS
   @DF-RKS iter   7:  -381.46407504096555   -1.67091e-09   3.31357e-07 DIIS
   @DF-RKS iter   8:  -381.46407504127313   -3.07580e-10   8.66381e-08 DIIS
   @DF-RKS iter   9:  -381.46407504128985   -1.67120e-11   4.20203e-08 DIIS
   @DF-RKS iter  10:  -381.46407504129479   -4.94538e-12   8.79326e-09 DIIS

  ==> Post-Iterations <==

    Orbital Energies [Eh]
    ---------------------

    Doubly Occupied:                                                      

       1A    -14.576929     2A    -14.576918     3A    -10.503421  
       4A    -10.367932     5A    -10.348907     6A    -10.348852  
       7A    -10.333503     8A    -10.333299     9A    -10.332565  
      10A     -1.190021    11A     -1.097823    12A     -1.008769  
      13A     -0.922336    14A     -0.894746    15A     -0.844595  
      16A     -0.787678    17A     -0.764317    18A     -0.754287  
      19A     -0.727962    20A     -0.690356    21A     -0.666901  
      22A     -0.623437    23A     -0.616235    24A     -0.577267  
      25A     -0.573237    26A     -0.566902    27A     -0.515139  
      28A     -0.497111    29A     -0.490996    30A     -0.479257  
      31A     -0.404243    32A     -0.398073  

    Virtual:                                                              

      33A     -0.198463    34A     -0.161335    35A     -0.147844  
      36A     -0.116459    37A     -0.070910    38A     -0.065545  
      39A     -0.035620    40A     -0.031334    41A      0.009278  
      42A      0.014789    43A      0.024552    44A      0.055960  
      45A      0.059691    46A      0.073803    47A      0.139281  
      48A      0.148136    49A      0.164986    50A      0.188523  
      51A      0.200272    52A      0.214533    53A      0.292119  
      54A      0.341546    55A      0.357520    56A      0.381851  
      57A      0.391213    58A      0.399357    59A      0.403326  
      60A      0.426990    61A      0.442208    62A      0.452711  
      63A      0.454286    64A      0.464574    65A      0.477609  
      66A      0.480853    67A      0.481529    68A      0.495505  
      69A      0.515612    70A      0.529425    71A      0.561395  
      72A      0.576046    73A      0.592926    74A      0.635895  
      75A      0.664026    76A      0.676023    77A      0.677458  
      78A      0.679611    79A      0.699360    80A      0.711900  
      81A      0.732203    82A      0.749864    83A      0.779995  
      84A      0.790066    85A      0.813228    86A      0.834118  
      87A      0.852897    88A      0.941618    89A      0.967878  
      90A      1.008354    91A      1.022277    92A      1.027351  
      93A      1.032234    94A      1.087706    95A      1.140671  
      96A      1.187347    97A      1.207799    98A      1.292604  
      99A      1.302302   100A      1.326182   101A      1.332524  
     102A      1.361789   103A      1.362250   104A      1.387741  
     105A      1.440234   106A      1.460405   107A      1.504965  
     108A      1.586954   109A      1.590829   110A      1.664037  
     111A      1.675568   112A      1.742098   113A      1.769265  
     114A      1.796070   115A      1.822803   116A      1.850233  
     117A      1.898604   118A      1.914166   119A      1.970703  
     120A      1.993572   121A      1.998259   122A      2.001889  
     123A      2.041409   124A      2.082574   125A      2.123857  
     126A      2.143434   127A      2.151438   128A      2.176894  
     129A      2.221023   130A      2.283177   131A      2.379882  
     132A      2.398815   133A      2.405125   134A      2.435721  
     135A      2.509009   136A      2.572082   137A      2.575984  
     138A      2.593742   139A      2.629891   140A      2.633469  
     141A      2.706777   142A      2.889071   143A      2.912393  
     144A      3.261036   145A      3.632664   146A      3.634583  
     147A      3.945608   148A      3.968244   149A      3.987553  
     150A      4.123731   151A      4.180147   152A      4.263109  
     153A      4.555031  

    Final Occupation by Irrep:
              A 
    DOCC [    32 ]

  Energy converged.

  @DF-RKS Final Energy:  -381.46407504129479

   => Energetics <=

    Nuclear Repulsion Energy =            416.0405725428059895
    One-Electron Energy =               -1327.4398622150624760
    Two-Electron Energy =                 574.3441985978727189
    DFT Exchange-Correlation Energy =     -44.3973321069110298
    Empirical Dispersion Energy =          -0.0116518600000000
    VV10 Nonlocal Energy =                  0.0000000000000000
    Total Energy =                       -381.4640750412947909



Properties will be evaluated at   0.000000,   0.000000,   0.000000 [a0]

Properties computed using the SCF density matrix

  Nuclear Dipole Moment: [e a0]
     X:    -0.0909      Y:     0.1025      Z:    -0.1696

  Electronic Dipole Moment: [e a0]
     X:     0.0927      Y:    -0.1052      Z:    -2.3966

  Dipole Moment: [e a0]
     X:     0.0017      Y:    -0.0027      Z:    -2.5661     Total:     2.5661

  Dipole Moment: [D]
     X:     0.0044      Y:    -0.0068      Z:    -6.5224     Total:     6.5224


*** tstop() called on rosa.prib.upf.edu at Sat Sep 29 20:44:32 2018
Module time:
	user time   =      76.78 seconds =       1.28 minutes
	system time =       0.56 seconds =       0.01 minutes
	total time  =         21 seconds =       0.35 minutes
Total time:
	user time   =     206.87 seconds =       3.45 minutes
	system time =       2.00 seconds =       0.03 minutes
	total time  =         58 seconds =       0.97 minutes

*** tstart() called on rosa.prib.upf.edu
*** at Sat Sep 29 20:44:32 2018


         ------------------------------------------------------------
                                   SCF GRAD                          
                          Rob Parrish, Justin Turney,                
                       Andy Simmonett, and Alex Sokolov              
         ------------------------------------------------------------

  ==> Geometry <==

    Molecular point group: c1
    Full point group: C1

    Geometry (in Angstrom), charge = 1, multiplicity = 1:

       Center              X                  Y                   Z               Mass       
    ------------   -----------------  -----------------  -----------------  -----------------
         C           -0.007312237171     0.003492512385    -0.174685213609    12.000000000000
         C            0.022113981098     1.222212232344     0.519342339467    12.000000000000
         C            0.030719956041     1.212034060478     1.912898601800    12.000000000000
         C            0.002133307574    -0.000833956700     2.606310542189    12.000000000000
         C           -0.028140311720    -1.211631665361     1.909360542637    12.000000000000
         C           -0.025959451554    -1.217586059528     0.515808250174    12.000000000000
         C           -0.001670394457     0.005448182840    -1.653183534620    12.000000000000
         H            0.050039245823     2.165141352336    -0.022326519106     1.007825032070
         H            0.065392465501     2.151411075515     2.455685582091     1.007825032070
         H            0.005033629575    -0.002493174393     3.691934670366     1.007825032070
         H           -0.057568652236    -2.152693427408     2.449332235260     1.007825032070
         H           -0.052123716443    -2.158795197712    -0.028839010865     1.007825032070
         N           -1.130541816773     0.236619166514    -2.308193999075    14.003074004780
         N            1.129283180963    -0.238524753089    -2.300136888070    14.003074004780
         H            1.200360641175    -0.241594316519    -3.315899959321     1.007825032070
         H            1.964321685992    -0.477965046183    -1.768726331727     1.007825032070
         H           -1.970432259255     0.474911260169    -1.783993511054     1.007825032070
         H           -1.195649254132     0.230846754312    -3.323687796536     1.007825032070

  Nuclear repulsion =  416.040572542805990

  ==> Basis Set <==

  Basis Set: 6-31G*
    Blend: 6-31G*
    Number of shells: 72
    Number of basis function: 153
    Number of Cartesian functions: 153
    Spherical Harmonics?: false
    Max angular momentum: 2

  ==> DFJKGrad: Density-Fitted SCF Gradients <==

    Gradient:                    1
    J tasked:                  Yes
    K tasked:                  Yes
    wK tasked:                  No
    OpenMP threads:              4
    Integrals threads:           4
    Memory (MB):              2002
    Schwarz Cutoff:          0E+00
    Fitting Condition:       1E-12

   => Auxiliary Basis Set <=

  Basis Set: (6-31G* AUX)
    Blend: CC-PVDZ-JKFIT
    Number of shells: 297
    Number of basis function: 954
    Number of Cartesian functions: 954
    Spherical Harmonics?: false
    Max angular momentum: 3

  ==> DFT Potential <==

   => Composite Functional: B3LYP-D3ZERO <= 

    B3LYP-d3zero Hyb-GGA Exchange-Correlation Functional

    P. J. Stephens, F. J. Devlin, C. F. Chabalowski, and M. J. Frisch, J. Phys. Chem. 98, 11623 (1994)

    Deriv               =              1
    GGA                 =           TRUE
    Meta                =          FALSE

    Exchange Hybrid     =           TRUE
    MP2 Hybrid          =          FALSE

   => Exchange Functionals <=

    0.0800   Slater exchange
    0.7200         Becke 88

   => Exact (HF) Exchange <=

    0.2000               HF 

   => Correlation Functionals <=

    0.1900   Vosko, Wilk & Nusair (VWN5_RPA)
    0.8100   Lee, Yang & Parr

   => Molecular Quadrature <=

    Radial Scheme       =       TREUTLER
    Pruning Scheme      =           FLAT
    Nuclear Scheme      =       TREUTLER

    BS radius alpha     =              1
    Pruning alpha       =              1
    Radial Points       =             75
    Spherical Points    =            302
    Total Points        =         397354
    Total Blocks        =           3001
    Max Points          =            256
    Max Functions       =            151


  -Total Gradient:
     Atom            X                  Y                   Z
    ------   -----------------  -----------------  -----------------
       1       -0.001061975153    -0.000487630119    -0.004427489270
       2        0.001017001790    -0.001262559450     0.001617751912
       3       -0.000226233718     0.000089631574    -0.000661278886
       4       -0.000053938675    -0.000044764908     0.000433662164
       5        0.000256605090    -0.000136500986    -0.000575771097
       6       -0.000433152773     0.001215288729     0.001758422351
       7        0.000527466645     0.001627484290     0.005150699308
       8        0.000108212180     0.000804670948    -0.000384415034
       9        0.000263292863     0.000066062258     0.000096450032
      10        0.000013788818     0.000000622024     0.000050663448
      11       -0.000258397823    -0.000005989228     0.000063060205
      12       -0.000014025288    -0.000761659499    -0.000388408155
      13        0.001968404973    -0.003679411475    -0.001435274824
      14       -0.002067753286     0.002866076042    -0.001121334507
      15       -0.000334167155     0.001249122929    -0.003001689795
      16        0.003599935189    -0.002723636903     0.002665621545
      17       -0.003702290846     0.002534997319     0.002571241461
      18        0.000396795848    -0.001350834159    -0.002419656503


*** tstop() called on rosa.prib.upf.edu at Sat Sep 29 20:44:40 2018
Module time:
	user time   =      27.98 seconds =       0.47 minutes
	system time =       0.36 seconds =       0.01 minutes
	total time  =          8 seconds =       0.13 minutes
Total time:
	user time   =     234.92 seconds =       3.92 minutes
	system time =       2.36 seconds =       0.04 minutes
	total time  =         66 seconds =       1.10 minutes

			-----------------------------------------
			 OPTKING 2.0: for geometry optimizations 
			  - R.A. King,  Bethel University        
			-----------------------------------------
	At level 1: Red. Int., RFO, no backsteps, dynamic trust

	Previous internal coordinate definitions found.
	---Fragment 1 Geometry and Gradient---
	 C          -0.0138181257        0.0065998919       -0.3301072132
	 C           0.0417893680        2.3096463954        0.9814147908
	 C           0.0580523037        2.2904124380        3.6148544774
	 C           0.0040313671       -0.0015759498        4.9252131420
	 C          -0.0531774824       -2.2896520215        3.6081685145
	 C          -0.0490562540       -2.3009041957        0.9747363299
	 C          -0.0031565881        0.0102955735       -3.1240641278
	 H           0.0945604705        4.0915241949       -0.0421910066
	 H           0.1235738510        4.0655777320        4.6405732186
	 H           0.0095121814       -0.0047114168        6.9767454275
	 H          -0.1087889866       -4.0680010259        4.6285671331
	 H          -0.0984995491       -4.0795317007       -0.0544978325
	 N          -2.1364144155        0.4471454225       -4.3618545198
	 N           2.1340359385       -0.4507464593       -4.3466287866
	 H           2.2683528725       -0.4565470935       -6.2661428072
	 H           3.7120300234       -0.9032230384       -3.3424083710
	 H          -3.7235773334        0.8974522191       -3.3712591587
	 H          -2.2594496413        0.4362371443       -6.2808596867
	            -0.0010619752       -0.0004876301       -0.0044274893
	             0.0010170018       -0.0012625594        0.0016177519
	            -0.0002262337        0.0000896316       -0.0006612789
	            -0.0000539387       -0.0000447649        0.0004336622
	             0.0002566051       -0.0001365010       -0.0005757711
	            -0.0004331528        0.0012152887        0.0017584224
	             0.0005274666        0.0016274843        0.0051506993
	             0.0001082122        0.0008046709       -0.0003844150
	             0.0002632929        0.0000660623        0.0000964500
	             0.0000137888        0.0000006220        0.0000506634
	            -0.0002583978       -0.0000059892        0.0000630602
	            -0.0000140253       -0.0007616595       -0.0003884082
	             0.0019684050       -0.0036794115       -0.0014352748
	            -0.0020677533        0.0028660760       -0.0011213345
	            -0.0003341672        0.0012491229       -0.0030016898
	             0.0035999352       -0.0027236369        0.0026656215
	            -0.0037022908        0.0025349973        0.0025712415
	             0.0003967958       -0.0013508342       -0.0024196565

	---Fragment 1 Intrafragment Coordinates---
	 - Coordinate -           - BOHR/RAD -       - ANG/DEG -
	 R(1,2)           =         2.650888	       1.402789
	 R(1,6)           =         2.651119	       1.402912
	 R(1,7)           =         2.793980	       1.478510
	 R(2,3)           =         2.633560	       1.393620
	 R(2,8)           =         2.055637	       1.087796
	 R(3,4)           =         2.640676	       1.397385
	 R(3,9)           =         2.051244	       1.085472
	 R(4,5)           =         2.640676	       1.397386
	 R(4,10)          =         2.051542	       1.085629
	 R(5,6)           =         2.633459	       1.393567
	 R(5,11)          =         2.051056	       1.085372
	 R(6,12)          =         2.055549	       1.087750
	 R(7,13)          =         2.504746	       1.325454
	 R(7,14)          =         2.504958	       1.325567
	 R(13,17)         =         1.924355	       1.018325
	 R(13,18)         =         1.922976	       1.017595
	 R(14,15)         =         1.924216	       1.018251
	 R(14,16)         =         1.924385	       1.018341
	 B(1,2,3)         =         2.081178	     119.242700
	 B(1,2,8)         =         2.102800	     120.481587
	 B(1,6,5)         =         2.081146	     119.240898
	 B(1,6,12)        =         2.102506	     120.464732
	 B(1,7,13)        =         2.084211	     119.416509
	 B(1,7,14)        =         2.084110	     119.410679
	 B(2,1,6)         =         2.109414	     120.860507
	 B(2,1,7)         =         2.086923	     119.571875
	 B(2,3,4)         =         2.097181	     120.159636
	 B(2,3,9)         =         2.087367	     119.597307
	 B(3,2,8)         =         2.099136	     120.271641
	 B(3,4,5)         =         2.100192	     120.332138
	 B(3,4,10)        =         2.091500	     119.834110
	 B(4,3,9)         =         2.098622	     120.242165
	 B(4,5,6)         =         2.097187	     120.159967
	 B(4,5,11)        =         2.098703	     120.246823
	 B(5,4,10)        =         2.091492	     119.833683
	 B(5,6,12)        =         2.099442	     120.289164
	 B(6,1,7)         =         2.086772	     119.563239
	 B(6,5,11)        =         2.087287	     119.592743
	 B(7,13,17)       =         2.081598	     119.266769
	 B(7,13,18)       =         2.149167	     123.138209
	 B(7,14,15)       =         2.149543	     123.159749
	 B(7,14,16)       =         2.080821	     119.222245
	 B(13,7,14)       =         2.114792	     121.168634
	 B(15,14,16)      =         2.051741	     117.556090
	 B(17,13,18)      =         2.051340	     117.533123
	 D(1,2,3,4)       =        -0.006667	      -0.381991
	 D(1,2,3,9)       =         3.128943	     179.275238
	 D(1,6,5,4)       =        -0.011611	      -0.665289
	 D(1,6,5,11)      =         3.125653	     179.086731
	 D(1,7,13,17)     =         0.075547	       4.328516
	 D(1,7,13,18)     =        -3.117259	    -178.605765
	 D(1,7,14,15)     =        -3.129937	    -179.332188
	 D(1,7,14,16)     =         0.062865	       3.601906
	 D(2,1,6,5)       =         0.010848	       0.621565
	 D(2,1,6,12)      =         3.137998	     179.794047
	*D(2,1,7,13)      =        -1.396264	     -80.000026
	 D(2,1,7,14)      =         1.758153	     100.734736
	 D(2,3,4,5)       =         0.005900	       0.338071
	 D(2,3,4,10)      =        -3.137374	    -179.758278
	 D(3,2,1,6)       =        -0.001718	      -0.098439
	 D(3,2,1,7)       =        -3.129966	    -179.333841
	 D(3,4,5,6)       =         0.003374	       0.193321
	 D(3,4,5,11)      =        -3.133862	    -179.557064
	 D(4,3,2,8)       =        -3.135509	    -179.651445
	 D(4,5,6,12)      =        -3.138787	    -179.839256
	 D(5,4,3,9)       =        -3.129671	    -179.316931
	 D(5,6,1,7)       =         3.139097	     179.857031
	 D(6,1,2,8)       =         3.127097	     179.169443
	 D(6,1,7,13)      =         1.758499	     100.754557
	 D(6,1,7,14)      =        -1.370270	     -78.510681
	 D(6,5,4,10)      =        -3.136537	    -179.710329
	 D(7,1,2,8)       =        -0.001151	      -0.065958
	 D(7,1,6,12)      =        -0.016938	      -0.970487
	 D(8,2,3,9)       =         0.000101	       0.005785
	 D(9,3,4,10)      =         0.010240	       0.586720
	 D(10,4,5,11)     =         0.009412	       0.539285
	 D(11,5,6,12)     =        -0.001523	      -0.087236
	 D(13,7,14,15)    =         0.024711	       1.415820
	 D(13,7,14,16)    =        -3.065672	    -175.650086
	 D(14,7,13,17)    =        -3.079102	    -176.419536
	 D(14,7,13,18)    =         0.011278	       0.646184

	Current energy   :      -381.4640750413

	Energy change for the previous step:
		Projected    :        -0.0059096604
		Actual       :        -0.0022338027

	Performing BFGS update.
	Previous computed or guess Hessian on step 1.
	Steps to be used in Hessian update: 1
	Taking RFO optimization step.
	Going to follow RFO solution 1.
	Using RFO vector 1.
	Norm of target step-size    0.23242
	Projected energy change by RFO approximation:         0.0000019350

	Back-transformation to cartesian coordinates...
	Could not converge backtransformation.
	Using first guess instead.

	Back-transformation to cartesian coordinates to adjust frozen coordinates...
	Successfully converged to displaced geometry.

	--- Internal Coordinate Step in ANG or DEG, aJ/ANG or AJ/DEG ---
	 ---------------------------------------------------------------------------
	   Coordinate                Previous        Force       Change         New 
	   ----------                --------       ------       ------       ------
	    1 R(1,2)          =      1.402789    -0.002855    -0.001088     1.401702
	    2 R(1,6)          =      1.402912    -0.003502    -0.001063     1.401849
	    3 R(1,7)          =      1.478510     0.019859     0.006197     1.484707
	    4 R(2,3)          =      1.393620     0.002461     0.000775     1.394395
	    5 R(2,8)          =      1.087796    -0.007345    -0.001269     1.086527
	    6 R(3,4)          =      1.397385    -0.000096    -0.000067     1.397318
	    7 R(3,9)          =      1.085472    -0.000940    -0.000083     1.085389
	    8 R(4,5)          =      1.397386     0.000419    -0.000012     1.397374
	    9 R(4,10)         =      1.085629    -0.000421    -0.000070     1.085559
	   10 R(5,6)          =      1.393567     0.002428     0.000784     1.394350
	   11 R(5,11)         =      1.085372    -0.000361     0.000147     1.085519
	   12 R(6,12)         =      1.087750    -0.007033    -0.001202     1.086547
	   13 R(7,13)         =      1.325454    -0.011015    -0.002027     1.323427
	   14 R(7,14)         =      1.325567    -0.012169    -0.001632     1.323935
	   15 R(13,17)        =      1.018325    -0.040949    -0.003584     1.014741
	   16 R(13,18)        =      1.017595    -0.019745    -0.000988     1.016607
	   17 R(14,15)        =      1.018251    -0.024442    -0.000897     1.017355
	   18 R(14,16)        =      1.018341    -0.041060    -0.002967     1.015374
	   19 B(1,2,3)        =    119.242700    -0.000044    -0.233580   119.009120
	   20 B(1,2,8)        =    120.481587     0.000017     0.054453   120.536039
	   21 B(1,6,5)        =    119.240898    -0.000047    -0.245974   118.994925
	   22 B(1,6,12)       =    120.464732     0.000020     0.065160   120.529893
	   23 B(1,7,13)       =    119.416509    -0.000077    -0.373722   119.042787
	   24 B(1,7,14)       =    119.410679    -0.000090    -0.449190   118.961489
	   25 B(2,1,6)        =    120.860507     0.000083     0.404632   121.265139
	   26 B(2,1,7)        =    119.571875    -0.000032    -0.181052   119.390823
	   27 B(2,3,4)        =    120.159636    -0.000011    -0.030275   120.129361
	   28 B(2,3,9)        =    119.597307     0.000002    -0.016416   119.580891
	   29 B(3,2,8)        =    120.271641     0.000027     0.182104   120.453744
	   30 B(3,4,5)        =    120.332138     0.000027     0.118654   120.450792
	   31 B(3,4,10)       =    119.834110    -0.000013    -0.056960   119.777150
	   32 B(4,3,9)        =    120.242165     0.000009     0.047219   120.289384
	   33 B(4,5,6)        =    120.159967    -0.000008    -0.020739   120.139228
	   34 B(4,5,11)       =    120.246823     0.000008     0.040261   120.287084
	   35 B(5,4,10)       =    119.833683    -0.000013    -0.062049   119.771633
	   36 B(5,6,12)       =    120.289164     0.000027     0.180896   120.470060
	   37 B(6,1,7)        =    119.563239    -0.000052    -0.272004   119.291235
	   38 B(6,5,11)       =    119.592743     0.000000    -0.019135   119.573608
	   39 B(7,13,17)      =    119.266769    -0.000028    -0.381662   118.885107
	   40 B(7,13,18)      =    123.138209     0.000075     0.463966   123.602175
	   41 B(7,14,15)      =    123.159749     0.000070     0.488134   123.647883
	   42 B(7,14,16)      =    119.222245    -0.000021    -0.420024   118.802221
	   43 B(13,7,14)      =    121.168634     0.000167     0.801917   121.970551
	   44 B(15,14,16)     =    117.556090    -0.000048    -0.016028   117.540062
	   45 B(17,13,18)     =    117.533123    -0.000046    -0.048286   117.484837
	   46 D(1,2,3,4)      =     -0.381991     0.000003     0.634460     0.252468
	   47 D(1,2,3,9)      =    179.275238     0.000004     0.758497   180.033735
	   48 D(1,6,5,4)      =     -0.665289     0.000000    -0.065901    -0.731190
	   49 D(1,6,5,11)     =    179.086731     0.000002     0.284322   179.371053
	   50 D(1,7,13,17)    =      4.328516    -0.000019    -4.102051     0.226464
	   51 D(1,7,13,18)    =   -178.605765    -0.000015    -3.139143  -181.744908
	   52 D(1,7,14,15)    =   -179.332188    -0.000017    -3.975282  -183.307470
	   53 D(1,7,14,16)    =      3.601906    -0.000026    -5.739020    -2.137114
	   54 D(2,1,6,5)      =      0.621565     0.000002     0.684076     1.305641
	   55 D(2,1,6,12)     =    179.794047     0.000003     0.692110   180.486157
	   56 *D(2,1,7,13)    =    -80.000026    -0.000000     0.000000   -80.000026
	   57 D(2,1,7,14)     =    100.734736     0.000003     1.053781   101.788517
	   58 D(2,3,4,5)      =      0.338071    -0.000000    -0.035368     0.302704
	   59 D(2,3,4,10)     =   -179.758278    -0.000001    -0.176886  -179.935164
	   60 D(3,2,1,6)      =     -0.098439    -0.000003    -0.968121    -1.066560
	   61 D(3,2,1,7)      =   -179.333841     0.000003     0.929050  -178.404791
	   62 D(3,4,5,6)      =      0.193321    -0.000001    -0.252365    -0.059044
	   63 D(3,4,5,11)     =   -179.557064    -0.000003    -0.604958  -180.162022
	   64 D(4,3,2,8)      =   -179.651445     0.000000     0.282766  -179.368678
	   65 D(4,5,6,12)     =   -179.839256    -0.000001    -0.072954  -179.912210
	   66 D(5,4,3,9)      =   -179.316931    -0.000001    -0.160069  -179.477000
	   67 D(5,6,1,7)      =    179.857031    -0.000004    -1.210559   178.646473
	   68 D(6,1,2,8)      =    179.169443    -0.000001    -0.615177   178.554266
	   69 D(6,1,7,13)     =    100.754557     0.000006     1.854138   102.608695
	   70 D(6,1,7,14)     =    -78.510681     0.000009     2.907919   -75.602762
	   71 D(6,5,4,10)     =   -179.710329    -0.000001    -0.110859  -179.821189
	   72 D(7,1,2,8)      =     -0.065958     0.000005     1.281993     1.216035
	   73 D(7,1,6,12)     =     -0.970487    -0.000003    -1.202525    -2.173011
	   74 D(8,2,3,9)      =      0.005785     0.000001     0.406803     0.412588
	   75 D(9,3,4,10)     =      0.586720    -0.000002    -0.301587     0.285132
	   76 D(10,4,5,11)    =      0.539285    -0.000002    -0.463453     0.075832
	   77 D(11,5,6,12)    =     -0.087236     0.000001     0.277269     0.190033
	   78 D(13,7,14,15)   =      1.415820    -0.000014    -2.880045    -1.464224
	   79 D(13,7,14,16)   =   -175.650086    -0.000022    -4.643782  -180.293868
	   80 D(14,7,13,17)   =   -176.419536    -0.000023    -5.198697  -181.618232
	   81 D(14,7,13,18)   =      0.646184    -0.000018    -4.235788    -3.589605
	 ---------------------------------------------------------------------------
	Successfully symmetrized geometry.

  ==> Convergence Check <==

  Measures of convergence in internal coordinates in au.
  Criteria marked as inactive (o), active & met (*), and active & unmet ( ).
  ---------------------------------------------------------------------------------------------
   Step     Total Energy     Delta E     MAX Force     RMS Force      MAX Disp      RMS Disp   
  ---------------------------------------------------------------------------------------------
    Convergence Criteria    1.00e-06 *    3.00e-04 *             o    1.20e-03 *             o
  ---------------------------------------------------------------------------------------------
      2    -381.46407504   -2.23e-03      4.98e-03      1.11e-03 o    1.00e-01      2.57e-02 o  ~
  ---------------------------------------------------------------------------------------------

	Writing optimization data to binary file.
	Structure for next step:
	Cartesian Geometry (in Angstrom)
	    C    -0.0267098390   0.0085012853  -0.1741237521
	    C     0.0125031581   1.2270000371   0.5176061341
	    C     0.0277438550   1.2128921445   1.9118464579
	    C     0.0093991097  -0.0023977577   2.6012170912
	    C    -0.0179373895  -1.2124137073   1.9028126016
	    C    -0.0283798731  -1.2159148559   0.5085057979
	    C    -0.0071978022   0.0124581772  -1.6586975655
	    H     0.0369587645   2.1686594094  -0.0238920324
	    H     0.0575182024   2.1510411911   2.4568774975
	    H     0.0203417194  -0.0066869523   3.6867124361
	    H    -0.0294920046  -2.1550372280   2.4410314049
	    H    -0.0510530694  -2.1536003194  -0.0399622309
	    N    -1.1292665718   0.2599887581  -2.3153176029
	    N     1.1248326024  -0.2671478575  -2.2857000485
	    H     1.2075659095  -0.3321992582  -3.2975963163
	    H     1.9585706106  -0.4449076780  -1.7340957181
	    H    -1.9757731236   0.4446711216  -1.7870953045
	    H    -1.1896242584   0.3050924900  -3.3291288500
			--------------------------
			 OPTKING Finished Execution 
			--------------------------

    Structure for next step:
    Molecular point group: c1
    Full point group: C1

    Geometry (in Angstrom), charge = 1, multiplicity = 1:

    C           -0.026709838957     0.008501285318    -0.174123752132
    C            0.012503158073     1.227000037100     0.517606134094
    C            0.027743854994     1.212892144499     1.911846457933
    C            0.009399109692    -0.002397757738     2.601217091178
    C           -0.017937389498    -1.212413707321     1.902812601598
    C           -0.028379873083    -1.215914855880     0.508505797874
    C           -0.007197802215     0.012458177210    -1.658697565523
    H            0.036958764516     2.168659409380    -0.023892032416
    H            0.057518202380     2.151041191061     2.456877497466
    H            0.020341719390    -0.006686952257     3.686712436135
    H           -0.029492004628    -2.155037227955     2.441031404944
    H           -0.051053069372    -2.153600319387    -0.039962230877
    N           -1.129266571829     0.259988758144    -2.315317602882
    N            1.124832602383    -0.267147857497    -2.285700048517
    H            1.207565909513    -0.332199258202    -3.297596316331
    H            1.958570610629    -0.444907677979    -1.734095718066
    H           -1.975773123595     0.444671121552    -1.787095304457
    H           -1.189624258394     0.305092489952    -3.329128850021

gradient() will perform analytic gradient computation.

*** tstart() called on rosa.prib.upf.edu
*** at Sat Sep 29 20:44:40 2018

   => Loading Basis Set <=

    Name: 6-31G*
    Role: ORBITAL
    Keyword: BASIS
    atoms 1-7         entry C          line   111 file /shared/joao/test_parameterize/miniconda3/share/psi4/basis/6-31gs.gbs 
    atoms 8-12, 15-18 entry H          line    44 file /shared/joao/test_parameterize/miniconda3/share/psi4/basis/6-31gs.gbs 
    atoms 13-14       entry N          line   128 file /shared/joao/test_parameterize/miniconda3/share/psi4/basis/6-31gs.gbs 


         ---------------------------------------------------------
                                   SCF
            by Justin Turney, Rob Parrish, Andy Simmonett
                             and Daniel Smith
                              RKS Reference
                        4 Threads,   2861 MiB Core
         ---------------------------------------------------------

  ==> Geometry <==

    Molecular point group: c1
    Full point group: C1

    Geometry (in Angstrom), charge = 1, multiplicity = 1:

       Center              X                  Y                   Z               Mass       
    ------------   -----------------  -----------------  -----------------  -----------------
[...]
	             0.0000109914        0.0000131285       -0.0000341289
	             0.0025058137        0.0044933893        0.0000493674
	            -0.0000069533       -0.0000021117        0.0000015183
	            -0.0000056482       -0.0000024054        0.0000028124
	             0.0000021490        0.0000002500       -0.0000001911
	             0.0000062122       -0.0000007315       -0.0000009560
	             0.0000079524       -0.0000030231        0.0000028221
	            -0.0007122182       -0.0032068450       -0.0000104736
	            -0.0000158510        0.0000424005        0.0000264768
	             0.0000021643       -0.0000081901       -0.0000105156
	             0.0000172799        0.0000017100       -0.0000066535
	            -0.0000096462        0.0000059519       -0.0000051036
	            -0.0000048004       -0.0000012951       -0.0000057283

	---Fragment 1 Intrafragment Coordinates---
	 - Coordinate -           - BOHR/RAD -       - ANG/DEG -
	 R(1,2)           =         2.649914	       1.402274
	 R(1,6)           =         2.650554	       1.402613
	 R(1,7)           =         2.802652	       1.483099
	 R(2,3)           =         2.634664	       1.394204
	 R(2,8)           =         2.052944	       1.086371
	 R(3,4)           =         2.640442	       1.397261
	 R(3,9)           =         2.050899	       1.085289
	 R(4,5)           =         2.641014	       1.397565
	 R(4,10)          =         2.051508	       1.085611
	 R(5,6)           =         2.634183	       1.393950
	 R(5,11)          =         2.050941	       1.085311
	 R(6,12)          =         2.052890	       1.086343
	 R(7,13)          =         2.501768	       1.323878
	 R(7,14)          =         2.501724	       1.323856
	 R(13,17)         =         1.913576	       1.012621
	 R(13,18)         =         1.917869	       1.014893
	 R(14,15)         =         1.917866	       1.014891
	 R(14,16)         =         1.913529	       1.012596
	 B(1,2,3)         =         2.078197	     119.071925
	 B(1,2,8)         =         2.103395	     120.515664
	 B(1,6,5)         =         2.077615	     119.038562
	 B(1,6,12)        =         2.103203	     120.504637
	 B(1,7,13)        =         2.080953	     119.229798
	 B(1,7,14)        =         2.077074	     119.007547
	 B(2,1,6)         =         2.114751	     121.166323
	 B(2,1,7)         =         2.085447	     119.487315
	 B(2,3,4)         =         2.096141	     120.100048
	 B(2,3,9)         =         2.088101	     119.639354
	 B(3,2,8)         =         2.101590	     120.412219
	 B(3,4,5)         =         2.102695	     120.475554
	 B(3,4,10)        =         2.090343	     119.767845
	 B(4,3,9)         =         2.098936	     120.260197
	 B(4,5,6)         =         2.096567	     120.124451
	 B(4,5,11)        =         2.098769	     120.250581
	 B(5,4,10)        =         2.090139	     119.756171
	 B(5,6,12)        =         2.102230	     120.448917
	 B(6,1,7)         =         2.081023	     119.233807
	 B(6,5,11)        =         2.087841	     119.624506
	 B(7,13,17)       =         2.078770	     119.104749
	 B(7,13,18)       =         2.156982	     123.585986
	 B(7,14,15)       =         2.156596	     123.563861
	 B(7,14,16)       =         2.078627	     119.096555
	 B(13,7,14)       =         2.124430	     121.720871
	 B(15,14,16)      =         2.047896	     117.335814
	 B(17,13,18)      =         2.046958	     117.282040
	 D(1,2,3,4)       =         0.002577	       0.147623
	 D(1,2,3,9)       =         3.140157	     179.917759
	 D(1,6,5,4)       =        -0.022445	      -1.286029
	 D(1,6,5,11)      =         3.123454	     178.960740
	 D(1,7,13,17)     =        -0.001588	      -0.090994
	 D(1,7,13,18)     =         3.105940	     177.957282
	 D(1,7,14,15)     =         3.085706	     176.797913
	 D(1,7,14,16)     =        -0.068558	      -3.928056
	 D(2,1,6,5)       =         0.032944	       1.887565
	 D(2,1,6,12)      =        -3.126395	    -179.129230
	*D(2,1,7,13)      =        -1.396264	     -80.000026
	 D(2,1,7,14)      =         1.785646	     102.309956
	 D(2,3,4,5)       =         0.007534	       0.431676
	 D(2,3,4,10)      =        -3.138231	    -179.807372
	 D(3,2,1,6)       =        -0.023018	      -1.318841
	 D(3,2,1,7)       =        -3.096770	    -177.431879
	 D(3,4,5,6)       =         0.002575	       0.147525
	 D(3,4,5,11)      =         3.139833	     179.899198
	 D(4,3,2,8)       =        -3.136250	    -179.693887
	 D(4,5,6,12)      =         3.136883	     179.730184
	 D(5,4,3,9)       =        -3.130021	    -179.337020
	 D(5,6,1,7)       =         3.106865	     178.010281
	 D(6,1,2,8)       =         3.115805	     178.522500
	 D(6,1,7,13)      =         1.811848	     103.811254
	 D(6,1,7,14)      =        -1.289428	     -73.878764
	 D(6,5,4,10)      =        -3.134846	    -179.613454
	 D(7,1,2,8)       =         0.042053	       2.409462
	 D(7,1,6,12)      =        -0.052474	      -3.006514
	 D(8,2,3,9)       =         0.001331	       0.076249
	 D(9,3,4,10)      =         0.007399	       0.423932
	 D(10,4,5,11)     =         0.002412	       0.138219
	 D(11,5,6,12)     =        -0.000402	      -0.023046
	 D(13,7,14,15)    =        -0.014525	      -0.832194
	 D(13,7,14,16)    =         3.114398	     178.441837
	 D(14,7,13,17)    =         3.098553	     177.533985
	 D(14,7,13,18)    =        -0.077104	      -4.417740

	Current energy   :      -381.4646557515

	Energy change for the previous step:
		Projected    :        -0.0000022176
		Actual       :        -0.0000003906
	Energy ratio indicates iffy step: Trust radius decreased to 1.250e-01.


	Performing BFGS update.
	Previous computed or guess Hessian on step 1.
	Steps to be used in Hessian update: 5 4
	Taking RFO optimization step.
	Going to follow RFO solution 1.
	Rejecting RFO root 1 because normalization gives large value.
	Using RFO vector 2.
	Norm of target step-size    0.00280
	Projected energy change by RFO approximation:        -0.0000000594

	Back-transformation to cartesian coordinates...
	Could not converge backtransformation.
	Using first guess instead.

	Back-transformation to cartesian coordinates to adjust frozen coordinates...
	Successfully converged to displaced geometry.

	--- Internal Coordinate Step in ANG or DEG, aJ/ANG or AJ/DEG ---
	 ---------------------------------------------------------------------------
	   Coordinate                Previous        Force       Change         New 
	   ----------                --------       ------       ------       ------
	    1 R(1,2)          =      1.402274    -0.000006     0.000003     1.402277
	    2 R(1,6)          =      1.402613     0.000166     0.000028     1.402641
	    3 R(1,7)          =      1.483099     0.000030    -0.000019     1.483081
	    4 R(2,3)          =      1.394204     0.000058     0.000005     1.394209
	    5 R(2,8)          =      1.086371     0.000024     0.000004     1.086375
	    6 R(3,4)          =      1.397261    -0.000041    -0.000005     1.397257
	    7 R(3,9)          =      1.085289     0.000004     0.000001     1.085290
	    8 R(4,5)          =      1.397565     0.000021     0.000007     1.397571
	    9 R(4,10)         =      1.085611    -0.000004    -0.000002     1.085610
	   10 R(5,6)          =      1.393950    -0.000049    -0.000012     1.393938
	   11 R(5,11)         =      1.085311    -0.000003     0.000000     1.085312
	   12 R(6,12)         =      1.086343    -0.000005    -0.000000     1.086343
	   13 R(7,13)         =      1.323878    -0.000068    -0.000002     1.323876
	   14 R(7,14)         =      1.323856     0.000089     0.000016     1.323872
	   15 R(13,17)        =      1.012621    -0.000058     0.000001     1.012622
	   16 R(13,18)        =      1.014893    -0.000044     0.000003     1.014895
	   17 R(14,15)        =      1.014891    -0.000086     0.000003     1.014895
	   18 R(14,16)        =      1.012596    -0.000088     0.000002     1.012598
	   19 B(1,2,3)        =    119.071925     0.000000     0.001380   119.073306
	   20 B(1,2,8)        =    120.515664    -0.000000    -0.000775   120.514889
	   21 B(1,6,5)        =    119.038562     0.000000     0.001846   119.040408
	   22 B(1,6,12)       =    120.504637    -0.000001    -0.003140   120.501497
	   23 B(1,7,13)       =    119.229798     0.000000     0.001522   119.231320
	   24 B(1,7,14)       =    119.007547    -0.000000    -0.001435   119.006112
	   25 B(2,1,6)        =    121.166323    -0.000001    -0.002665   121.163658
	   26 B(2,1,7)        =    119.487315     0.000000     0.002589   119.489905
	   27 B(2,3,4)        =    120.100048     0.000000     0.001001   120.101048
	   28 B(2,3,9)        =    119.639354    -0.000000    -0.001772   119.637582
	   29 B(3,2,8)        =    120.412219    -0.000000    -0.000652   120.411567
	   30 B(3,4,5)        =    120.475554    -0.000000    -0.001225   120.474329
	   31 B(3,4,10)       =    119.767845     0.000000     0.000979   119.768824
	   32 B(4,3,9)        =    120.260197     0.000000     0.000776   120.260973
	   33 B(4,5,6)        =    120.124451     0.000000     0.000564   120.125015
	   34 B(4,5,11)       =    120.250581    -0.000000    -0.000197   120.250383
	   35 B(5,4,10)       =    119.756171     0.000000     0.000289   119.756460
	   36 B(5,6,12)       =    120.448917     0.000000     0.001185   120.450102
	   37 B(6,1,7)        =    119.233807     0.000001     0.003509   119.237316
	   38 B(6,5,11)       =    119.624506    -0.000000    -0.000331   119.624175
	   39 B(7,13,17)      =    119.104749    -0.000001    -0.003198   119.101551
	   40 B(7,13,18)      =    123.585986     0.000000     0.000171   123.586158
	   41 B(7,14,15)      =    123.563861     0.000000     0.001491   123.565352
	   42 B(7,14,16)      =    119.096555    -0.000001    -0.005142   119.091413
	   43 B(13,7,14)      =    121.720871    -0.000000    -0.002240   121.718631
	   44 B(15,14,16)     =    117.335814     0.000001     0.003430   117.339244
	   45 B(17,13,18)     =    117.282040     0.000001     0.002839   117.284879
	   46 D(1,2,3,4)      =      0.147623     0.000000    -0.017817     0.129806
	   47 D(1,2,3,9)      =    179.917759    -0.000000    -0.016582   179.901177
	   48 D(1,6,5,4)      =     -1.286029     0.000000     0.012643    -1.273386
	   49 D(1,6,5,11)     =    178.960740     0.000000     0.002791   178.963531
	   50 D(1,7,13,17)    =     -0.090994     0.000000     0.029175    -0.061819
	   51 D(1,7,13,18)    =    177.957282     0.000000     0.022518   177.979800
	   52 D(1,7,14,15)    =    176.797913    -0.000000    -0.004659   176.793254
	   53 D(1,7,14,16)    =     -3.928056    -0.000000    -0.025605    -3.953661
	   54 D(2,1,6,5)      =      1.887565    -0.000000    -0.037448     1.850117
	   55 D(2,1,6,12)     =   -179.129230    -0.000000    -0.044438  -179.173668
	   56 *D(2,1,7,13)    =    -80.000026     0.000000     0.000000   -80.000026
	   57 D(2,1,7,14)     =    102.309956     0.000000     0.058784   102.368740
	   58 D(2,3,4,5)      =      0.431676    -0.000000    -0.006272     0.425404
	   59 D(2,3,4,10)     =   -179.807372    -0.000000     0.006044  -179.801328
	   60 D(3,2,1,6)      =     -1.318841     0.000000     0.040046    -1.278795
	   61 D(3,2,1,7)      =   -177.431879    -0.000000    -0.019765  -177.451644
	   62 D(3,4,5,6)      =      0.147525    -0.000000     0.008897     0.156423
	   63 D(3,4,5,11)     =    179.899198     0.000000     0.018812   179.918010
	   64 D(4,3,2,8)      =   -179.693887     0.000000     0.000509  -179.693378
	   65 D(4,5,6,12)     =    179.730184     0.000000     0.019674   179.749859
	   66 D(5,4,3,9)      =   -179.337020     0.000000    -0.007509  -179.344529
	   67 D(5,6,1,7)      =    178.010281     0.000000     0.022179   178.032460
	   68 D(6,1,2,8)      =    178.522500     0.000000     0.021700   178.544200
	   69 D(6,1,7,13)     =    103.811254    -0.000000    -0.058408   103.752846
	   70 D(6,1,7,14)     =    -73.878764     0.000000     0.000376   -73.878388
	   71 D(6,5,4,10)     =   -179.613454    -0.000000    -0.003419  -179.616873
	   72 D(7,1,2,8)      =      2.409462    -0.000000    -0.038111     2.371352
	   73 D(7,1,6,12)     =     -3.006514     0.000000     0.015190    -2.991325
	   74 D(8,2,3,9)      =      0.076249    -0.000000     0.001744     0.077993
	   75 D(9,3,4,10)     =      0.423932     0.000000     0.004807     0.428739
	   76 D(10,4,5,11)    =      0.138219     0.000000     0.006496     0.144714
	   77 D(11,5,6,12)    =     -0.023046    -0.000000     0.009822    -0.013225
	   78 D(13,7,14,15)   =     -0.832194     0.000000     0.055556    -0.776638
	   79 D(13,7,14,16)   =    178.441837     0.000000     0.034611   178.476447
	   80 D(14,7,13,17)   =    177.533985    -0.000000    -0.031241   177.502744
	   81 D(14,7,13,18)   =     -4.417740    -0.000000    -0.037898    -4.455637
	 ---------------------------------------------------------------------------
	Successfully symmetrized geometry.

  ==> Convergence Check <==

  Measures of convergence in internal coordinates in au.
  Criteria marked as inactive (o), active & met (*), and active & unmet ( ).
  ---------------------------------------------------------------------------------------------
   Step     Total Energy     Delta E     MAX Force     RMS Force      MAX Disp      RMS Disp   
  ---------------------------------------------------------------------------------------------
    Convergence Criteria    1.00e-06 *    3.00e-04 *             o    1.20e-03 *             o
  ---------------------------------------------------------------------------------------------
      6    -381.46465575   -3.91e-07 *    2.02e-05 *    6.77e-06 o    1.03e-03 *    3.11e-04 o  ~
  ---------------------------------------------------------------------------------------------


  **** Optimization is complete! (in 6 steps) ****

  ==> Optimization Summary <==

  Measures of convergence in internal coordinates in au.
  --------------------------------------------------------------------------------------------------------------- ~
   Step         Total Energy             Delta E       MAX Force       RMS Force        MAX Disp        RMS Disp  ~
  --------------------------------------------------------------------------------------------------------------- ~
      1    -381.461841238642   -381.461841238642      0.00801317      0.00191985      0.12535406      0.03872293  ~
      2    -381.464075041295     -0.002233802653      0.00498378      0.00111105      0.10016479      0.02574610  ~
      3    -381.464605791573     -0.000530750278      0.00244050      0.00049599      0.01987326      0.00552764  ~
      4    -381.464651298268     -0.000045506695      0.00049865      0.00008681      0.00976159      0.00235937  ~
      5    -381.464655360884     -0.000004062616      0.00015185      0.00003781      0.00298960      0.00072765  ~
      6    -381.464655751505     -0.000000390620      0.00002017      0.00000677      0.00102597      0.00031056  ~
  --------------------------------------------------------------------------------------------------------------- ~

	Writing optimization data to binary file.
	Final energy is   -381.4646557515046
	Final (previous) structure:
	Cartesian Geometry (in Angstrom)
	    C    -0.0403644479   0.0104308967  -0.1739529118
	    C     0.0014253757   1.2281740222   0.5201131115
	    C     0.0278415558   1.2129276003   1.9139836181
	    C     0.0157470909  -0.0032441821   2.6018204869
	    C    -0.0137385215  -1.2128572559   1.9024254464
	    C    -0.0282547692  -1.2148694402   0.5085529694
	    C    -0.0108919825   0.0139068860  -1.6567553084
	    H     0.0156725717   2.1707046333  -0.0199191288
	    H     0.0615914250   2.1499966308   2.4604399677
	    H     0.0332810037  -0.0087599061   3.6872762591
	    H    -0.0214010773  -2.1554318154   2.4403797966
	    H    -0.0467632522  -2.1520917038  -0.0404576677
	    N    -1.1252756480   0.2676306836  -2.3249074996
	    N     1.1204133679  -0.2826728390  -2.2770635066
	    H     1.2068455276  -0.3468714388  -3.2862275427
	    H     1.9550111251  -0.4464337622  -1.7275368001
	    H    -1.9770701015   0.4531635080  -1.8097135382
	    H    -1.1740692433   0.3162964827  -3.3374577518
	Saving final (previous) structure.
	Removing binary optimization data file.
			--------------------------
			 OPTKING Finished Execution 
			--------------------------

    Final optimized geometry and variables:
    Molecular point group: c1
    Full point group: C1

    Geometry (in Angstrom), charge = 1, multiplicity = 1:

    C           -0.040364447873     0.010430896695    -0.173952911765
    C            0.001425375718     1.228174022202     0.520113111481
    C            0.027841555812     1.212927600283     1.913983618122
    C            0.015747090903    -0.003244182107     2.601820486908
    C           -0.013738521505    -1.212857255934     1.902425446366
    C           -0.028254769150    -1.214869440232     0.508552969363
    C           -0.010891982510     0.013906886036    -1.656755308422
    H            0.015672571680     2.170704633302    -0.019919128818
    H            0.061591424960     2.149996630832     2.460439967711
    H            0.033281003689    -0.008759906109     3.687276259139
    H           -0.021401077348    -2.155431815412     2.440379796579
    H           -0.046763252187    -2.152091703781    -0.040457667694
    N           -1.125275648008     0.267630683593    -2.324907499551
    N            1.120413367944    -0.282672838968    -2.277063506608
    H            1.206845527571    -0.346871438844    -3.286227542709
    H            1.955011125060    -0.446433762201    -1.727536800090
    H           -1.977070101462     0.453163507964    -1.809713538167
    H           -1.174069243295     0.316296482680    -3.337457751847

	Removing binary optimization data file.
	Cleaning optimization helper files.


Properties will be evaluated at   0.000000,   0.000000,   0.000000 [a0]
OEProp: No title given, name of density matrix used for the following properties is 'SCF density'
  Nuclear Dipole Moment: [e a0]
     X:    -0.5109      Y:     0.1551      Z:    -0.2832

  Electronic Dipole Moment: [e a0]
     X:     0.5282      Y:    -0.1457      Z:    -2.2691

  Dipole Moment: [e a0]
     X:     0.0173      Y:     0.0094      Z:    -2.5524     Total:     2.5525

  Dipole Moment: [D]
     X:     0.0439      Y:     0.0240      Z:    -6.4875     Total:     6.4877

  Quadrupole Moment: [D A]
    XX:   -42.5691     YY:   -44.4555     ZZ:   -13.5446
    XY:    -2.8226     XZ:     0.2633     YZ:    -0.0254

  Traceless Quadrupole Moment: [D A]
    XX:    -9.0460     YY:   -10.9324     ZZ:    19.9785
    XY:    -2.8226     XZ:     0.2633     YZ:    -0.0254

  Mulliken Charges: (a.u.)
   Center  Symbol    Alpha    Beta     Spin     Total
       1     C     2.99250  2.99250  0.00000  0.01499
       2     C     3.07105  3.07105  0.00000 -0.14209
       3     C     3.06248  3.06248  0.00000 -0.12495
       4     C     3.05360  3.05360  0.00000 -0.10721
       5     C     3.06304  3.06304  0.00000 -0.12609
       6     C     3.07129  3.07129  0.00000 -0.14257
       7     C     2.74676  2.74676  0.00000  0.50648
       8     H     0.41356  0.41356  0.00000  0.17289
       9     H     0.40732  0.40732  0.00000  0.18537
      10     H     0.40668  0.40668  0.00000  0.18663
      11     H     0.40730  0.40730  0.00000  0.18541
      12     H     0.41363  0.41363  0.00000  0.17273
      13     N     3.84482  3.84482  0.00000 -0.68964
      14     N     3.84497  3.84497  0.00000 -0.68995
      15     H     0.30500  0.30500  0.00000  0.39000
      16     H     0.29556  0.29556  0.00000  0.40889
      17     H     0.29536  0.29536  0.00000  0.40928
      18     H     0.30508  0.30508  0.00000  0.38984

   Total alpha = 32.00000, Total beta = 32.00000, Total charge =  1.00000


    Psi4 stopped on: Saturday, 29 September 2018 08:46PM
    Psi4 wall time for execution: 0:02:53.66

*** Psi4 exiting successfully. Buy a developer a beer!
