
    -----------------------------------------------------------------------
          Psi4: An Open-Source Ab Initio Electronic Structure Package
                               Psi4 1.2.1 release

                         Git: Rev {HEAD} 406f4de 


    R. M. Parrish, L. A. Burns, D. G. A. Smith, A. C. Simmonett,
    A. E. DePrince III, E. G. Hohenstein, U. Bozkaya, A. Yu. Sokolov,
    R. Di Remigio, R. M. Richard, J. F. Gonthier, A. M. James,
    H. R. McAlexander, A. Kumar, M. Saitow, X. Wang, B. P. Pritchard,
    P. Verma, H. F. Schaefer III, K. Patkowski, R. A. King, E. F. Valeev,
    F. A. Evangelista, J. M. Turney, T. D. Crawford, and C. D. Sherrill,
    J. Chem. Theory Comput. 13(7) pp 3185--3197 (2017).
    (doi: 10.1021/acs.jctc.7b00174)


                         Additional Contributions by
    P. Kraus, H. Kruse, M. H. Lechner, M. C. Schieber, and R. A. Shaw

    -----------------------------------------------------------------------


    Psi4 started on: Saturday, 29 September 2018 08:30PM

    Process ID: 26113
    Host:       oliva.prib.upf.edu
    PSIDATADIR: /shared/joao/test_parameterize/miniconda3/share/psi4
    Memory:     500.0 MiB
    Threads:    1
    
  ==> Input File <==

--------------------------------------------------------------------------
set_num_threads(4)
set_memory('3000 MB')

set { scf_mem_safety_factor 0.7 }

set { reference rks }
set { basis 6-31G* }

molecule MOL {
    1 1
    noreorient
    nocom
    symmetry c1
    C   -0.000000  -0.000000  -0.177864
    C    0.036678   1.219374   0.524165
    C    0.031765   1.213120   1.915444
    C    0.000000   0.000000   2.610107
    C   -0.031765  -1.213120   1.915444
    C   -0.036678  -1.219375   0.524165
    C   -0.000000   0.000000  -1.644734
    H    0.018170   2.164705  -0.010854
    H    0.042402   2.152895   2.457886
    H    0.000000   0.000000   3.695756
    H   -0.042402  -2.152895   2.457886
    H   -0.018170  -2.164705  -0.010853
    N   -0.712590  -0.905950  -2.308461
    N    0.712590   0.905950  -2.308460
    H    0.673432   1.006470  -3.315997
    H    1.377190   1.485970  -1.813316
    H   -1.472674  -1.387079  -1.845783
    H   -0.575653  -1.099813  -3.293566
}

set optking { frozen_dihedral = (" 1 7 13 17 ") }

set optking { dynamic_level = 1 
 geom_maxiter = 250
 print_trajectory_xyz_file = True }

energy, wfn = optimize('B3LYP-D3', return_wfn=True)

import os
os.chdir(os.environ['HTMD_PSI4_WORKDIR'])

oeprop(wfn, 'DIPOLE', 'QUADRUPOLE', 'MULLIKEN_CHARGES')

with open('psi4out.xyz', 'w') as f:
    f.write('18 ' )
    f.write('%.12f\n' % energy)
    f.write(MOL.save_string_xyz())
--------------------------------------------------------------------------
  Threads set to 4 by Python driver.

  Memory set to   2.794 GiB by Python driver.
gradient() will perform analytic gradient computation.

*** tstart() called on oliva.prib.upf.edu
*** at Sat Sep 29 20:30:56 2018

   => Loading Basis Set <=

    Name: 6-31G*
    Role: ORBITAL
    Keyword: BASIS
    atoms 1-7         entry C          line   111 file /shared/joao/test_parameterize/miniconda3/share/psi4/basis/6-31gs.gbs 
    atoms 8-12, 15-18 entry H          line    44 file /shared/joao/test_parameterize/miniconda3/share/psi4/basis/6-31gs.gbs 
    atoms 13-14       entry N          line   128 file /shared/joao/test_parameterize/miniconda3/share/psi4/basis/6-31gs.gbs 


         ---------------------------------------------------------
                                   SCF
            by Justin Turney, Rob Parrish, Andy Simmonett
                             and Daniel Smith
                              RKS Reference
                        4 Threads,   2861 MiB Core
         ---------------------------------------------------------

  ==> Geometry <==

    Molecular point group: c1
    Full point group: C1

    Geometry (in Angstrom), charge = 1, multiplicity = 1:

       Center              X                  Y                   Z               Mass       
    ------------   -----------------  -----------------  -----------------  -----------------
         C            0.000000000000     0.000000000000    -0.177864000000    12.000000000000
         C            0.036678000000     1.219374000000     0.524165000000    12.000000000000
         C            0.031765000000     1.213120000000     1.915444000000    12.000000000000
         C            0.000000000000     0.000000000000     2.610107000000    12.000000000000
         C           -0.031765000000    -1.213120000000     1.915444000000    12.000000000000
         C           -0.036678000000    -1.219375000000     0.524165000000    12.000000000000
         C            0.000000000000     0.000000000000    -1.644734000000    12.000000000000
         H            0.018170000000     2.164705000000    -0.010854000000     1.007825032070
         H            0.042402000000     2.152895000000     2.457886000000     1.007825032070
         H            0.000000000000     0.000000000000     3.695756000000     1.007825032070
         H           -0.042402000000    -2.152895000000     2.457886000000     1.007825032070
         H           -0.018170000000    -2.164705000000    -0.010853000000     1.007825032070
         N           -0.712590000000    -0.905950000000    -2.308461000000    14.003074004780
         N            0.712590000000     0.905950000000    -2.308460000000    14.003074004780
         H            0.673432000000     1.006470000000    -3.315997000000     1.007825032070
         H            1.377190000000     1.485970000000    -1.813316000000     1.007825032070
         H           -1.472674000000    -1.387079000000    -1.845783000000     1.007825032070
         H           -0.575653000000    -1.099813000000    -3.293566000000     1.007825032070

  Running in c1 symmetry.

  Rotational constants: A =      0.12185  B =      0.03956  C =      0.03130 [cm^-1]
  Rotational constants: A =   3652.82685  B =   1186.04406  C =    938.26887 [MHz]
  Nuclear repulsion =  416.871621232327186

  Charge       = 1
  Multiplicity = 1
  Electrons    = 64
  Nalpha       = 32
  Nbeta        = 32

  ==> Algorithm <==

  SCF Algorithm Type is DF.
  DIIS enabled.
  MOM disabled.
  Fractional occupation disabled.
  Guess Type is SAD.
  Energy threshold   = 1.00e-08
  Density threshold  = 1.00e-08
  Integral threshold = 0.00e+00

  ==> Primary Basis <==

  Basis Set: 6-31G*
    Blend: 6-31G*
    Number of shells: 72
    Number of basis function: 153
    Number of Cartesian functions: 153
    Spherical Harmonics?: false
    Max angular momentum: 2

  ==> DFT Potential <==

   => Composite Functional: B3LYP-D3ZERO <= 

    B3LYP-d3zero Hyb-GGA Exchange-Correlation Functional

    P. J. Stephens, F. J. Devlin, C. F. Chabalowski, and M. J. Frisch, J. Phys. Chem. 98, 11623 (1994)

    Deriv               =              1
    GGA                 =           TRUE
    Meta                =          FALSE

    Exchange Hybrid     =           TRUE
    MP2 Hybrid          =          FALSE

   => Exchange Functionals <=

    0.0800   Slater exchange
    0.7200         Becke 88

   => Exact (HF) Exchange <=

    0.2000               HF 

   => Correlation Functionals <=

    0.1900   Vosko, Wilk & Nusair (VWN5_RPA)
    0.8100   Lee, Yang & Parr

   => Molecular Quadrature <=

    Radial Scheme       =       TREUTLER
    Pruning Scheme      =           FLAT
    Nuclear Scheme      =       TREUTLER

    BS radius alpha     =              1
    Pruning alpha       =              1
    Radial Points       =             75
    Spherical Points    =            302
    Total Points        =         396977
    Total Blocks        =           3014
    Max Points          =            256
    Max Functions       =            149

   => -D3ZERO: Empirical Dispersion <=

    Grimme's -D3 (zero-damping) Dispersion Correction
    Grimme S.; Antony J.; Ehrlich S.; Krieg H. (2010), J. Chem. Phys., 132: 154104

        S6 =   1.000000E+00
        S8 =   1.703000E+00
       SR6 =   1.261000E+00
       SR8 =   1.000000E+00
    ALPHA6 =   1.400000E+01

   => Loading Basis Set <=

    Name: (6-31G* AUX)
    Role: JKFIT
    Keyword: DF_BASIS_SCF
    atoms 1-7         entry C          line   121 file /shared/joao/test_parameterize/miniconda3/share/psi4/basis/cc-pvdz-jkfit.gbs 
    atoms 8-12, 15-18 entry H          line    51 file /shared/joao/test_parameterize/miniconda3/share/psi4/basis/cc-pvdz-jkfit.gbs 
    atoms 13-14       entry N          line   171 file /shared/joao/test_parameterize/miniconda3/share/psi4/basis/cc-pvdz-jkfit.gbs 

  ==> Pre-Iterations <==

   -------------------------------------------------------
    Irrep   Nso     Nmo     Nalpha   Nbeta   Ndocc  Nsocc
   -------------------------------------------------------
     A        153     153       0       0       0       0
   -------------------------------------------------------
    Total     153     153      32      32      32       0
   -------------------------------------------------------

  ==> Integral Setup <==

  ==> DiskDFJK: Density-Fitted J/K Matrices <==

    J tasked:                  Yes
    K tasked:                  Yes
    wK tasked:                  No
    OpenMP threads:              4
    Integrals threads:           4
    Memory (MB):              2002
    Algorithm:                Core
    Integral Cache:           NONE
    Schwarz Cutoff:          1E-12
    Fitting Condition:       1E-12

   => Auxiliary Basis Set <=

  Basis Set: (6-31G* AUX)
    Blend: CC-PVDZ-JKFIT
    Number of shells: 297
    Number of basis function: 954
    Number of Cartesian functions: 954
    Spherical Harmonics?: false
    Max angular momentum: 3

  Minimum eigenvalue in the overlap matrix is 4.8706583282E-04.
  Using Symmetric Orthogonalization.

  SCF Guess: Superposition of Atomic Densities via on-the-fly atomic UHF.

  ==> Iterations <==

                           Total Energy        Delta E     RMS |[F,P]|

   @DF-RKS iter   0:  -379.61967231863213   -3.79620e+02   6.82209e-02 
   @DF-RKS iter   1:  -381.04332527421911   -1.42365e+00   1.19175e-02 
   @DF-RKS iter   2:  -380.95952484329365    8.38004e-02   1.29208e-02 DIIS
   @DF-RKS iter   3:  -381.46172324661939   -5.02198e-01   1.67366e-03 DIIS
   @DF-RKS iter   4:  -381.46785898022137   -6.13573e-03   8.03979e-04 DIIS
   @DF-RKS iter   5:  -381.46944661395884   -1.58763e-03   2.41044e-04 DIIS
   @DF-RKS iter   6:  -381.46958833206708   -1.41718e-04   8.41698e-05 DIIS
   @DF-RKS iter   7:  -381.46960745997671   -1.91279e-05   1.70116e-05 DIIS
   @DF-RKS iter   8:  -381.46960820783090   -7.47854e-07   6.88283e-06 DIIS
   @DF-RKS iter   9:  -381.46960835393116   -1.46100e-07   2.10407e-06 DIIS
   @DF-RKS iter  10:  -381.46960836751543   -1.35843e-08   4.32303e-07 DIIS
   @DF-RKS iter  11:  -381.46960836855044   -1.03500e-09   6.90087e-08 DIIS
   @DF-RKS iter  12:  -381.46960836856130   -1.08571e-11   7.77090e-08 DIIS
   @DF-RKS iter  13:  -381.46960836858102   -1.97247e-11   1.65583e-08 DIIS
   @DF-RKS iter  14:  -381.46960836858233   -1.30740e-12   5.01037e-09 DIIS

  ==> Post-Iterations <==

    Orbital Energies [Eh]
    ---------------------

    Doubly Occupied:                                                      

       1A    -14.568589     2A    -14.566039     3A    -10.496425  
       4A    -10.372485     5A    -10.355991     6A    -10.355632  
       7A    -10.343292     8A    -10.340296     9A    -10.340068  
      10A     -1.183076    11A     -1.091223    12A     -1.013975  
      13A     -0.926183    14A     -0.901873    15A     -0.844792  
      16A     -0.784572    17A     -0.772395    18A     -0.741746  
      19A     -0.732119    20A     -0.691215    21A     -0.669244  
      22A     -0.625280    23A     -0.614739    24A     -0.584525  
      25A     -0.579089    26A     -0.570968    27A     -0.518477  
      28A     -0.505087    29A     -0.497709    30A     -0.472777  
      31A     -0.412168    32A     -0.405471  

    Virtual:                                                              

      33A     -0.219086    34A     -0.156895    35A     -0.128603  
      36A     -0.106203    37A     -0.067673    38A     -0.059315  
      39A     -0.038322    40A     -0.031894    41A      0.007462  
      42A      0.017512    43A      0.021472    44A      0.054991  
      45A      0.062077    46A      0.084993    47A      0.129049  
      48A      0.146928    49A      0.155838    50A      0.158107  
      51A      0.201774    52A      0.243252    53A      0.298418  
      54A      0.350304    55A      0.355842    56A      0.382043  
      57A      0.388365    58A      0.397462    59A      0.421782  
      60A      0.422752    61A      0.442927    62A      0.448196  
      63A      0.453639    64A      0.471496    65A      0.474019  
      66A      0.475338    67A      0.485234    68A      0.515561  
      69A      0.526351    70A      0.533472    71A      0.541013  
      72A      0.590231    73A      0.606276    74A      0.654909  
      75A      0.659948    76A      0.684152    77A      0.688356  
      78A      0.703933    79A      0.715571    80A      0.719335  
      81A      0.735156    82A      0.765709    83A      0.774744  
      84A      0.797259    85A      0.809729    86A      0.825242  
      87A      0.852106    88A      0.943067    89A      0.958654  
      90A      0.989584    91A      1.002681    92A      1.026352  
      93A      1.067643    94A      1.080671    95A      1.134928  
      96A      1.155369    97A      1.220926    98A      1.273956  
      99A      1.283218   100A      1.307314   101A      1.322146  
     102A      1.343453   103A      1.362378   104A      1.381975  
     105A      1.444279   106A      1.448746   107A      1.487519  
     108A      1.620981   109A      1.624978   110A      1.654891  
     111A      1.659619   112A      1.736772   113A      1.753385  
     114A      1.796017   115A      1.825628   116A      1.846950  
     117A      1.897885   118A      1.908087   119A      1.959861  
     120A      1.973745   121A      1.997537   122A      2.013030  
     123A      2.037835   124A      2.054702   125A      2.129084  
     126A      2.130265   127A      2.153051   128A      2.210115  
     129A      2.235716   130A      2.279761   131A      2.356046  
     132A      2.367013   133A      2.443206   134A      2.453543  
     135A      2.489429   136A      2.514179   137A      2.551306  
     138A      2.587828   139A      2.603197   140A      2.631212  
     141A      2.737913   142A      2.875919   143A      2.983685  
     144A      3.259346   145A      3.638202   146A      3.656724  
     147A      3.911737   148A      3.947662   149A      3.964063  
     150A      4.051994   151A      4.174454   152A      4.257227  
     153A      4.546531  

    Final Occupation by Irrep:
              A 
    DOCC [    32 ]

  Energy converged.

  @DF-RKS Final Energy:  -381.46960836858233

   => Energetics <=

    Nuclear Repulsion Energy =            416.8716212323271861
    One-Electron Energy =               -1328.9794404376330021
    Two-Electron Energy =                 575.0561523185092483
    DFT Exchange-Correlation Energy =     -44.4059803717857307
    Empirical Dispersion Energy =          -0.0119611100000000
    VV10 Nonlocal Energy =                  0.0000000000000000
    Total Energy =                       -381.4696083685822714



Properties will be evaluated at   0.000000,   0.000000,   0.000000 [a0]

Properties computed using the SCF density matrix

  Nuclear Dipole Moment: [e a0]
     X:     0.0043      Y:     0.0105      Z:     0.0058

  Electronic Dipole Moment: [e a0]
     X:     0.0057      Y:    -0.0083      Z:    -2.2521

  Dipole Moment: [e a0]
     X:     0.0101      Y:     0.0022      Z:    -2.2463     Total:     2.2463

  Dipole Moment: [D]
     X:     0.0256      Y:     0.0056      Z:    -5.7096     Total:     5.7096


*** tstop() called on oliva.prib.upf.edu at Sat Sep 29 20:31:25 2018
Module time:
	user time   =     100.54 seconds =       1.68 minutes
	system time =       0.83 seconds =       0.01 minutes
	total time  =         29 seconds =       0.48 minutes
Total time:
	user time   =     100.54 seconds =       1.68 minutes
	system time =       0.83 seconds =       0.01 minutes
	total time  =         29 seconds =       0.48 minutes

*** tstart() called on oliva.prib.upf.edu
*** at Sat Sep 29 20:31:25 2018


         ------------------------------------------------------------
                                   SCF GRAD                          
                          Rob Parrish, Justin Turney,                
                       Andy Simmonett, and Alex Sokolov              
         ------------------------------------------------------------

  ==> Geometry <==

    Molecular point group: c1
    Full point group: C1

    Geometry (in Angstrom), charge = 1, multiplicity = 1:

       Center              X                  Y                   Z               Mass       
    ------------   -----------------  -----------------  -----------------  -----------------
         C            0.000000000000     0.000000000000    -0.177864000000    12.000000000000
         C            0.036678000000     1.219374000000     0.524165000000    12.000000000000
         C            0.031765000000     1.213120000000     1.915444000000    12.000000000000
         C            0.000000000000     0.000000000000     2.610107000000    12.000000000000
         C           -0.031765000000    -1.213120000000     1.915444000000    12.000000000000
         C           -0.036678000000    -1.219375000000     0.524165000000    12.000000000000
         C            0.000000000000     0.000000000000    -1.644734000000    12.000000000000
         H            0.018170000000     2.164705000000    -0.010854000000     1.007825032070
         H            0.042402000000     2.152895000000     2.457886000000     1.007825032070
         H            0.000000000000     0.000000000000     3.695756000000     1.007825032070
         H           -0.042402000000    -2.152895000000     2.457886000000     1.007825032070
         H           -0.018170000000    -2.164705000000    -0.010853000000     1.007825032070
         N           -0.712590000000    -0.905950000000    -2.308461000000    14.003074004780
         N            0.712590000000     0.905950000000    -2.308460000000    14.003074004780
         H            0.673432000000     1.006470000000    -3.315997000000     1.007825032070
         H            1.377190000000     1.485970000000    -1.813316000000     1.007825032070
         H           -1.472674000000    -1.387079000000    -1.845783000000     1.007825032070
         H           -0.575653000000    -1.099813000000    -3.293566000000     1.007825032070

  Nuclear repulsion =  416.871621232327186

  ==> Basis Set <==

  Basis Set: 6-31G*
    Blend: 6-31G*
    Number of shells: 72
    Number of basis function: 153
    Number of Cartesian functions: 153
    Spherical Harmonics?: false
    Max angular momentum: 2

  ==> DFJKGrad: Density-Fitted SCF Gradients <==

    Gradient:                    1
    J tasked:                  Yes
    K tasked:                  Yes
    wK tasked:                  No
    OpenMP threads:              4
    Integrals threads:           4
    Memory (MB):              2002
    Schwarz Cutoff:          0E+00
    Fitting Condition:       1E-12

   => Auxiliary Basis Set <=

  Basis Set: (6-31G* AUX)
    Blend: CC-PVDZ-JKFIT
    Number of shells: 297
    Number of basis function: 954
    Number of Cartesian functions: 954
    Spherical Harmonics?: false
    Max angular momentum: 3

  ==> DFT Potential <==

   => Composite Functional: B3LYP-D3ZERO <= 

    B3LYP-d3zero Hyb-GGA Exchange-Correlation Functional

    P. J. Stephens, F. J. Devlin, C. F. Chabalowski, and M. J. Frisch, J. Phys. Chem. 98, 11623 (1994)

    Deriv               =              1
    GGA                 =           TRUE
    Meta                =          FALSE

    Exchange Hybrid     =           TRUE
    MP2 Hybrid          =          FALSE

   => Exchange Functionals <=

    0.0800   Slater exchange
    0.7200         Becke 88

   => Exact (HF) Exchange <=

    0.2000               HF 

   => Correlation Functionals <=

    0.1900   Vosko, Wilk & Nusair (VWN5_RPA)
    0.8100   Lee, Yang & Parr

   => Molecular Quadrature <=

    Radial Scheme       =       TREUTLER
    Pruning Scheme      =           FLAT
    Nuclear Scheme      =       TREUTLER

    BS radius alpha     =              1
    Pruning alpha       =              1
    Radial Points       =             75
    Spherical Points    =            302
    Total Points        =         396977
    Total Blocks        =           3014
    Max Points          =            256
    Max Functions       =            149


  -Total Gradient:
     Atom            X                  Y                   Z
    ------   -----------------  -----------------  -----------------
       1        0.001919029086    -0.001844344778     0.001249974599
       2        0.000096390101    -0.000249217943    -0.000928972925
       3       -0.000214031152    -0.000488203623     0.000350270765
       4        0.000049462363     0.000205835093    -0.000009184634
       5       -0.000140957129    -0.000138979481     0.000025122945
       6        0.000097596379     0.000875280996     0.000180416453
       7       -0.000514686169    -0.002164728132    -0.002330993817
       8        0.000086441919    -0.000029727120     0.000026574212
       9       -0.000003837166     0.000006469185    -0.000046734217
      10        0.000029464006    -0.000021025291    -0.000026699461
      11       -0.000021910312     0.000007177844     0.000004808970
      12        0.000380110089    -0.000406331542     0.000359699925
      13        0.000408233657     0.002011679054     0.001535834761
      14       -0.001584486213     0.001580516171    -0.000171374255
      15        0.000616719969    -0.000048446516     0.000100264680
      16       -0.000898262299     0.000474586608     0.000034468841
      17       -0.002227849648     0.002633013712    -0.001235145622
      18        0.001915160109    -0.002407108188     0.000867293553


*** tstop() called on oliva.prib.upf.edu at Sat Sep 29 20:31:32 2018
Module time:
	user time   =      27.32 seconds =       0.46 minutes
	system time =       0.26 seconds =       0.00 minutes
	total time  =          7 seconds =       0.12 minutes
Total time:
	user time   =     127.92 seconds =       2.13 minutes
	system time =       1.10 seconds =       0.02 minutes
	total time  =         36 seconds =       0.60 minutes

			-----------------------------------------
			 OPTKING 2.0: for geometry optimizations 
			  - R.A. King,  Bethel University        
			-----------------------------------------
	At level 1: Red. Int., RFO, no backsteps, dynamic trust

	Internal coordinates to be generated automatically.
	Detected frag 1 with atoms:  1 2 3 4 5 6 7 8 9 10 11 12 13 14 15 16 17 18
	---Fragment 1 Bond Connectivity---
	 1 : 2 6 7
	 2 : 1 3 8
	 3 : 2 4 9
	 4 : 3 5 10
	 5 : 4 6 11
	 6 : 1 5 12
	 7 : 1 13 14
	 8 : 2
	 9 : 3
	 10 : 4
	 11 : 5
	 12 : 6
	 13 : 7 17 18
	 14 : 7 15 16
	 15 : 14
	 16 : 14
	 17 : 13
	 18 : 13

	Assuming in current code that numbering for constraints corresponds to unified fragment.
	Frozen dihedral atom list: 
	     1     7    13    17
	---Fragment 1 Geometry and Gradient---
	 C           0.0000000000        0.0000000000       -0.3361142489
	 C           0.0693113751        2.3042829136        0.9905282984
	 C           0.0600271506        2.2924645663        3.6196645829
	 C           0.0000000000        0.0000000000        4.9323874075
	 C          -0.0600271506       -2.2924645663        3.6196645829
	 C          -0.0693113751       -2.3042848033        0.9905282984
	 C           0.0000000000        0.0000000000       -3.1080968214
	 H           0.0343363238        4.0906996085       -0.0205110874
	 H           0.0801281675        4.0683819429        4.6447314059
	 H           0.0000000000        0.0000000000        6.9839666940
	 H          -0.0801281675       -4.0683819429        4.6447314059
	 H          -0.0343363238       -4.0906996085       -0.0205091977
	 N          -1.3465999450       -1.7119973901       -4.3623590784
	 N           1.3465999450        1.7119973901       -4.3623571887
	 H           1.2726020491        1.9019526610       -6.2663261875
	 H           2.6025119329        2.8080763417       -3.4266706324
	 H          -2.7829505430       -2.6211994347       -3.4880243707
	 H          -1.0878265176       -2.0783453674       -6.2239377406
	             0.0019190291       -0.0018443448        0.0012499746
	             0.0000963901       -0.0002492179       -0.0009289729
	            -0.0002140312       -0.0004882036        0.0003502708
	             0.0000494624        0.0002058351       -0.0000091846
	            -0.0001409571       -0.0001389795        0.0000251229
	             0.0000975964        0.0008752810        0.0001804165
	            -0.0005146862       -0.0021647281       -0.0023309938
	             0.0000864419       -0.0000297271        0.0000265742
	            -0.0000038372        0.0000064692       -0.0000467342
	             0.0000294640       -0.0000210253       -0.0000266995
	            -0.0000219103        0.0000071778        0.0000048090
	             0.0003801101       -0.0004063315        0.0003596999
	             0.0004082337        0.0020116791        0.0015358348
	            -0.0015844862        0.0015805162       -0.0001713743
	             0.0006167200       -0.0000484465        0.0001002647
	            -0.0008982623        0.0004745866        0.0000344688
	            -0.0022278496        0.0026330137       -0.0012351456
	             0.0019151601       -0.0024071082        0.0008672936

	Previous optimization step data not found.  Starting new optimization.

	---Fragment 1 Intrafragment Coordinates---
	 - Coordinate -           - BOHR/RAD -       - ANG/DEG -
	 R(1,2)           =         2.659794	       1.407502
	 R(1,6)           =         2.659796	       1.407503
	 R(1,7)           =         2.771983	       1.466870
	 R(2,3)           =         2.629179	       1.391302
	 R(2,8)           =         2.052976	       1.086388
	 R(3,4)           =         2.642393	       1.398294
	 R(3,9)           =         2.050622	       1.085142
	 R(4,5)           =         2.642393	       1.398294
	 R(4,10)          =         2.051579	       1.085649
	 R(5,6)           =         2.629179	       1.391302
	 R(5,11)          =         2.050622	       1.085142
	 R(6,12)          =         2.052973	       1.086386
	 R(7,13)          =         2.513452	       1.330061
	 R(7,14)          =         2.513451	       1.330061
	 R(13,17)         =         1.911599	       1.011575
	 R(13,18)         =         1.914850	       1.013295
	 R(14,15)         =         1.914852	       1.013296
	 R(14,16)         =         1.911600	       1.011575
	 B(1,2,3)         =         2.088380	     119.655376
	 B(1,2,8)         =         2.103396	     120.515689
	 B(1,6,5)         =         2.088379	     119.655315
	 B(1,6,12)        =         2.103396	     120.515729
	 B(1,7,13)        =         2.093264	     119.935172
	 B(1,7,14)        =         2.093263	     119.935135
	 B(2,1,6)         =         2.097220	     120.161857
	 B(2,1,7)         =         2.092983	     119.919082
	 B(2,3,4)         =         2.095279	     120.050636
	 B(2,3,9)         =         2.089719	     119.732108
	 B(3,2,8)         =         2.090149	     119.756722
	 B(3,4,5)         =         2.101793	     120.423859
	 B(3,4,10)        =         2.090696	     119.788070
	 B(4,3,9)         =         2.098135	     120.214297
	 B(4,5,6)         =         2.095280	     120.050677
	 B(4,5,11)        =         2.098135	     120.214297
	 B(5,4,10)        =         2.090696	     119.788070
	 B(5,6,12)        =         2.090149	     119.756743
	 B(6,1,7)         =         2.092982	     119.919061
	 B(6,5,11)        =         2.089719	     119.732067
	 B(7,13,17)       =         2.092411	     119.886320
	 B(7,13,18)       =         2.144860	     122.891428
	 B(7,14,15)       =         2.144860	     122.891405
	 B(7,14,16)       =         2.092412	     119.886393
	 B(13,7,14)       =         2.096659	     120.129694
	 B(15,14,16)      =         2.043399	     117.078146
	 B(17,13,18)      =         2.043400	     117.078191
	 D(1,2,3,4)       =         0.007799	       0.446825
	 D(1,2,3,9)       =        -3.122896	    -178.928735
	 D(1,6,5,4)       =         0.007799	       0.446822
	 D(1,6,5,11)      =        -3.122896	    -178.928737
	*D(1,7,13,17)     =         0.349066	      20.000015
	 D(1,7,13,18)     =        -2.870944	    -164.492957
	 D(1,7,14,15)     =        -3.032165	    -173.730230
	 D(1,7,14,16)     =         0.187844	      10.762681
	 D(2,1,6,5)       =        -0.003906	      -0.223802
	 D(2,1,6,12)      =        -3.091437	    -177.126283
	 D(2,1,7,13)      =        -2.505167	    -143.535494
	 D(2,1,7,14)      =         0.636426	      36.464506
	 D(2,3,4,5)       =        -0.003942	      -0.225875
	 D(2,3,4,10)      =         3.137650	     179.774125
	 D(3,2,1,6)       =        -0.003906	      -0.223806
	 D(3,2,1,7)       =         3.137687	     179.776196
	 D(3,4,5,6)       =        -0.003942	      -0.225874
	 D(3,4,5,11)      =         3.126699	     179.146646
	 D(4,3,2,8)       =         3.095744	     177.373058
	 D(4,5,6,12)      =         3.095744	     177.373055
	 D(5,4,3,9)       =         3.126699	     179.146646
	 D(5,6,1,7)       =         3.137687	     179.776197
	 D(6,1,2,8)       =        -3.091437	    -177.126287
	 D(6,1,7,13)      =         0.636426	      36.464508
	 D(6,1,7,14)      =        -2.505167	    -143.535492
	 D(6,5,4,10)      =         3.137650	     179.774126
	 D(7,1,2,8)       =         0.050156	       2.873714
	 D(7,1,6,12)      =         0.050156	       2.873716
	 D(8,2,3,9)       =        -0.034950	      -2.002503
	 D(9,3,4,10)      =        -0.014894	      -0.853354
	 D(10,4,5,11)     =        -0.014894	      -0.853354
	 D(11,5,6,12)     =        -0.034950	      -2.002504
	 D(13,7,14,15)    =         0.109428	       6.269770
	 D(13,7,14,16)    =        -2.953748	    -169.237319
	 D(14,7,13,17)    =        -2.792527	    -159.999985
	 D(14,7,13,18)    =         0.270649	      15.507043

	Current energy   :      -381.4696083686

	Generating empirical Hessian (Schlegel '84) for each fragment.
	Taking RFO optimization step.
	Going to follow RFO solution 1.
	Using RFO vector 1.
	Norm of target step-size    0.22289
	Projected energy change by RFO approximation:        -0.0015785128

	Back-transformation to cartesian coordinates...
	Could not converge backtransformation.
	Using first guess instead.

	Back-transformation to cartesian coordinates to adjust frozen coordinates...
	Successfully converged to displaced geometry.

	--- Internal Coordinate Step in ANG or DEG, aJ/ANG or AJ/DEG ---
	 ---------------------------------------------------------------------------
	   Coordinate                Previous        Force       Change         New 
	   ----------                --------       ------       ------       ------
	    1 R(1,2)          =      1.407502     0.005083     0.000787     1.408289
	    2 R(1,6)          =      1.407503    -0.001178    -0.000131     1.407372
	    3 R(1,7)          =      1.466870    -0.009838    -0.001742     1.465128
	    4 R(2,3)          =      1.391302    -0.002547    -0.000271     1.391031
	    5 R(2,8)          =      1.086388     0.000336     0.000074     1.086462
	    6 R(3,4)          =      1.398294     0.002780     0.000412     1.398706
	    7 R(3,9)          =      1.085142     0.000143     0.000091     1.085233
	    8 R(4,5)          =      1.398294     0.001607     0.000324     1.398618
	    9 R(4,10)         =      1.085649     0.000213     0.000080     1.085729
	   10 R(5,6)          =      1.391302     0.000062     0.000065     1.391366
	   11 R(5,11)         =      1.085142     0.000027     0.000029     1.085171
	   12 R(6,12)         =      1.086386    -0.001503    -0.000071     1.086315
	   13 R(7,13)         =      1.330061     0.017806     0.003349     1.333411
	   14 R(7,14)         =      1.330061    -0.003181    -0.000283     1.329778
	   15 R(13,17)        =      1.011575     0.001186     0.001339     1.012914
	   16 R(13,18)        =      1.013295     0.001024     0.002733     1.016028
	   17 R(14,15)        =      1.013296     0.001066     0.000248     1.013544
	   18 R(14,16)        =      1.011575     0.002470     0.000455     1.012030
	   19 B(1,2,3)        =    119.655376    -0.000003    -0.003611   119.651765
	   20 B(1,2,8)        =    120.515689     0.000001     0.003179   120.518869
	   21 B(1,6,5)        =    119.655315    -0.000016    -0.058174   119.597141
	   22 B(1,6,12)       =    120.515729    -0.000031    -0.151368   120.364361
	   23 B(1,7,13)       =    119.935172    -0.000018    -0.094080   119.841092
	   24 B(1,7,14)       =    119.935135     0.000061     0.180670   120.115805
	   25 B(2,1,6)        =    120.161857     0.000018     0.056357   120.218214
	   26 B(2,1,7)        =    119.919082     0.000089     0.265423   120.184504
	   27 B(2,3,4)        =    120.050636    -0.000015    -0.050110   120.000526
	   28 B(2,3,9)        =    119.732108     0.000011     0.041772   119.773880
	   29 B(3,2,8)        =    119.756722     0.000003     0.010610   119.767331
	   30 B(3,4,5)        =    120.423859     0.000013     0.043111   120.466970
	   31 B(3,4,10)       =    119.788070    -0.000008    -0.031255   119.756816
	   32 B(4,3,9)        =    120.214297     0.000004     0.007349   120.221646
	   33 B(4,5,6)        =    120.050677     0.000003     0.011275   120.061952
	   34 B(4,5,11)       =    120.214297    -0.000001     0.000568   120.214864
	   35 B(5,4,10)       =    119.788070    -0.000005    -0.011983   119.776088
	   36 B(5,6,12)       =    119.756743     0.000048     0.220570   119.977313
	   37 B(6,1,7)        =    119.919061    -0.000107    -0.321781   119.597280
	   38 B(6,5,11)       =    119.732067    -0.000002    -0.010836   119.721230
	   39 B(7,13,17)      =    119.886320     0.000001    -0.012917   119.873404
	   40 B(7,13,18)      =    122.891428    -0.000027    -0.557037   122.334391
	   41 B(7,14,15)      =    122.891405    -0.000039    -0.199604   122.691801
	   42 B(7,14,16)      =    119.886393     0.000021     0.079133   119.965526
	   43 B(13,7,14)      =    120.129694    -0.000042    -0.189537   119.940157
	   44 B(15,14,16)     =    117.078146     0.000016     0.039654   117.117800
	   45 B(17,13,18)     =    117.078191     0.000016     0.095698   117.173889
	   46 D(1,2,3,4)      =      0.446825    -0.000001    -0.261794     0.185031
	   47 D(1,2,3,9)      =   -178.928735    -0.000001    -0.165106  -179.093842
	   48 D(1,6,5,4)      =      0.446822     0.000001     0.162398     0.609220
	   49 D(1,6,5,11)     =   -178.928737     0.000000     0.045217  -178.883521
	   50 *D(1,7,13,17)   =     20.000015     0.000000     0.000000    20.000015
	   51 D(1,7,13,18)    =   -164.492957    -0.000034    -4.779550  -169.272507
	   52 D(1,7,14,15)    =   -173.730230    -0.000004    -0.848404  -174.578633
	   53 D(1,7,14,16)    =     10.762681     0.000004     0.266859    11.029540
	   54 D(2,1,6,5)      =     -0.223802    -0.000002    -0.437598    -0.661400
	   55 D(2,1,6,12)     =   -177.126283    -0.000004    -0.690079  -177.816361
	   56 D(2,1,7,13)     =   -143.535494    -0.000016    -3.509826  -147.045320
	   57 D(2,1,7,14)     =     36.464506     0.000005     0.180943    36.645450
	   58 D(2,3,4,5)      =     -0.225875    -0.000000    -0.012081    -0.237956
	   59 D(2,3,4,10)     =    179.774125     0.000001     0.117459   179.891583
	   60 D(3,2,1,6)      =     -0.223806     0.000003     0.487454     0.263648
	   61 D(3,2,1,7)      =    179.776196     0.000003     0.473122   180.249317
	   62 D(3,4,5,6)      =     -0.225874     0.000000     0.062109    -0.163766
	   63 D(3,4,5,11)     =    179.146646     0.000001     0.179803   179.326449
	   64 D(4,3,2,8)      =    177.373058    -0.000000    -0.037024   177.336033
	   65 D(4,5,6,12)     =    177.373055     0.000002     0.402287   177.775342
	   66 D(5,4,3,9)      =    179.146646    -0.000001    -0.108991   179.037655
	   67 D(5,6,1,7)      =    179.776197    -0.000002    -0.423350   179.352847
	   68 D(6,1,2,8)      =   -177.126287     0.000001     0.260734  -176.865553
	   69 D(6,1,7,13)     =     36.464508    -0.000016    -3.524069    32.940438
	   70 D(6,1,7,14)     =   -143.535492     0.000005     0.166700  -143.368792
	   71 D(6,5,4,10)     =    179.774126    -0.000000    -0.067456   179.706670
	   72 D(7,1,2,8)      =      2.873714     0.000001     0.246402     3.120116
	   73 D(7,1,6,12)     =      2.873716    -0.000004    -0.675831     2.197885
	   74 D(8,2,3,9)      =     -2.002503     0.000000     0.059663    -1.942839
	   75 D(9,3,4,10)     =     -0.853354     0.000000     0.020549    -0.832805
	   76 D(10,4,5,11)    =     -0.853354     0.000000     0.050238    -0.803116
	   77 D(11,5,6,12)    =     -2.002504     0.000001     0.285105    -1.717399
	   78 D(13,7,14,15)   =      6.269770     0.000017     2.846040     9.115811
	   79 D(13,7,14,16)   =   -169.237319     0.000025     3.961303  -165.276016
	   80 D(14,7,13,17)   =   -159.999985    -0.000021    -3.684226  -163.684212
	   81 D(14,7,13,18)   =     15.507043    -0.000055    -8.463776     7.043267
	 ---------------------------------------------------------------------------
	Successfully symmetrized geometry.

  ==> Convergence Check <==

  Measures of convergence in internal coordinates in au.
  Criteria marked as inactive (o), active & met (*), and active & unmet ( ).
  --------------------------------------------------------------------------------------------- ~
   Step     Total Energy     Delta E     MAX Force     RMS Force      MAX Disp      RMS Disp    ~
  --------------------------------------------------------------------------------------------- ~
    Convergence Criteria    1.00e-06 *    3.00e-04 *             o    1.20e-03 *             o  ~
  --------------------------------------------------------------------------------------------- ~
      1    -381.46960837   -3.81e+02      3.16e-03      6.39e-04 o    1.48e-01      2.46e-02 o  ~
  ---------------------------------------------------------------------------------------------

	Writing optimization data to binary file.
	Structure for next step:
	Cartesian Geometry (in Angstrom)
	    C    -0.0130660106   0.0130146365  -0.1763285479
	    C     0.0336467917   1.2297118823   0.5313047023
	    C     0.0411172130   1.2169926165   1.9222573242
	    C     0.0062526049  -0.0000462635   2.6107191427
	    C    -0.0412524084  -1.2098145108   1.9104792299
	    C    -0.0576020112  -1.2096631685   0.5192088437
	    C    -0.0159050387   0.0125979247  -1.6414540659
	    H     0.0169758386   2.1776054169   0.0006259617
	    H     0.0621929723   2.1538249142   2.4696444916
	    H     0.0140131931  -0.0054157742   3.6964068801
	    H    -0.0571659827  -2.1520252057   2.4486075638
	    H    -0.0579806412  -2.1505764259  -0.0237115198
	    N    -0.6820691508  -0.9339975627  -2.3033952884
	    N     0.7032540980   0.9091127190  -2.3103190427
	    H     0.6682047162   0.9963053252  -3.3194968037
	    H     1.3792669950   1.4816567757  -1.8210291073
	    H    -1.4146320741  -1.4553188656  -1.8369511877
	    H    -0.5829561052  -1.0684174339  -3.3056035767
			--------------------------
			 OPTKING Finished Execution 
			--------------------------

    Structure for next step:
    Molecular point group: c1
    Full point group: C1

    Geometry (in Angstrom), charge = 1, multiplicity = 1:

    C           -0.013066010639     0.013014636529    -0.176328547887
    C            0.033646791703     1.229711882318     0.531304702267
    C            0.041117212953     1.216992616482     1.922257324159
    C            0.006252604931    -0.000046263485     2.610719142716
    C           -0.041252408438    -1.209814510820     1.910479229919
    C           -0.057602011227    -1.209663168500     0.519208843727
    C           -0.015905038669     0.012597924659    -1.641454065945
    H            0.016975838570     2.177605416904     0.000625961683
    H            0.062192972301     2.153824914165     2.469644491632
    H            0.014013193120    -0.005415774205     3.696406880089
    H           -0.057165982668    -2.152025205723     2.448607563767
    H           -0.057980641170    -2.150576425909    -0.023711519753
    N           -0.682069150789    -0.933997562729    -2.303395288386
    N            0.703254097996     0.909112718966    -2.310319042659
    H            0.668204716230     0.996305325166    -3.319496803666
    H            1.379266995035     1.481656775735    -1.821029107306
    H           -1.414632074058    -1.455318865637    -1.836951187655
    H           -0.582956105182    -1.068417433918    -3.305603576702

gradient() will perform analytic gradient computation.

*** tstart() called on oliva.prib.upf.edu
*** at Sat Sep 29 20:31:33 2018

   => Loading Basis Set <=

    Name: 6-31G*
    Role: ORBITAL
    Keyword: BASIS
    atoms 1-7         entry C          line   111 file /shared/joao/test_parameterize/miniconda3/share/psi4/basis/6-31gs.gbs 
    atoms 8-12, 15-18 entry H          line    44 file /shared/joao/test_parameterize/miniconda3/share/psi4/basis/6-31gs.gbs 
    atoms 13-14       entry N          line   128 file /shared/joao/test_parameterize/miniconda3/share/psi4/basis/6-31gs.gbs 


         ---------------------------------------------------------
                                   SCF
            by Justin Turney, Rob Parrish, Andy Simmonett
                             and Daniel Smith
                              RKS Reference
                        4 Threads,   2861 MiB Core
         ---------------------------------------------------------

  ==> Geometry <==

    Molecular point group: c1
    Full point group: C1

    Geometry (in Angstrom), charge = 1, multiplicity = 1:

       Center              X                  Y                   Z               Mass       
    ------------   -----------------  -----------------  -----------------  -----------------
         C           -0.013066010639     0.013014636529    -0.176328547887    12.000000000000
         C            0.033646791703     1.229711882318     0.531304702267    12.000000000000
         C            0.041117212953     1.216992616482     1.922257324159    12.000000000000
         C            0.006252604931    -0.000046263485     2.610719142716    12.000000000000
         C           -0.041252408438    -1.209814510820     1.910479229919    12.000000000000
         C           -0.057602011227    -1.209663168500     0.519208843727    12.000000000000
         C           -0.015905038669     0.012597924659    -1.641454065945    12.000000000000
         H            0.016975838570     2.177605416904     0.000625961683     1.007825032070
         H            0.062192972301     2.153824914165     2.469644491632     1.007825032070
         H            0.014013193120    -0.005415774205     3.696406880089     1.007825032070
         H           -0.057165982668    -2.152025205723     2.448607563767     1.007825032070
         H           -0.057980641170    -2.150576425909    -0.023711519753     1.007825032070
         N           -0.682069150789    -0.933997562729    -2.303395288386    14.003074004780
         N            0.703254097996     0.909112718966    -2.310319042659    14.003074004780
         H            0.668204716230     0.996305325166    -3.319496803666     1.007825032070
         H            1.379266995035     1.481656775735    -1.821029107306     1.007825032070
         H           -1.414632074058    -1.455318865637    -1.836951187655     1.007825032070
         H           -0.582956105182    -1.068417433918    -3.305603576702     1.007825032070

  Running in c1 symmetry.

  Rotational constants: A =      0.12182  B =      0.03966  C =      0.03124 [cm^-1]
  Rotational constants: A =   3651.93381  B =   1189.04737  C =    936.57169 [MHz]
  Nuclear repulsion =  416.879795723598249

  Charge       = 1
  Multiplicity = 1
  Electrons    = 64
  Nalpha       = 32
  Nbeta        = 32

  ==> Algorithm <==

  SCF Algorithm Type is DF.
  DIIS enabled.
  MOM disabled.
  Fractional occupation disabled.
  Guess Type is READ.
  Energy threshold   = 1.00e-08
  Density threshold  = 1.00e-08
  Integral threshold = 0.00e+00

  ==> Primary Basis <==

  Basis Set: 6-31G*
    Blend: 6-31G*
    Number of shells: 72
    Number of basis function: 153
    Number of Cartesian functions: 153
    Spherical Harmonics?: false
    Max angular momentum: 2

  ==> DFT Potential <==

   => Composite Functional: B3LYP-D3ZERO <= 

    B3LYP-d3zero Hyb-GGA Exchange-Correlation Functional

    P. J. Stephens, F. J. Devlin, C. F. Chabalowski, and M. J. Frisch, J. Phys. Chem. 98, 11623 (1994)

    Deriv               =              1
    GGA                 =           TRUE
    Meta                =          FALSE

    Exchange Hybrid     =           TRUE
    MP2 Hybrid          =          FALSE

   => Exchange Functionals <=

    0.0800   Slater exchange
    0.7200         Becke 88

   => Exact (HF) Exchange <=

    0.2000               HF 

   => Correlation Functionals <=

    0.1900   Vosko, Wilk & Nusair (VWN5_RPA)
    0.8100   Lee, Yang & Parr

   => Molecular Quadrature <=

    Radial Scheme       =       TREUTLER
    Pruning Scheme      =           FLAT
    Nuclear Scheme      =       TREUTLER

    BS radius alpha     =              1
    Pruning alpha       =              1
    Radial Points       =             75
    Spherical Points    =            302
    Total Points        =         396958
    Total Blocks        =           3017
    Max Points          =            256
    Max Functions       =            149

   => -D3ZERO: Empirical Dispersion <=

    Grimme's -D3 (zero-damping) Dispersion Correction
    Grimme S.; Antony J.; Ehrlich S.; Krieg H. (2010), J. Chem. Phys., 132: 154104

        S6 =   1.000000E+00
        S8 =   1.703000E+00
       SR6 =   1.261000E+00
       SR8 =   1.000000E+00
    ALPHA6 =   1.400000E+01

   => Loading Basis Set <=

    Name: (6-31G* AUX)
    Role: JKFIT
    Keyword: DF_BASIS_SCF
    atoms 1-7         entry C          line   121 file /shared/joao/test_parameterize/miniconda3/share/psi4/basis/cc-pvdz-jkfit.gbs 
    atoms 8-12, 15-18 entry H          line    51 file /shared/joao/test_parameterize/miniconda3/share/psi4/basis/cc-pvdz-jkfit.gbs 
    atoms 13-14       entry N          line   171 file /shared/joao/test_parameterize/miniconda3/share/psi4/basis/cc-pvdz-jkfit.gbs 

  Reading orbitals from file 180, no projection.

  ==> Pre-Iterations <==

   -------------------------------------------------------
    Irrep   Nso     Nmo     Nalpha   Nbeta   Ndocc  Nsocc
   -------------------------------------------------------
     A        153     153       0       0       0       0
   -------------------------------------------------------
    Total     153     153      32      32      32       0
   -------------------------------------------------------

  ==> Integral Setup <==

  ==> DiskDFJK: Density-Fitted J/K Matrices <==

    J tasked:                  Yes
    K tasked:                  Yes
    wK tasked:                  No
    OpenMP threads:              4
    Integrals threads:           4
    Memory (MB):              2002
    Algorithm:                Core
    Integral Cache:           NONE
    Schwarz Cutoff:          1E-12
    Fitting Condition:       1E-12

   => Auxiliary Basis Set <=

  Basis Set: (6-31G* AUX)
    Blend: CC-PVDZ-JKFIT
    Number of shells: 297
    Number of basis function: 954
    Number of Cartesian functions: 954
    Spherical Harmonics?: false
    Max angular momentum: 3

  Minimum eigenvalue in the overlap matrix is 4.8716201442E-04.
  Using Symmetric Orthogonalization.

  SCF Guess: Orbitals guess was supplied from a previous computation.

  ==> Iterations <==

                           Total Energy        Delta E     RMS |[F,P]|

   @DF-RKS iter   0:  -381.46389735605891   -3.81464e+02   1.03747e-03 
   @DF-RKS iter   1:  -381.47001526880774   -6.11791e-03   9.13870e-05 
   @DF-RKS iter   2:  -381.47002434019646   -9.07139e-06   9.96278e-05 DIIS
   @DF-RKS iter   3:  -381.47004961253413   -2.52723e-05   2.96310e-05 DIIS
   @DF-RKS iter   4:  -381.47005163714852   -2.02461e-06   1.33526e-05 DIIS
   @DF-RKS iter   5:  -381.47005211130846   -4.74160e-07   3.68989e-06 DIIS
   @DF-RKS iter   6:  -381.47005214830216   -3.69937e-08   1.12638e-06 DIIS
   @DF-RKS iter   7:  -381.47005215206394   -3.76178e-09   3.32273e-07 DIIS
   @DF-RKS iter   8:  -381.47005215239085   -3.26907e-10   1.03280e-07 DIIS
   @DF-RKS iter   9:  -381.47005215242365   -3.27987e-11   2.66463e-08 DIIS
   @DF-RKS iter  10:  -381.47005215242524   -1.59162e-12   1.28029e-08 DIIS
   @DF-RKS iter  11:  -381.47005215242615   -9.09495e-13   3.78266e-09 DIIS

  ==> Post-Iterations <==

    Orbital Energies [Eh]
    ---------------------

    Doubly Occupied:                                                      

       1A    -14.568411     2A    -14.567060     3A    -10.496590  
       4A    -10.372723     5A    -10.356237     6A    -10.355998  
       7A    -10.343549     8A    -10.340520     9A    -10.340407  
      10A     -1.182914    11A     -1.090751    12A     -1.014185  
      13A     -0.926513    14A     -0.902170    15A     -0.844533  
      16A     -0.784680    17A     -0.772840    18A     -0.740449  
      19A     -0.732396    20A     -0.690419    21A     -0.669065  
      22A     -0.625478    23A     -0.615042    24A     -0.585795  
      25A     -0.579131    26A     -0.571983    27A     -0.518232  
      28A     -0.505470    29A     -0.498039    30A     -0.473061  
      31A     -0.412047    32A     -0.405732  

    Virtual:                                                              

      33A     -0.219082    34A     -0.157220    35A     -0.127746  
      36A     -0.107726    37A     -0.067596    38A     -0.061110  
      39A     -0.038036    40A     -0.033073    41A      0.007909  
      42A      0.018163    43A      0.021429    44A      0.055077  
      45A      0.061885    46A      0.085059    47A      0.127392  
      48A      0.146099    49A      0.157560    50A      0.157744  
      51A      0.201404    52A      0.243296    53A      0.299073  
      54A      0.351119    55A      0.355065    56A      0.381306  
      57A      0.388202    58A      0.397204    59A      0.421644  
      60A      0.423764    61A      0.442296    62A      0.448341  
      63A      0.453479    64A      0.471333    65A      0.472928  
      66A      0.475243    67A      0.484817    68A      0.513759  
      69A      0.528344    70A      0.532587    71A      0.539971  
      72A      0.592010    73A      0.605915    74A      0.656143  
      75A      0.657205    76A      0.684142    77A      0.687887  
      78A      0.703921    79A      0.715912    80A      0.719288  
      81A      0.737368    82A      0.770544    83A      0.774712  
      84A      0.799197    85A      0.810275    86A      0.828255  
      87A      0.851207    88A      0.942263    89A      0.957117  
      90A      0.990748    91A      1.003232    92A      1.026844  
      93A      1.069472    94A      1.079469    95A      1.135028  
      96A      1.163781    97A      1.212186    98A      1.275391  
      99A      1.283445   100A      1.307570   101A      1.322993  
     102A      1.342997   103A      1.360762   104A      1.373480  
     105A      1.437734   106A      1.450036   107A      1.487649  
     108A      1.617528   109A      1.630788   110A      1.655611  
     111A      1.663676   112A      1.737550   113A      1.754585  
     114A      1.795140   115A      1.824435   116A      1.853252  
     117A      1.896328   118A      1.905697   119A      1.958982  
     120A      1.973982   121A      1.997054   122A      2.013645  
     123A      2.038533   124A      2.054356   125A      2.127316  
     126A      2.130433   127A      2.152460   128A      2.206805  
     129A      2.244751   130A      2.265337   131A      2.349456  
     132A      2.366810   133A      2.445046   134A      2.454397  
     135A      2.488803   136A      2.511180   137A      2.548242  
     138A      2.587907   139A      2.602651   140A      2.631184  
     141A      2.738315   142A      2.872047   143A      2.987077  
     144A      3.259065   145A      3.636413   146A      3.656058  
     147A      3.910628   148A      3.947033   149A      3.963636  
     150A      4.050559   151A      4.173527   152A      4.257072  
     153A      4.546513  

    Final Occupation by Irrep:
              A 
    DOCC [    32 ]

  Energy converged.

  @DF-RKS Final Energy:  -381.47005215242615

   => Energetics <=

    Nuclear Repulsion Energy =            416.8797957235982494
    One-Electron Energy =               -1328.9886889042957137
    Two-Electron Energy =                 575.0541840383070848
    DFT Exchange-Correlation Energy =     -44.4034033000358050
    Empirical Dispersion Energy =          -0.0119397100000000
    VV10 Nonlocal Energy =                  0.0000000000000000
    Total Energy =                       -381.4700521524261490



Properties will be evaluated at   0.000000,   0.000000,   0.000000 [a0]

Properties computed using the SCF density matrix

  Nuclear Dipole Moment: [e a0]
     X:    -0.1977      Y:     0.2272      Z:     0.1315

  Electronic Dipole Moment: [e a0]
     X:     0.2023      Y:    -0.2177      Z:    -2.3777

  Dipole Moment: [e a0]
     X:     0.0045      Y:     0.0095      Z:    -2.2462     Total:     2.2462

  Dipole Moment: [D]
     X:     0.0115      Y:     0.0241      Z:    -5.7092     Total:     5.7093


*** tstop() called on oliva.prib.upf.edu at Sat Sep 29 20:31:55 2018
Module time:
	user time   =      81.23 seconds =       1.35 minutes
	system time =       0.63 seconds =       0.01 minutes
	total time  =         22 seconds =       0.37 minutes
Total time:
	user time   =     209.98 seconds =       3.50 minutes
	system time =       1.78 seconds =       0.03 minutes
	total time  =         59 seconds =       0.98 minutes

*** tstart() called on oliva.prib.upf.edu
*** at Sat Sep 29 20:31:55 2018


         ------------------------------------------------------------
                                   SCF GRAD                          
                          Rob Parrish, Justin Turney,                
                       Andy Simmonett, and Alex Sokolov              
         ------------------------------------------------------------

  ==> Geometry <==

    Molecular point group: c1
    Full point group: C1

    Geometry (in Angstrom), charge = 1, multiplicity = 1:

       Center              X                  Y                   Z               Mass       
    ------------   -----------------  -----------------  -----------------  -----------------
         C           -0.013066010639     0.013014636529    -0.176328547887    12.000000000000
         C            0.033646791703     1.229711882318     0.531304702267    12.000000000000
         C            0.041117212953     1.216992616482     1.922257324159    12.000000000000
         C            0.006252604931    -0.000046263485     2.610719142716    12.000000000000
         C           -0.041252408438    -1.209814510820     1.910479229919    12.000000000000
         C           -0.057602011227    -1.209663168500     0.519208843727    12.000000000000
         C           -0.015905038669     0.012597924659    -1.641454065945    12.000000000000
         H            0.016975838570     2.177605416904     0.000625961683     1.007825032070
         H            0.062192972301     2.153824914165     2.469644491632     1.007825032070
         H            0.014013193120    -0.005415774205     3.696406880089     1.007825032070
         H           -0.057165982668    -2.152025205723     2.448607563767     1.007825032070
         H           -0.057980641170    -2.150576425909    -0.023711519753     1.007825032070
         N           -0.682069150789    -0.933997562729    -2.303395288386    14.003074004780
         N            0.703254097996     0.909112718966    -2.310319042659    14.003074004780
         H            0.668204716230     0.996305325166    -3.319496803666     1.007825032070
         H            1.379266995035     1.481656775735    -1.821029107306     1.007825032070
         H           -1.414632074058    -1.455318865637    -1.836951187655     1.007825032070
         H           -0.582956105182    -1.068417433918    -3.305603576702     1.007825032070

  Nuclear repulsion =  416.879795723598249

  ==> Basis Set <==

  Basis Set: 6-31G*
    Blend: 6-31G*
    Number of shells: 72
    Number of basis function: 153
    Number of Cartesian functions: 153
    Spherical Harmonics?: false
    Max angular momentum: 2

  ==> DFJKGrad: Density-Fitted SCF Gradients <==

    Gradient:                    1
    J tasked:                  Yes
    K tasked:                  Yes
    wK tasked:                  No
    OpenMP threads:              4
    Integrals threads:           4
    Memory (MB):              2002
    Schwarz Cutoff:          0E+00
    Fitting Condition:       1E-12

   => Auxiliary Basis Set <=

  Basis Set: (6-31G* AUX)
    Blend: CC-PVDZ-JKFIT
    Number of shells: 297
    Number of basis function: 954
    Number of Cartesian functions: 954
    Spherical Harmonics?: false
    Max angular momentum: 3

  ==> DFT Potential <==

   => Composite Functional: B3LYP-D3ZERO <= 

    B3LYP-d3zero Hyb-GGA Exchange-Correlation Functional

    P. J. Stephens, F. J. Devlin, C. F. Chabalowski, and M. J. Frisch, J. Phys. Chem. 98, 11623 (1994)

    Deriv               =              1
    GGA                 =           TRUE
    Meta                =          FALSE

    Exchange Hybrid     =           TRUE
    MP2 Hybrid          =          FALSE

   => Exchange Functionals <=

    0.0800   Slater exchange
    0.7200         Becke 88

   => Exact (HF) Exchange <=

    0.2000               HF 

   => Correlation Functionals <=

    0.1900   Vosko, Wilk & Nusair (VWN5_RPA)
    0.8100   Lee, Yang & Parr

   => Molecular Quadrature <=

    Radial Scheme       =       TREUTLER
    Pruning Scheme      =           FLAT
    Nuclear Scheme      =       TREUTLER

    BS radius alpha     =              1
    Pruning alpha       =              1
    Radial Points       =             75
    Spherical Points    =            302
    Total Points        =         396958
    Total Blocks        =           3017
    Max Points          =            256
    Max Functions       =            149


  -Total Gradient:
     Atom            X                  Y                   Z
    ------   -----------------  -----------------  -----------------
       1        0.002711778545    -0.002102519476     0.000374825570
       2       -0.000304087065     0.000160245988     0.000072672465
       3        0.000061411254     0.000050078442     0.000114346662
       4        0.000027648433     0.000091237646     0.000081737517
       5        0.000147511198     0.000021110166     0.000078377063
       6        0.000033333991     0.000143990207    -0.000623563561
       7       -0.004299461725     0.005693206457    -0.000082823004
       8       -0.000047677193     0.000064503684     0.000135013303
       9        0.000007955096     0.000073093062     0.000018652777
      10       -0.000068518314     0.000030338522     0.000032429726
      11       -0.000012878322    -0.000034883750    -0.000039287078
      12       -0.000373707421    -0.000054705884    -0.000444457944
      13        0.001721761847    -0.002886333379     0.002019250756
      14        0.000237646324    -0.000735701729     0.000220859882
      15       -0.000069103347    -0.000134897479    -0.000165269046
      16        0.000501609298    -0.000257544338     0.000047409373
      17       -0.001834323022     0.000634994772     0.000258011195
      18        0.001548893149    -0.000759678167    -0.002111205366


*** tstop() called on oliva.prib.upf.edu at Sat Sep 29 20:32:03 2018
Module time:
	user time   =      29.22 seconds =       0.49 minutes
	system time =       0.22 seconds =       0.00 minutes
	total time  =          8 seconds =       0.13 minutes
Total time:
	user time   =     239.26 seconds =       3.99 minutes
	system time =       2.01 seconds =       0.03 minutes
	total time  =         67 seconds =       1.12 minutes

			-----------------------------------------
			 OPTKING 2.0: for geometry optimizations 
			  - R.A. King,  Bethel University        
			-----------------------------------------
	At level 1: Red. Int., RFO, no backsteps, dynamic trust

	Previous internal coordinate definitions found.
	---Fragment 1 Geometry and Gradient---
	 C          -0.0246911818        0.0245940988       -0.3332126649
	 C           0.0635832216        2.3238186799        1.0040203804
	 C           0.0777002718        2.2997827509        3.6325398996
	 C           0.0118157109       -0.0000874253        4.9335441896
	 C          -0.0779557543       -2.2862180970        3.6102825271
	 C          -0.1088520259       -2.2859321015        0.9811625204
	 C          -0.0300561672        0.0238066274       -3.1018986443
	 H           0.0320796858        4.1150778634        0.0011828962
	 H           0.1175276850        4.0701392260        4.6669517348
	 H           0.0264810972       -0.0102343300        6.9851966791
	 H          -0.1080280514       -4.0667382699        4.6271977024
	 H          -0.1095675328       -4.0640004728       -0.0448082785
	 N          -1.2889238987       -1.7649996023       -4.3527862708
	 N           1.3289576470        1.7179740628       -4.3658702702
	 H           1.2627239144        1.8827442093       -6.2729398579
	 H           2.6064368847        2.7999255291       -3.4412462928
	 H          -2.6732671988       -2.7501540921       -3.4713346641
	 H          -1.1016273863       -2.0190163457       -6.2466854639
	             0.0027117785       -0.0021025195        0.0003748256
	            -0.0003040871        0.0001602460        0.0000726725
	             0.0000614113        0.0000500784        0.0001143467
	             0.0000276484        0.0000912376        0.0000817375
	             0.0001475112        0.0000211102        0.0000783771
	             0.0000333340        0.0001439902       -0.0006235636
	            -0.0042994617        0.0056932065       -0.0000828230
	            -0.0000476772        0.0000645037        0.0001350133
	             0.0000079551        0.0000730931        0.0000186528
	            -0.0000685183        0.0000303385        0.0000324297
	            -0.0000128783       -0.0000348837       -0.0000392871
	            -0.0003737074       -0.0000547059       -0.0004444579
	             0.0017217618       -0.0028863334        0.0020192508
	             0.0002376463       -0.0007357017        0.0002208599
	            -0.0000691033       -0.0001348975       -0.0001652690
	             0.0005016093       -0.0002575443        0.0000474094
	            -0.0018343230        0.0006349948        0.0002580112
	             0.0015488931       -0.0007596782       -0.0021112054

	---Fragment 1 Intrafragment Coordinates---
	 - Coordinate -           - BOHR/RAD -       - ANG/DEG -
	 R(1,2)           =         2.661281	       1.408289
	 R(1,6)           =         2.659548	       1.407372
	 R(1,7)           =         2.768691	       1.465128
	 R(2,3)           =         2.628667	       1.391031
	 R(2,8)           =         2.053116	       1.086462
	 R(3,4)           =         2.643172	       1.398706
	 R(3,9)           =         2.050794	       1.085233
	 R(4,5)           =         2.643005	       1.398618
	 R(4,10)          =         2.051730	       1.085729
	 R(5,6)           =         2.629302	       1.391366
	 R(5,11)          =         2.050676	       1.085171
	 R(6,12)          =         2.052838	       1.086315
	 R(7,13)          =         2.519781	       1.333411
	 R(7,14)          =         2.512916	       1.329778
	 R(13,17)         =         1.914130	       1.012914
	 R(13,18)         =         1.920015	       1.016028
	 R(14,15)         =         1.915320	       1.013544
	 R(14,16)         =         1.912460	       1.012030
	 B(1,2,3)         =         2.088317	     119.651765
	 B(1,2,8)         =         2.103451	     120.518869
	 B(1,6,5)         =         2.087364	     119.597141
	 B(1,6,12)        =         2.100754	     120.364361
	 B(1,7,13)        =         2.091622	     119.841092
	 B(1,7,14)        =         2.096416	     120.115805
	 B(2,1,6)         =         2.098204	     120.218214
	 B(2,1,7)         =         2.097615	     120.184504
	 B(2,3,4)         =         2.094404	     120.000526
	 B(2,3,9)         =         2.090449	     119.773880
	 B(3,2,8)         =         2.090334	     119.767331
	 B(3,4,5)         =         2.102545	     120.466970
	 B(3,4,10)        =         2.090151	     119.756816
	 B(4,3,9)         =         2.098264	     120.221646
	 B(4,5,6)         =         2.095476	     120.061952
	 B(4,5,11)        =         2.098145	     120.214864
	 B(5,4,10)        =         2.090487	     119.776088
	 B(5,6,12)        =         2.093999	     119.977313
	 B(6,1,7)         =         2.087366	     119.597280
	 B(6,5,11)        =         2.089530	     119.721230
	 B(7,13,17)       =         2.092186	     119.873404
	 B(7,13,18)       =         2.135138	     122.334391
	 B(7,14,15)       =         2.141376	     122.691801
	 B(7,14,16)       =         2.093793	     119.965526
	 B(13,7,14)       =         2.093351	     119.940157
	 B(15,14,16)      =         2.044091	     117.117800
	 B(17,13,18)      =         2.045070	     117.173889
	 D(1,2,3,4)       =         0.003229	       0.185031
	 D(1,2,3,9)       =        -3.125777	    -179.093842
	 D(1,6,5,4)       =         0.010633	       0.609220
	 D(1,6,5,11)      =        -3.122106	    -178.883521
	*D(1,7,13,17)     =         0.349066	      20.000015
	 D(1,7,13,18)     =        -2.954363	    -169.272507
	 D(1,7,14,15)     =        -3.046972	    -174.578633
	 D(1,7,14,16)     =         0.192502	      11.029540
	 D(2,1,6,5)       =        -0.011544	      -0.661400
	 D(2,1,6,12)      =        -3.103481	    -177.816361
	 D(2,1,7,13)      =        -2.566425	    -147.045320
	 D(2,1,7,14)      =         0.639584	      36.645450
	 D(2,3,4,5)       =        -0.004153	      -0.237956
	 D(2,3,4,10)      =         3.139700	     179.891583
	 D(3,2,1,6)       =         0.004602	       0.263648
	 D(3,2,1,7)       =        -3.137241	    -179.750683
	 D(3,4,5,6)       =        -0.002858	      -0.163766
	 D(3,4,5,11)      =         3.129837	     179.326449
	 D(4,3,2,8)       =         3.095098	     177.336033
	 D(4,5,6,12)      =         3.102765	     177.775342
	 D(5,4,3,9)       =         3.124797	     179.037655
	 D(5,6,1,7)       =         3.130298	     179.352847
	 D(6,1,2,8)       =        -3.086886	    -176.865553
	 D(6,1,7,13)      =         0.574919	      32.940438
	 D(6,1,7,14)      =        -2.502257	    -143.368792
	 D(6,5,4,10)      =         3.136473	     179.706670
	 D(7,1,2,8)       =         0.054456	       3.120116
	 D(7,1,6,12)      =         0.038360	       2.197885
	 D(8,2,3,9)       =        -0.033909	      -1.942839
	 D(9,3,4,10)      =        -0.014535	      -0.832805
	 D(10,4,5,11)     =        -0.014017	      -0.803116
	 D(11,5,6,12)     =        -0.029974	      -1.717399
	 D(13,7,14,15)    =         0.159101	       9.115811
	 D(13,7,14,16)    =        -2.884611	    -165.276016
	 D(14,7,13,17)    =        -2.856828	    -163.684212
	 D(14,7,13,18)    =         0.122928	       7.043267

	Current energy   :      -381.4700521524

	Energy change for the previous step:
		Projected    :        -0.0015785128
		Actual       :        -0.0004437838

	Performing BFGS update.
	Previous computed or guess Hessian on step 1.
	Steps to be used in Hessian update: 1
	Taking RFO optimization step.
	Going to follow RFO solution 1.
	Using RFO vector 1.
	Norm of target step-size    0.13777
	Projected energy change by RFO approximation:        -0.0002353891

	Back-transformation to cartesian coordinates...
	Could not converge backtransformation.
	Using first guess instead.

	Back-transformation to cartesian coordinates to adjust frozen coordinates...
	Successfully converged to displaced geometry.

	--- Internal Coordinate Step in ANG or DEG, aJ/ANG or AJ/DEG ---
	 ---------------------------------------------------------------------------
	   Coordinate                Previous        Force       Change         New 
	   ----------                --------       ------       ------       ------
	    1 R(1,2)          =      1.408289    -0.002913    -0.000076     1.408214
	    2 R(1,6)          =      1.407372     0.005812     0.000737     1.408109
	    3 R(1,7)          =      1.465128     0.001545    -0.000280     1.464848
	    4 R(2,3)          =      1.391031    -0.000950    -0.000178     1.390853
	    5 R(2,8)          =      1.086462     0.000076     0.000066     1.086528
	    6 R(3,4)          =      1.398706    -0.000758     0.000049     1.398756
	    7 R(3,9)          =      1.085233    -0.000602    -0.000047     1.085186
	    8 R(4,5)          =      1.398618    -0.002245    -0.000143     1.398474
	    9 R(4,10)         =      1.085729    -0.000268     0.000007     1.085736
	   10 R(5,6)          =      1.391366    -0.001454    -0.000094     1.391272
	   11 R(5,11)         =      1.085171    -0.000093     0.000018     1.085189
	   12 R(6,12)         =      1.086315    -0.002218    -0.000316     1.085999
	   13 R(7,13)         =      1.333411    -0.010991    -0.000009     1.333402
	   14 R(7,14)         =      1.329778     0.003695     0.000407     1.330185
	   15 R(13,17)        =      1.012914    -0.009207    -0.000635     1.012279
	   16 R(13,18)        =      1.016028    -0.019228     0.001256     1.017285
	   17 R(14,15)        =      1.013544    -0.001271     0.000041     1.013585
	   18 R(14,16)        =      1.012030    -0.001762    -0.000009     1.012021
	   19 B(1,2,3)        =    119.651765     0.000012     0.032517   119.684282
	   20 B(1,2,8)        =    120.518869    -0.000018    -0.065852   120.453016
	   21 B(1,6,5)        =    119.597141     0.000008     0.009889   119.607030
	   22 B(1,6,12)       =    120.364361     0.000023     0.039912   120.404273
	   23 B(1,7,13)       =    119.841092     0.000097     0.262804   120.103896
	   24 B(1,7,14)       =    120.115805    -0.000075    -0.107252   120.008553
	   25 B(2,1,6)        =    120.218214    -0.000026    -0.043415   120.174799
	   26 B(2,1,7)        =    120.184504    -0.000090    -0.150989   120.033515
	   27 B(2,3,4)        =    120.000526     0.000007    -0.003874   119.996653
	   28 B(2,3,9)        =    119.773880    -0.000002     0.014469   119.788349
	   29 B(3,2,8)        =    119.767331     0.000005     0.032597   119.799929
	   30 B(3,4,5)        =    120.466970    -0.000000     0.005379   120.472350
	   31 B(3,4,10)       =    119.756816     0.000002     0.003219   119.760035
	   32 B(4,3,9)        =    120.221646    -0.000005    -0.010113   120.211533
	   33 B(4,5,6)        =    120.061952    -0.000001     0.001031   120.062983
	   34 B(4,5,11)       =    120.214864    -0.000003    -0.015625   120.199239
	   35 B(5,4,10)       =    119.776088    -0.000002    -0.008487   119.767601
	   36 B(5,6,12)       =    119.977313    -0.000032    -0.060275   119.917038
	   37 B(6,1,7)        =    119.597280     0.000116     0.192968   119.790249
	   38 B(6,5,11)       =    119.721230     0.000005     0.013046   119.734276
	   39 B(7,13,17)      =    119.873404    -0.000006    -0.217887   119.655517
	   40 B(7,13,18)      =    122.334391     0.000033    -0.245017   122.089374
	   41 B(7,14,15)      =    122.691801     0.000014     0.022714   122.714515
	   42 B(7,14,16)      =    119.965526    -0.000003     0.045311   120.010837
	   43 B(13,7,14)      =    119.940157    -0.000016    -0.068239   119.871918
	   44 B(15,14,16)     =    117.117800    -0.000008    -0.011172   117.106628
	   45 B(17,13,18)     =    117.173889    -0.000043    -0.537881   116.636008
	   46 D(1,2,3,4)      =      0.185031     0.000001     0.081862     0.266893
	   47 D(1,2,3,9)      =   -179.093842     0.000000     0.036491  -179.057351
	   48 D(1,6,5,4)      =      0.609220    -0.000001    -0.129461     0.479759
	   49 D(1,6,5,11)     =   -178.883521     0.000000     0.042552  -178.840968
	   50 *D(1,7,13,17)   =     20.000015     0.000000    -0.000000    20.000015
	   51 D(1,7,13,18)    =   -169.272507    -0.000029    -5.724541  -174.997048
	   52 D(1,7,14,15)    =   -174.578633     0.000012     1.565504  -173.013129
	   53 D(1,7,14,16)    =     11.029540     0.000004     0.807104    11.836644
	   54 D(2,1,6,5)      =     -0.661400     0.000002     0.272155    -0.389245
	   55 D(2,1,6,12)     =   -177.816361     0.000005     0.507740  -177.308621
	   56 D(2,1,7,13)     =   -147.045320     0.000011     0.859236  -146.186083
	   57 D(2,1,7,14)     =     36.645450    -0.000010    -1.391582    35.253868
	   58 D(2,3,4,5)      =     -0.237956     0.000000     0.060416    -0.177541
	   59 D(2,3,4,10)     =    179.891583    -0.000001    -0.113121   179.778462
	   60 D(3,2,1,6)      =      0.263648    -0.000002    -0.248456     0.015192
	   61 D(3,2,1,7)      =   -179.750683     0.000000     0.202961  -179.547722
	   62 D(3,4,5,6)      =     -0.163766    -0.000000    -0.036353    -0.200118
	   63 D(3,4,5,11)     =    179.326449    -0.000002    -0.209026   179.117423
	   64 D(4,3,2,8)      =    177.336033     0.000000     0.063060   177.399093
	   65 D(4,5,6,12)     =    177.775342    -0.000003    -0.361006   177.414336
	   66 D(5,4,3,9)      =    179.037655     0.000001     0.106160   179.143816
	   67 D(5,6,1,7)      =    179.352847    -0.000000    -0.178111   179.174735
	   68 D(6,1,2,8)      =   -176.865553    -0.000002    -0.232407  -177.097959
	   69 D(6,1,7,13)     =     32.940438     0.000014     1.308875    34.249314
	   70 D(6,1,7,14)     =   -143.368792    -0.000008    -0.941943  -144.310735
	   71 D(6,5,4,10)     =    179.706670     0.000001     0.137213   179.843882
	   72 D(7,1,2,8)      =      3.120116     0.000001     0.219011     3.339127
	   73 D(7,1,6,12)     =      2.197885     0.000002     0.057474     2.255359
	   74 D(8,2,3,9)      =     -1.942839    -0.000000     0.017688    -1.925151
	   75 D(9,3,4,10)     =     -0.832805    -0.000000    -0.067377    -0.900182
	   76 D(10,4,5,11)    =     -0.803116    -0.000000    -0.035461    -0.838576
	   77 D(11,5,6,12)    =     -1.717399    -0.000002    -0.188992    -1.906391
	   78 D(13,7,14,15)   =      9.115811    -0.000011    -0.692350     8.423460
	   79 D(13,7,14,16)   =   -165.276016    -0.000019    -1.450750  -166.726766
	   80 D(14,7,13,17)   =   -163.684212     0.000021     2.246252  -161.437960
	   81 D(14,7,13,18)   =      7.043267    -0.000007    -3.478289     3.564978
	 ---------------------------------------------------------------------------
	Successfully symmetrized geometry.

  ==> Convergence Check <==

  Measures of convergence in internal coordinates in au.
  Criteria marked as inactive (o), active & met (*), and active & unmet ( ).
  ---------------------------------------------------------------------------------------------
   Step     Total Energy     Delta E     MAX Force     RMS Force      MAX Disp      RMS Disp   
  ---------------------------------------------------------------------------------------------
    Convergence Criteria    1.00e-06 *    3.00e-04 *             o    1.20e-03 *             o
  ---------------------------------------------------------------------------------------------
      2    -381.47005215   -4.44e-04      2.33e-03      5.59e-04 o    9.99e-02      1.53e-02 o  ~
  ---------------------------------------------------------------------------------------------

	Writing optimization data to binary file.
	Structure for next step:
	Cartesian Geometry (in Angstrom)
	    C    -0.0063827183  -0.0006531790  -0.1756315306
	    C     0.0369723748   1.2202179736   0.5248395614
	    C     0.0374573265   1.2166774656   1.9156882462
	    C     0.0006523169   0.0040691704   2.6119236248
	    C    -0.0405349810  -1.2102834614   1.9195493129
	    C    -0.0493702883  -1.2194044454   0.5283350639
	    C     0.0027954948  -0.0062197749  -1.6404402931
	    H     0.0228246430   2.1643386034  -0.0127291226
	    H     0.0553445080   2.1569324254   2.4571950200
	    H     0.0048105796   0.0056721296   3.6976503479
	    H    -0.0545514162  -2.1488804076   2.4640445618
	    H    -0.0389084128  -2.1641213265  -0.0071975536
	    N    -0.6720110260  -0.9413052986  -2.3099268160
	    N     0.7081605674   0.9051110580  -2.3047663205
	    H     0.6632287190   1.0049090625  -3.3124245966
	    H     1.3756576345   1.4856246854  -1.8131992011
	    H    -1.4172354864  -1.4479159173  -1.8487383739
	    H    -0.6266148353  -1.0192217634  -3.3232069309
			--------------------------
			 OPTKING Finished Execution 
			--------------------------

    Structure for next step:
    Molecular point group: c1
    Full point group: C1

    Geometry (in Angstrom), charge = 1, multiplicity = 1:

    C           -0.006382718271    -0.000653178998    -0.175631530616
    C            0.036972374781     1.220217973637     0.524839561390
    C            0.037457326524     1.216677465621     1.915688246155
    C            0.000652316873     0.004069170386     2.611923624836
    C           -0.040534981034    -1.210283461422     1.919549312895
    C           -0.049370288336    -1.219404445405     0.528335063884
    C            0.002795494751    -0.006219774915    -1.640440293073
    H            0.022824642969     2.164338603401    -0.012729122568
    H            0.055344508020     2.156932425424     2.457195020025
    H            0.004810579551     0.005672129615     3.697650347938
    H           -0.054551416223    -2.148880407557     2.464044561750
    H           -0.038908412805    -2.164121326468    -0.007197553593
    N           -0.672011026047    -0.941305298619    -2.309926816035
    N            0.708160567420     0.905111057995    -2.304766320495
    H            0.663228719005     1.004909062541    -3.312424596619
    H            1.375657634548     1.485624685423    -1.813199201071
    H           -1.417235486414    -1.447915917270    -1.848738373927
    H           -0.626614835312    -1.019221763389    -3.323206930878

gradient() will perform analytic gradient computation.

*** tstart() called on oliva.prib.upf.edu
*** at Sat Sep 29 20:32:03 2018

   => Loading Basis Set <=

    Name: 6-31G*
    Role: ORBITAL
    Keyword: BASIS
    atoms 1-7         entry C          line   111 file /shared/joao/test_parameterize/miniconda3/share/psi4/basis/6-31gs.gbs 
    atoms 8-12, 15-18 entry H          line    44 file /shared/joao/test_parameterize/miniconda3/share/psi4/basis/6-31gs.gbs 
    atoms 13-14       entry N          line   128 file /shared/joao/test_parameterize/miniconda3/share/psi4/basis/6-31gs.gbs 


         ---------------------------------------------------------
                                   SCF
            by Justin Turney, Rob Parrish, Andy Simmonett
                             and Daniel Smith
                              RKS Reference
                        4 Threads,   2861 MiB Core
         ---------------------------------------------------------

  ==> Geometry <==

    Molecular point group: c1
    Full point group: C1

    Geometry (in Angstrom), charge = 1, multiplicity = 1:

       Center              X                  Y                   Z               Mass       
[...]
	            -0.0023864889        0.0018809084       -0.0002034298
	             0.0000021934       -0.0000001827       -0.0000008560
	            -0.0000006501        0.0000001130        0.0000019567
	            -0.0000020452        0.0000034204       -0.0000005502
	            -0.0000051690        0.0000007340       -0.0000012342
	             0.0000040479       -0.0000055224       -0.0000027752
	             0.0025906788       -0.0024684375        0.0008640129
	             0.0000073666       -0.0000018375       -0.0000156279
	            -0.0000033493       -0.0000009867        0.0000036158
	            -0.0000041057        0.0000006711        0.0000005737
	            -0.0014044345        0.0014606576       -0.0006312139
	            -0.0000061795       -0.0000060575       -0.0000090922

	---Fragment 1 Intrafragment Coordinates---
	 - Coordinate -           - BOHR/RAD -       - ANG/DEG -
	 R(1,2)           =         2.660676	       1.407969
	 R(1,6)           =         2.660420	       1.407834
	 R(1,7)           =         2.769326	       1.465464
	 R(2,3)           =         2.628617	       1.391004
	 R(2,8)           =         2.053082	       1.086444
	 R(3,4)           =         2.642768	       1.398492
	 R(3,9)           =         2.050621	       1.085142
	 R(4,5)           =         2.642576	       1.398391
	 R(4,10)          =         2.051631	       1.085676
	 R(5,6)           =         2.628941	       1.391176
	 R(5,11)          =         2.050641	       1.085152
	 R(6,12)          =         2.052444	       1.086107
	 R(7,13)          =         2.517637	       1.332276
	 R(7,14)          =         2.513188	       1.329922
	 R(13,17)         =         1.912393	       1.011995
	 R(13,18)         =         1.915428	       1.013601
	 R(14,15)         =         1.914959	       1.013353
	 R(14,16)         =         1.911971	       1.011772
	 B(1,2,3)         =         2.088691	     119.673177
	 B(1,2,8)         =         2.103235	     120.506482
	 B(1,6,5)         =         2.087922	     119.629132
	 B(1,6,12)        =         2.101771	     120.422599
	 B(1,7,13)        =         2.092366	     119.883756
	 B(1,7,14)        =         2.094520	     120.007139
	 B(2,1,6)         =         2.097230	     120.162422
	 B(2,1,7)         =         2.094208	     119.989272
	 B(2,3,4)         =         2.094809	     120.023694
	 B(2,3,9)         =         2.090230	     119.761349
	 B(3,2,8)         =         2.090041	     119.750539
	 B(3,4,5)         =         2.102153	     120.444518
	 B(3,4,10)        =         2.090425	     119.772515
	 B(4,3,9)         =         2.098089	     120.211642
	 B(4,5,6)         =         2.095532	     120.065143
	 B(4,5,11)        =         2.097929	     120.202500
	 B(5,4,10)        =         2.090607	     119.782965
	 B(5,6,12)        =         2.092275	     119.878513
	 B(6,1,7)         =         2.091747	     119.848290
	 B(6,5,11)        =         2.089670	     119.729285
	 B(7,13,17)       =         2.086576	     119.552022
	 B(7,13,18)       =         2.135476	     122.353784
	 B(7,14,15)       =         2.143875	     122.834977
	 B(7,14,16)       =         2.093342	     119.939676
	 B(13,7,14)       =         2.095796	     120.080252
	 B(15,14,16)      =         2.042645	     117.034915
	 B(17,13,18)      =         2.034267	     116.554920
	 D(1,2,3,4)       =         0.005959	       0.341406
	 D(1,2,3,9)       =        -3.124098	    -178.997644
	 D(1,6,5,4)       =         0.007851	       0.449804
	 D(1,6,5,11)      =        -3.122639	    -178.914044
	*D(1,7,13,17)     =         0.349066	      20.000015
	 D(1,7,13,18)     =        -3.048087	    -174.642520
	 D(1,7,14,15)     =        -3.039065	    -174.125624
	 D(1,7,14,16)     =         0.192697	      11.040724
	 D(2,1,6,5)       =        -0.005691	      -0.326044
	 D(2,1,6,12)      =        -3.094214	    -177.285380
	 D(2,1,7,13)      =        -2.547153	    -145.941126
	 D(2,1,7,14)      =         0.628508	      36.010872
	 D(2,3,4,5)       =        -0.003828	      -0.219327
	 D(2,3,4,10)      =         3.138019	     179.795255
	 D(3,2,1,6)       =        -0.001227	      -0.070301
	 D(3,2,1,7)       =         3.141184	     179.976572
	 D(3,4,5,6)       =        -0.003155	      -0.180758
	 D(3,4,5,11)      =         3.127282	     179.180054
	 D(4,3,2,8)       =         3.094802	     177.319069
	 D(4,5,6,12)      =         3.096666	     177.425881
	 D(5,4,3,9)       =         3.126176	     179.116719
	 D(5,6,1,7)       =         3.135085	     179.627149
	 D(6,1,2,8)       =        -3.089664	    -177.024711
	 D(6,1,7,13)      =         0.595255	      34.105599
	 D(6,1,7,14)      =        -2.512269	    -143.942403
	 D(6,5,4,10)      =         3.138183	     179.804659
	 D(7,1,2,8)       =         0.052747	       3.022162
	 D(7,1,6,12)      =         0.046562	       2.667813
	 D(8,2,3,9)       =        -0.035255	      -2.019981
	 D(9,3,4,10)      =        -0.015162	      -0.868699
	 D(10,4,5,11)     =        -0.014565	      -0.834530
	 D(11,5,6,12)     =        -0.033824	      -1.937967
	 D(13,7,14,15)    =         0.136663	       7.830241
	 D(13,7,14,16)    =        -2.914759	    -167.003411
	 D(14,7,13,17)    =        -2.826621	    -161.953425
	 D(14,7,13,18)    =         0.059412	       3.404040

	Current energy   :      -381.4702299361

	Energy change for the previous step:
		Projected    :        -0.0000012758
		Actual       :        -0.0000001537
	Energy ratio indicates iffy step: Trust radius decreased to 2.500e-01.


	Performing BFGS update.
	Previous computed or guess Hessian on step 1.
	Steps to be used in Hessian update: 5 4
	Taking RFO optimization step.
	Going to follow RFO solution 1.
	Rejecting RFO root 1 because normalization gives large value.
	Rejecting RFO root 2 because normalization gives large value.
	Using RFO vector 3.
	Norm of target step-size    0.00074
	Projected energy change by RFO approximation:        -0.0000000480

	Back-transformation to cartesian coordinates...
	Successfully converged to displaced geometry.

	Back-transformation to cartesian coordinates to adjust frozen coordinates...
	Successfully converged to displaced geometry.

	--- Internal Coordinate Step in ANG or DEG, aJ/ANG or AJ/DEG ---
	 ---------------------------------------------------------------------------
	   Coordinate                Previous        Force       Change         New 
	   ----------                --------       ------       ------       ------
	    1 R(1,2)          =      1.407969    -0.000160    -0.000026     1.407943
	    2 R(1,6)          =      1.407834    -0.000027    -0.000002     1.407831
	    3 R(1,7)          =      1.465464     0.000150     0.000029     1.465493
	    4 R(2,3)          =      1.391004     0.000026     0.000003     1.391007
	    5 R(2,8)          =      1.086444     0.000001     0.000000     1.086445
	    6 R(3,4)          =      1.398492     0.000040     0.000008     1.398500
	    7 R(3,9)          =      1.085142    -0.000013    -0.000002     1.085139
	    8 R(4,5)          =      1.398391    -0.000102    -0.000016     1.398375
	    9 R(4,10)         =      1.085676    -0.000002    -0.000000     1.085676
	   10 R(5,6)          =      1.391176     0.000071     0.000010     1.391186
	   11 R(5,11)         =      1.085152     0.000007     0.000002     1.085154
	   12 R(6,12)         =      1.086107    -0.000048    -0.000010     1.086096
	   13 R(7,13)         =      1.332276     0.000028     0.000007     1.332283
	   14 R(7,14)         =      1.329922    -0.000044    -0.000006     1.329916
	   15 R(13,17)        =      1.011995    -0.000051    -0.000008     1.011987
	   16 R(13,18)        =      1.013601    -0.000073    -0.000002     1.013599
	   17 R(14,15)        =      1.013353     0.000038     0.000006     1.013359
	   18 R(14,16)        =      1.011772     0.000004     0.000002     1.011773
	   19 B(1,2,3)        =    119.673177    -0.000001    -0.002563   119.670614
	   20 B(1,2,8)        =    120.506482     0.000000     0.000957   120.507440
	   21 B(1,6,5)        =    119.629132    -0.000000    -0.001509   119.627623
	   22 B(1,6,12)       =    120.422599     0.000000     0.000693   120.423293
	   23 B(1,7,13)       =    119.883756    -0.000001    -0.003263   119.880493
	   24 B(1,7,14)       =    120.007139     0.000000    -0.000332   120.006807
	   25 B(2,1,6)        =    120.162422     0.000001     0.003428   120.165850
	   26 B(2,1,7)        =    119.989272     0.000000     0.001167   119.990439
	   27 B(2,3,4)        =    120.023694     0.000000     0.000634   120.024328
	   28 B(2,3,9)        =    119.761349    -0.000000    -0.001347   119.760002
	   29 B(3,2,8)        =    119.750539     0.000000     0.001689   119.752228
	   30 B(3,4,5)        =    120.444518     0.000000     0.000779   120.445297
	   31 B(3,4,10)       =    119.772515     0.000000     0.000958   119.773473
	   32 B(4,3,9)        =    120.211642     0.000000     0.000730   120.212372
	   33 B(4,5,6)        =    120.065143    -0.000000    -0.000811   120.064332
	   34 B(4,5,11)       =    120.202500     0.000000     0.000222   120.202722
	   35 B(5,4,10)       =    119.782965    -0.000000    -0.001737   119.781229
	   36 B(5,6,12)       =    119.878513     0.000000     0.000715   119.879228
	   37 B(6,1,7)        =    119.848290    -0.000002    -0.004593   119.843697
	   38 B(6,5,11)       =    119.729285     0.000000     0.000540   119.729825
	   39 B(7,13,17)      =    119.552022     0.000000     0.002089   119.554111
	   40 B(7,13,18)      =    122.353784    -0.000001    -0.003883   122.349901
	   41 B(7,14,15)      =    122.834977     0.000000    -0.000505   122.834472
	   42 B(7,14,16)      =    119.939676     0.000000     0.000613   119.940288
	   43 B(13,7,14)      =    120.080252     0.000001     0.003593   120.083845
	   44 B(15,14,16)     =    117.034915    -0.000000    -0.000833   117.034082
	   45 B(17,13,18)     =    116.554920     0.000000     0.001813   116.556732
	   46 D(1,2,3,4)      =      0.341406    -0.000000    -0.002873     0.338533
	   47 D(1,2,3,9)      =   -178.997644    -0.000000    -0.004562  -179.002206
	   48 D(1,6,5,4)      =      0.449804     0.000000     0.006058     0.455861
	   49 D(1,6,5,11)     =   -178.914044     0.000000     0.011209  -178.902835
	   50 *D(1,7,13,17)   =     20.000015    -0.000000     0.000000    20.000015
	   51 D(1,7,13,18)    =   -174.642520    -0.000000     0.000374  -174.642146
	   52 D(1,7,14,15)    =   -174.125624    -0.000000    -0.001546  -174.127171
	   53 D(1,7,14,16)    =     11.040724     0.000000     0.008304    11.049028
	   54 D(2,1,6,5)      =     -0.326044    -0.000000    -0.013864    -0.339908
	   55 D(2,1,6,12)     =   -177.285380    -0.000000    -0.011694  -177.297074
	   56 D(2,1,7,13)     =   -145.941126     0.000000     0.007759  -145.933367
	   57 D(2,1,7,14)     =     36.010872     0.000000     0.007739    36.018611
	   58 D(2,3,4,5)      =     -0.219327    -0.000000    -0.004934    -0.224261
	   59 D(2,3,4,10)     =    179.795255    -0.000000    -0.006931   179.788324
	   60 D(3,2,1,6)      =     -0.070301     0.000000     0.012272    -0.058030
	   61 D(3,2,1,7)      =    179.976572     0.000000     0.009154   179.985726
	   62 D(3,4,5,6)      =     -0.180758     0.000000     0.003314    -0.177443
	   63 D(3,4,5,11)     =    179.180054    -0.000000    -0.001860   179.178194
	   64 D(4,3,2,8)      =    177.319069     0.000000    -0.001042   177.318027
	   65 D(4,5,6,12)     =    177.425881     0.000000     0.003900   177.429781
	   66 D(5,4,3,9)      =    179.116719     0.000000    -0.003251   179.113468
	   67 D(5,6,1,7)      =    179.627149    -0.000000    -0.010748   179.616401
	   68 D(6,1,2,8)      =   -177.024711     0.000000     0.010405  -177.014306
	   69 D(6,1,7,13)     =     34.105599     0.000000     0.004648    34.110247
	   70 D(6,1,7,14)     =   -143.942403    -0.000000     0.004627  -143.937776
	   71 D(6,5,4,10)     =    179.804659     0.000000     0.005312   179.809970
	   72 D(7,1,2,8)      =      3.022162     0.000000     0.007287     3.029449
	   73 D(7,1,6,12)     =      2.667813    -0.000000    -0.008578     2.659235
	   74 D(8,2,3,9)      =     -2.019981    -0.000000    -0.002731    -2.022713
	   75 D(9,3,4,10)     =     -0.868699    -0.000000    -0.005248    -0.873947
	   76 D(10,4,5,11)    =     -0.834530    -0.000000     0.000137    -0.834393
	   77 D(11,5,6,12)    =     -1.937967     0.000000     0.009052    -1.928916
	   78 D(13,7,14,15)   =      7.830241    -0.000000    -0.001432     7.828809
	   79 D(13,7,14,16)   =   -167.003411     0.000000     0.008418  -166.994992
	   80 D(14,7,13,17)   =   -161.953425     0.000000    -0.000057  -161.953482
	   81 D(14,7,13,18)   =      3.404040     0.000000     0.000317     3.404357
	 ---------------------------------------------------------------------------
	Successfully symmetrized geometry.

  ==> Convergence Check <==

  Measures of convergence in internal coordinates in au.
  Criteria marked as inactive (o), active & met (*), and active & unmet ( ).
  ---------------------------------------------------------------------------------------------
   Step     Total Energy     Delta E     MAX Force     RMS Force      MAX Disp      RMS Disp   
  ---------------------------------------------------------------------------------------------
    Convergence Criteria    1.00e-06 *    3.00e-04 *             o    1.20e-03 *             o
  ---------------------------------------------------------------------------------------------
      6    -381.47022994   -1.54e-07 *    1.98e-05 *    6.12e-06 o    2.42e-04 *    8.23e-05 o  ~
  ---------------------------------------------------------------------------------------------


  **** Optimization is complete! (in 6 steps) ****

  ==> Optimization Summary <==

  Measures of convergence in internal coordinates in au.
  --------------------------------------------------------------------------------------------------------------- ~
   Step         Total Energy             Delta E       MAX Force       RMS Force        MAX Disp        RMS Disp  ~
  --------------------------------------------------------------------------------------------------------------- ~
      1    -381.469608368582   -381.469608368582      0.00316360      0.00063948      0.14772076      0.02458851  ~
      2    -381.470052152426     -0.000443783844      0.00233382      0.00055878      0.09991209      0.01531101  ~
      3    -381.470199705477     -0.000147553050      0.00323669      0.00042245      0.01332687      0.00340154  ~
      4    -381.470228545699     -0.000028840223      0.00023331      0.00005997      0.00447869      0.00112221  ~
      5    -381.470229782436     -0.000001236737      0.00015049      0.00002692      0.00161113      0.00042692  ~
      6    -381.470229936145     -0.000000153709      0.00001982      0.00000612      0.00024197      0.00008232  ~
  --------------------------------------------------------------------------------------------------------------- ~

	Writing optimization data to binary file.
	Final energy is   -381.4702299361450
	Final (previous) structure:
	Cartesian Geometry (in Angstrom)
	    C    -0.0021375220   0.0007258457  -0.1769355592
	    C     0.0381778799   1.2207433095   0.5247116798
	    C     0.0347457401   1.2155864452   1.9157023292
	    C    -0.0013753764   0.0026487539   2.6108703999
	    C    -0.0388490442  -1.2108758750   1.9170040960
	    C    -0.0442146364  -1.2184149604   0.5258593273
	    C     0.0006817909  -0.0019034835  -1.6423947800
	    H     0.0221707463   2.1658206875  -0.0109497900
	    H     0.0493110933   2.1554609747   2.4578799254
	    H    -0.0005528483   0.0032827137   3.6965462052
	    H    -0.0533878526  -2.1501215792   2.4602920285
	    H    -0.0310538172  -2.1629552931  -0.0101422582
	    N    -0.6772887767  -0.9374160490  -2.3058186161
	    N     0.7105044092   0.9048098703  -2.3077626642
	    H     0.6758781605   0.9977901043  -3.3162465692
	    H     1.3757211073   1.4863883985  -1.8148780925
	    H    -1.4185714951  -1.4429447571  -1.8377649404
	    H    -0.6374645586  -1.0230781063  -3.3150077216
	Saving final (previous) structure.
	Removing binary optimization data file.
			--------------------------
			 OPTKING Finished Execution 
			--------------------------

    Final optimized geometry and variables:
    Molecular point group: c1
    Full point group: C1

    Geometry (in Angstrom), charge = 1, multiplicity = 1:

    C           -0.002137521966     0.000725845662    -0.176935559190
    C            0.038177879913     1.220743309543     0.524711679756
    C            0.034745740121     1.215586445244     1.915702329244
    C           -0.001375376401     0.002648753924     2.610870399878
    C           -0.038849044192    -1.210875874971     1.917004095981
    C           -0.044214636399    -1.218414960375     0.525859327334
    C            0.000681790924    -0.001903483522    -1.642394780019
    H            0.022170746257     2.165820687546    -0.010949790010
    H            0.049311093309     2.155460974669     2.457879925390
    H           -0.000552848303     0.003282713748     3.696546205201
    H           -0.053387852585    -2.150121579194     2.460292028459
    H           -0.031053817180    -2.162955293091    -0.010142258158
    N           -0.677288776674    -0.937416048954    -2.305818616143
    N            0.710504409165     0.904809870333    -2.307762664168
    H            0.675878160458     0.997790104267    -3.316246569168
    H            1.375721107261     1.486388398502    -1.814878092468
    H           -1.418571495130    -1.442944757075    -1.837764940361
    H           -0.637464558578    -1.023078106258    -3.315007721559

	Removing binary optimization data file.
	Cleaning optimization helper files.


Properties will be evaluated at   0.000000,   0.000000,   0.000000 [a0]
OEProp: No title given, name of density matrix used for the following properties is 'SCF density'
  Nuclear Dipole Moment: [e a0]
     X:     0.2584      Y:    -0.2788      Z:     0.1201

  Electronic Dipole Moment: [e a0]
     X:    -0.2900      Y:     0.3230      Z:    -2.3759

  Dipole Moment: [e a0]
     X:    -0.0316      Y:     0.0442      Z:    -2.2558     Total:     2.2565

  Dipole Moment: [D]
     X:    -0.0803      Y:     0.1123      Z:    -5.7337     Total:     5.7353

  Quadrupole Moment: [D A]
    XX:   -49.0837     YY:   -38.3708     ZZ:   -13.1697
    XY:     6.4859     XZ:     0.1219     YZ:    -0.1651

  Traceless Quadrupole Moment: [D A]
    XX:   -15.5423     YY:    -4.8294     ZZ:    20.3717
    XY:     6.4859     XZ:     0.1219     YZ:    -0.1651

  Mulliken Charges: (a.u.)
   Center  Symbol    Alpha    Beta     Spin     Total
       1     C     2.95815  2.95815  0.00000  0.08369
       2     C     3.08261  3.08261  0.00000 -0.16522
       3     C     3.06253  3.06253  0.00000 -0.12507
       4     C     3.05133  3.05133  0.00000 -0.10266
       5     C     3.06255  3.06255  0.00000 -0.12510
       6     C     3.08067  3.08067  0.00000 -0.16134
       7     C     2.72372  2.72372  0.00000  0.55256
       8     H     0.41433  0.41433  0.00000  0.17133
       9     H     0.40546  0.40546  0.00000  0.18908
      10     H     0.40381  0.40381  0.00000  0.19237
      11     H     0.40538  0.40538  0.00000  0.18923
      12     H     0.41297  0.41297  0.00000  0.17406
      13     N     3.86297  3.86297  0.00000 -0.72595
      14     N     3.86173  3.86173  0.00000 -0.72346
      15     H     0.30570  0.30570  0.00000  0.38860
      16     H     0.29962  0.29962  0.00000  0.40077
      17     H     0.30008  0.30008  0.00000  0.39984
      18     H     0.30637  0.30637  0.00000  0.38726

   Total alpha = 32.00000, Total beta = 32.00000, Total charge =  1.00000


    Psi4 stopped on: Saturday, 29 September 2018 08:33PM
    Psi4 wall time for execution: 0:02:53.40

*** Psi4 exiting successfully. Buy a developer a beer!
