
    -----------------------------------------------------------------------
          Psi4: An Open-Source Ab Initio Electronic Structure Package
                               Psi4 1.2.1 release

                         Git: Rev {HEAD} 406f4de 


    R. M. Parrish, L. A. Burns, D. G. A. Smith, A. C. Simmonett,
    A. E. DePrince III, E. G. Hohenstein, U. Bozkaya, A. Yu. Sokolov,
    R. Di Remigio, R. M. Richard, J. F. Gonthier, A. M. James,
    H. R. McAlexander, A. Kumar, M. Saitow, X. Wang, B. P. Pritchard,
    P. Verma, H. F. Schaefer III, K. Patkowski, R. A. King, E. F. Valeev,
    F. A. Evangelista, J. M. Turney, T. D. Crawford, and C. D. Sherrill,
    J. Chem. Theory Comput. 13(7) pp 3185--3197 (2017).
    (doi: 10.1021/acs.jctc.7b00174)


                         Additional Contributions by
    P. Kraus, H. Kruse, M. H. Lechner, M. C. Schieber, and R. A. Shaw

    -----------------------------------------------------------------------


    Psi4 started on: Saturday, 29 September 2018 05:10PM

    Process ID: 14101
    Host:       loro.prib.upf.edu
    PSIDATADIR: /shared/joao/test_parameterize/miniconda3/share/psi4
    Memory:     500.0 MiB
    Threads:    1
    
  ==> Input File <==

--------------------------------------------------------------------------
set_num_threads(1)
set_memory('5348 MB')

set { scf_mem_safety_factor 0.7 }

set { reference rks }
set { basis cc-pVDZ }

molecule MOL {
    0 1
    noreorient
    nocom
    symmetry c1
    O    1.050400   0.042900  -0.048100
    C    2.474100   0.047400  -0.029000
    C    3.002600  -1.068900  -0.932000
    N    4.462700  -1.072400  -1.006800
    H    0.782398  -0.567393  -0.756429
    H    2.809900  -0.097900   1.003200
    H    2.817400   1.026800  -0.378600
    H    2.581000  -0.963300  -1.938400
    H    2.653800  -2.036400  -0.553400
    H    4.779000  -0.221000  -1.470000
    H    4.758600  -1.842500  -1.606500
}

set optking { frozen_dihedral = (" 3 2 1 5 ") }

energy, wfn = energy('B3LYP-D3', return_wfn=True)

import os
os.chdir(os.environ['HTMD_PSI4_WORKDIR'])

oeprop(wfn, 'DIPOLE', 'QUADRUPOLE', 'MULLIKEN_CHARGES')

with open('psi4out.xyz', 'w') as f:
    f.write('11 ' )
    f.write('%.12f\n' % energy)
    f.write(MOL.save_string_xyz())
--------------------------------------------------------------------------
  Threads set to 1 by Python driver.

  Memory set to   4.981 GiB by Python driver.

*** tstart() called on loro.prib.upf.edu
*** at Sat Sep 29 17:10:43 2018

   => Loading Basis Set <=

    Name: CC-PVDZ
    Role: ORBITAL
    Keyword: BASIS
    atoms 1    entry O          line   198 file /shared/joao/test_parameterize/miniconda3/share/psi4/basis/cc-pvdz.gbs 
    atoms 2-3  entry C          line   138 file /shared/joao/test_parameterize/miniconda3/share/psi4/basis/cc-pvdz.gbs 
    atoms 4    entry N          line   168 file /shared/joao/test_parameterize/miniconda3/share/psi4/basis/cc-pvdz.gbs 
    atoms 5-11 entry H          line    22 file /shared/joao/test_parameterize/miniconda3/share/psi4/basis/cc-pvdz.gbs 


         ---------------------------------------------------------
                                   SCF
            by Justin Turney, Rob Parrish, Andy Simmonett
                             and Daniel Smith
                              RKS Reference
                        1 Threads,   5100 MiB Core
         ---------------------------------------------------------

  ==> Geometry <==

    Molecular point group: c1
    Full point group: C1

    Geometry (in Angstrom), charge = 0, multiplicity = 1:

       Center              X                  Y                   Z               Mass       
    ------------   -----------------  -----------------  -----------------  -----------------
         O            1.050400000000     0.042900000000    -0.048100000000    15.994914619560
         C            2.474100000000     0.047400000000    -0.029000000000    12.000000000000
         C            3.002600000000    -1.068900000000    -0.932000000000    12.000000000000
         N            4.462700000000    -1.072400000000    -1.006800000000    14.003074004780
         H            0.782398000000    -0.567393000000    -0.756429000000     1.007825032070
         H            2.809900000000    -0.097900000000     1.003200000000     1.007825032070
         H            2.817400000000     1.026800000000    -0.378600000000     1.007825032070
         H            2.581000000000    -0.963300000000    -1.938400000000     1.007825032070
         H            2.653800000000    -2.036400000000    -0.553400000000     1.007825032070
         H            4.779000000000    -0.221000000000    -1.470000000000     1.007825032070
         H            4.758600000000    -1.842500000000    -1.606500000000     1.007825032070

  Running in c1 symmetry.

  Rotational constants: A =      0.74676  B =      0.02759  C =      0.02695 [cm^-1]
  Rotational constants: A =  22387.25444  B =    827.23049  C =    807.90737 [MHz]
  Nuclear repulsion =  131.112059953152851

  Charge       = 0
  Multiplicity = 1
  Electrons    = 34
  Nalpha       = 17
  Nbeta        = 17

  ==> Algorithm <==

  SCF Algorithm Type is DF.
  DIIS enabled.
  MOM disabled.
  Fractional occupation disabled.
  Guess Type is SAD.
  Energy threshold   = 1.00e-06
  Density threshold  = 1.00e-06
  Integral threshold = 0.00e+00

  ==> Primary Basis <==

  Basis Set: CC-PVDZ
    Blend: CC-PVDZ
    Number of shells: 45
    Number of basis function: 91
    Number of Cartesian functions: 95
    Spherical Harmonics?: true
    Max angular momentum: 2

  ==> DFT Potential <==

   => Composite Functional: B3LYP-D3ZERO <= 

    B3LYP-d3zero Hyb-GGA Exchange-Correlation Functional

    P. J. Stephens, F. J. Devlin, C. F. Chabalowski, and M. J. Frisch, J. Phys. Chem. 98, 11623 (1994)

    Deriv               =              1
    GGA                 =           TRUE
    Meta                =          FALSE

    Exchange Hybrid     =           TRUE
    MP2 Hybrid          =          FALSE

   => Exchange Functionals <=

    0.0800   Slater exchange
    0.7200         Becke 88

   => Exact (HF) Exchange <=

    0.2000               HF 

   => Correlation Functionals <=

    0.1900   Vosko, Wilk & Nusair (VWN5_RPA)
    0.8100   Lee, Yang & Parr

   => Molecular Quadrature <=

    Radial Scheme       =       TREUTLER
    Pruning Scheme      =           FLAT
    Nuclear Scheme      =       TREUTLER

    BS radius alpha     =              1
    Pruning alpha       =              1
    Radial Points       =             75
    Spherical Points    =            302
    Total Points        =         245057
    Total Blocks        =           1907
    Max Points          =            256
    Max Functions       =             91

   => -D3ZERO: Empirical Dispersion <=

    Grimme's -D3 (zero-damping) Dispersion Correction
    Grimme S.; Antony J.; Ehrlich S.; Krieg H. (2010), J. Chem. Phys., 132: 154104

        S6 =   1.000000E+00
        S8 =   1.703000E+00
       SR6 =   1.261000E+00
       SR8 =   1.000000E+00
    ALPHA6 =   1.400000E+01

   => Loading Basis Set <=

    Name: (CC-PVDZ AUX)
    Role: JKFIT
    Keyword: DF_BASIS_SCF
    atoms 1    entry O          line   221 file /shared/joao/test_parameterize/miniconda3/share/psi4/basis/cc-pvdz-jkfit.gbs 
    atoms 2-3  entry C          line   121 file /shared/joao/test_parameterize/miniconda3/share/psi4/basis/cc-pvdz-jkfit.gbs 
    atoms 4    entry N          line   171 file /shared/joao/test_parameterize/miniconda3/share/psi4/basis/cc-pvdz-jkfit.gbs 
    atoms 5-11 entry H          line    51 file /shared/joao/test_parameterize/miniconda3/share/psi4/basis/cc-pvdz-jkfit.gbs 

  ==> Pre-Iterations <==

   -------------------------------------------------------
    Irrep   Nso     Nmo     Nalpha   Nbeta   Ndocc  Nsocc
   -------------------------------------------------------
     A         91      91       0       0       0       0
   -------------------------------------------------------
    Total      91      91      17      17      17       0
   -------------------------------------------------------

  ==> Integral Setup <==

  DFHelper Memory: AOs need 0.036 [GiB]; user supplied 3.486 [GiB]. Using in-core AOs.

  ==> MemDFJK: Density-Fitted J/K Matrices <==

    J tasked:                   Yes
    K tasked:                   Yes
    wK tasked:                   No
    OpenMP threads:               1
    Memory (MB):               3570
    Algorithm:                 Core
    Schwarz Cutoff:           1E-12
    Mask sparsity (%):       0.2415
    Fitting Condition:        1E-12

   => Auxiliary Basis Set <=

  Basis Set: (CC-PVDZ AUX)
    Blend: CC-PVDZ-JKFIT
    Number of shells: 159
    Number of basis function: 441
    Number of Cartesian functions: 499
    Spherical Harmonics?: true
    Max angular momentum: 3

  Minimum eigenvalue in the overlap matrix is 4.3555097183E-03.
  Using Symmetric Orthogonalization.

  SCF Guess: Superposition of Atomic Densities via on-the-fly atomic UHF.

  ==> Iterations <==

                           Total Energy        Delta E     RMS |[F,P]|

   @DF-RKS iter   0:  -210.86031832425502   -2.10860e+02   3.66987e-02 
   @DF-RKS iter   1:  -210.21908600374226    6.41232e-01   6.95749e-03 
   @DF-RKS iter   2:  -210.08085018033435    1.38236e-01   9.48542e-03 DIIS
   @DF-RKS iter   3:  -210.38909672624447   -3.08247e-01   5.80569e-04 DIIS
   @DF-RKS iter   4:  -210.38985532303906   -7.58597e-04   3.55004e-04 DIIS
   @DF-RKS iter   5:  -210.39031803069193   -4.62708e-04   5.36370e-05 DIIS
   @DF-RKS iter   6:  -210.39032589302212   -7.86233e-06   2.57112e-05 DIIS
   @DF-RKS iter   7:  -210.39032822090232   -2.32788e-06   1.84310e-06 DIIS
   @DF-RKS iter   8:  -210.39032823397645   -1.30741e-08   5.17317e-07 DIIS

  ==> Post-Iterations <==

    Orbital Energies [Eh]
    ---------------------

    Doubly Occupied:                                                      

       1A    -19.126520     2A    -14.312451     3A    -10.224061  
       4A    -10.213330     5A     -1.010531     6A     -0.884509  
       7A     -0.712516     8A     -0.619537     9A     -0.504826  
      10A     -0.473533    11A     -0.450357    12A     -0.444603  
      13A     -0.396994    14A     -0.370982    15A     -0.320888  
      16A     -0.261865    17A     -0.239909  

    Virtual:                                                              

      18A      0.047937    19A      0.059916    20A      0.092079  
      21A      0.103324    22A      0.131866    23A      0.148735  
      24A      0.163937    25A      0.207063    26A      0.242074  
      27A      0.255808    28A      0.430494    29A      0.444052  
      30A      0.484308    31A      0.499709    32A      0.565547  
      33A      0.577218    34A      0.590877    35A      0.607247  
      36A      0.636422    37A      0.646946    38A      0.653757  
      39A      0.668803    40A      0.695541    41A      0.810980  
      42A      0.828372    43A      0.845193    44A      0.903802  
      45A      0.957288    46A      1.004621    47A      1.032748  
      48A      1.058859    49A      1.137630    50A      1.204279  
      51A      1.228168    52A      1.237951    53A      1.310431  
      54A      1.379855    55A      1.431021    56A      1.484373  
      57A      1.544249    58A      1.593587    59A      1.614255  
      60A      1.626098    61A      1.644646    62A      1.663932  
      63A      1.705371    64A      1.733056    65A      1.737385  
      66A      1.771717    67A      1.806242    68A      1.847411  
      69A      1.887462    70A      1.946137    71A      1.988722  
      72A      2.016707    73A      2.068059    74A      2.149122  
      75A      2.152761    76A      2.236243    77A      2.279973  
      78A      2.364526    79A      2.388496    80A      2.442963  
      81A      2.479623    82A      2.543845    83A      2.601282  
      84A      2.670519    85A      2.818548    86A      2.957393  
      87A      3.027969    88A      3.041059    89A      3.075627  
      90A      3.260269    91A      3.686035  

    Final Occupation by Irrep:
              A 
    DOCC [    17 ]

  Energy converged.

  @DF-RKS Final Energy:  -210.39032823397645

   => Energetics <=

    Nuclear Repulsion Energy =            131.1120599531528512
    One-Electron Energy =                -544.9872715869812509
    Two-Electron Energy =                 226.9771345890760870
    DFT Exchange-Correlation Energy =     -23.4871166492241521
    Empirical Dispersion Energy =          -0.0051345400000000
    VV10 Nonlocal Energy =                  0.0000000000000000
    Total Energy =                       -210.3903282339764473



Properties will be evaluated at   0.000000,   0.000000,   0.000000 [a0]

Properties computed using the SCF density matrix

  Nuclear Dipole Moment: [e a0]
     X:   177.0379      Y:   -34.0043      Z:   -35.7130

  Electronic Dipole Moment: [e a0]
     X:  -176.7500      Y:    33.6422      Z:    34.8213

  Dipole Moment: [e a0]
     X:     0.2879      Y:    -0.3621      Z:    -0.8917     Total:     1.0046

  Dipole Moment: [D]
     X:     0.7318      Y:    -0.9203      Z:    -2.2666     Total:     2.5534


*** tstop() called on loro.prib.upf.edu at Sat Sep 29 17:11:01 2018
Module time:
	user time   =      15.05 seconds =       0.25 minutes
	system time =       0.23 seconds =       0.00 minutes
	total time  =         18 seconds =       0.30 minutes
Total time:
	user time   =      15.05 seconds =       0.25 minutes
	system time =       0.23 seconds =       0.00 minutes
	total time  =         18 seconds =       0.30 minutes


Properties will be evaluated at   0.000000,   0.000000,   0.000000 [a0]
OEProp: No title given, name of density matrix used for the following properties is 'SCF density'
  Nuclear Dipole Moment: [e a0]
     X:   177.0379      Y:   -34.0043      Z:   -35.7130

  Electronic Dipole Moment: [e a0]
     X:  -176.7500      Y:    33.6422      Z:    34.8213

  Dipole Moment: [e a0]
     X:     0.2879      Y:    -0.3621      Z:    -0.8917     Total:     1.0046

  Dipole Moment: [D]
     X:     0.7318      Y:    -0.9203      Z:    -2.2666     Total:     2.5534

  Quadrupole Moment: [D A]
    XX:   -23.8973     YY:   -23.8620     ZZ:   -22.2378
    XY:    -0.0162     XZ:    -7.0201     YZ:     2.1809

  Traceless Quadrupole Moment: [D A]
    XX:    -0.5650     YY:    -0.5296     ZZ:     1.0946
    XY:    -0.0162     XZ:    -7.0201     YZ:     2.1809

  Mulliken Charges: (a.u.)
   Center  Symbol    Alpha    Beta     Spin     Total
       1     O     4.13815  4.13815  0.00000 -0.27630
       2     C     2.91312  2.91312  0.00000  0.17377
       3     C     3.01210  3.01210  0.00000 -0.02421
       4     N     3.58875  3.58875  0.00000 -0.17750
       5     H     0.43326  0.43326  0.00000  0.13347
       6     H     0.49076  0.49076  0.00000  0.01847
       7     H     0.50098  0.50098  0.00000 -0.00197
       8     H     0.50515  0.50515  0.00000 -0.01030
       9     H     0.49035  0.49035  0.00000  0.01931
      10     H     0.46374  0.46374  0.00000  0.07253
      11     H     0.46364  0.46364  0.00000  0.07272

   Total alpha = 17.00000, Total beta = 17.00000, Total charge =  0.00000


    Psi4 stopped on: Saturday, 29 September 2018 05:11PM
    Psi4 wall time for execution: 0:00:17.80

*** Psi4 exiting successfully. Buy a developer a beer!
