
    -----------------------------------------------------------------------
          Psi4: An Open-Source Ab Initio Electronic Structure Package
                               Psi4 1.2.1 release

                         Git: Rev {HEAD} 406f4de 


    R. M. Parrish, L. A. Burns, D. G. A. Smith, A. C. Simmonett,
    A. E. DePrince III, E. G. Hohenstein, U. Bozkaya, A. Yu. Sokolov,
    R. Di Remigio, R. M. Richard, J. F. Gonthier, A. M. James,
    H. R. McAlexander, A. Kumar, M. Saitow, X. Wang, B. P. Pritchard,
    P. Verma, H. F. Schaefer III, K. Patkowski, R. A. King, E. F. Valeev,
    F. A. Evangelista, J. M. Turney, T. D. Crawford, and C. D. Sherrill,
    J. Chem. Theory Comput. 13(7) pp 3185--3197 (2017).
    (doi: 10.1021/acs.jctc.7b00174)


                         Additional Contributions by
    P. Kraus, H. Kruse, M. H. Lechner, M. C. Schieber, and R. A. Shaw

    -----------------------------------------------------------------------


    Psi4 started on: Saturday, 29 September 2018 04:27PM

    Process ID: 26813
    Host:       loro.prib.upf.edu
    PSIDATADIR: /shared/joao/test_parameterize/miniconda3/share/psi4
    Memory:     500.0 MiB
    Threads:    1
    
  ==> Input File <==

--------------------------------------------------------------------------
set_num_threads(1)
set_memory('5348 MB')

set { scf_mem_safety_factor 0.7 }

set { reference rks }
set { basis cc-pVDZ }

molecule MOL {
    0 1
    noreorient
    nocom
    symmetry c1
    O    1.014300  -0.002300   0.060500
    O    2.462400  -0.107500  -0.002400
    H    0.821200  -0.823600  -0.430600
    H    2.636367   0.839596  -0.162339
}

set optking { frozen_dihedral = (" 3 1 2 4 ") }

energy, wfn = energy('B3LYP-D3', return_wfn=True)

import os
os.chdir(os.environ['HTMD_PSI4_WORKDIR'])

oeprop(wfn, 'DIPOLE', 'QUADRUPOLE', 'MULLIKEN_CHARGES')

with open('psi4out.xyz', 'w') as f:
    f.write('4 ' )
    f.write('%.12f\n' % energy)
    f.write(MOL.save_string_xyz())
--------------------------------------------------------------------------
  Threads set to 1 by Python driver.

  Memory set to   4.981 GiB by Python driver.

*** tstart() called on loro.prib.upf.edu
*** at Sat Sep 29 16:27:20 2018

   => Loading Basis Set <=

    Name: CC-PVDZ
    Role: ORBITAL
    Keyword: BASIS
    atoms 1-2 entry O          line   198 file /shared/joao/test_parameterize/miniconda3/share/psi4/basis/cc-pvdz.gbs 
    atoms 3-4 entry H          line    22 file /shared/joao/test_parameterize/miniconda3/share/psi4/basis/cc-pvdz.gbs 


         ---------------------------------------------------------
                                   SCF
            by Justin Turney, Rob Parrish, Andy Simmonett
                             and Daniel Smith
                              RKS Reference
                        1 Threads,   5100 MiB Core
         ---------------------------------------------------------

  ==> Geometry <==

    Molecular point group: c1
    Full point group: C1

    Geometry (in Angstrom), charge = 0, multiplicity = 1:

       Center              X                  Y                   Z               Mass       
    ------------   -----------------  -----------------  -----------------  -----------------
         O            1.014300000000    -0.002300000000     0.060500000000    15.994914619560
         O            2.462400000000    -0.107500000000    -0.002400000000    15.994914619560
         H            0.821200000000    -0.823600000000    -0.430600000000     1.007825032070
         H            2.636367000000     0.839596000000    -0.162339000000     1.007825032070

  Running in c1 symmetry.

  Rotational constants: A =      9.42279  B =      0.13884  C =      0.13734 [cm^-1]
  Rotational constants: A = 282488.19788  B =   4162.28033  C =   4117.40629 [MHz]
  Nuclear repulsion =   36.790073548496210

  Charge       = 0
  Multiplicity = 1
  Electrons    = 18
  Nalpha       = 9
  Nbeta        = 9

  ==> Algorithm <==

  SCF Algorithm Type is DF.
  DIIS enabled.
  MOM disabled.
  Fractional occupation disabled.
  Guess Type is SAD.
  Energy threshold   = 1.00e-06
  Density threshold  = 1.00e-06
  Integral threshold = 0.00e+00

  ==> Primary Basis <==

  Basis Set: CC-PVDZ
    Blend: CC-PVDZ
    Number of shells: 18
    Number of basis function: 38
    Number of Cartesian functions: 40
    Spherical Harmonics?: true
    Max angular momentum: 2

  ==> DFT Potential <==

   => Composite Functional: B3LYP-D3ZERO <= 

    B3LYP-d3zero Hyb-GGA Exchange-Correlation Functional

    P. J. Stephens, F. J. Devlin, C. F. Chabalowski, and M. J. Frisch, J. Phys. Chem. 98, 11623 (1994)

    Deriv               =              1
    GGA                 =           TRUE
    Meta                =          FALSE

    Exchange Hybrid     =           TRUE
    MP2 Hybrid          =          FALSE

   => Exchange Functionals <=

    0.0800   Slater exchange
    0.7200         Becke 88

   => Exact (HF) Exchange <=

    0.2000               HF 

   => Correlation Functionals <=

    0.1900   Vosko, Wilk & Nusair (VWN5_RPA)
    0.8100   Lee, Yang & Parr

   => Molecular Quadrature <=

    Radial Scheme       =       TREUTLER
    Pruning Scheme      =           FLAT
    Nuclear Scheme      =       TREUTLER

    BS radius alpha     =              1
    Pruning alpha       =              1
    Radial Points       =             75
    Spherical Points    =            302
    Total Points        =          88336
    Total Blocks        =            720
    Max Points          =            255
    Max Functions       =             38

   => -D3ZERO: Empirical Dispersion <=

    Grimme's -D3 (zero-damping) Dispersion Correction
    Grimme S.; Antony J.; Ehrlich S.; Krieg H. (2010), J. Chem. Phys., 132: 154104

        S6 =   1.000000E+00
        S8 =   1.703000E+00
       SR6 =   1.261000E+00
       SR8 =   1.000000E+00
    ALPHA6 =   1.400000E+01

   => Loading Basis Set <=

    Name: (CC-PVDZ AUX)
    Role: JKFIT
    Keyword: DF_BASIS_SCF
    atoms 1-2 entry O          line   221 file /shared/joao/test_parameterize/miniconda3/share/psi4/basis/cc-pvdz-jkfit.gbs 
    atoms 3-4 entry H          line    51 file /shared/joao/test_parameterize/miniconda3/share/psi4/basis/cc-pvdz-jkfit.gbs 

  ==> Pre-Iterations <==

   -------------------------------------------------------
    Irrep   Nso     Nmo     Nalpha   Nbeta   Ndocc  Nsocc
   -------------------------------------------------------
     A         38      38       0       0       0       0
   -------------------------------------------------------
    Total      38      38       9       9       9       0
   -------------------------------------------------------

  ==> Integral Setup <==

  DFHelper Memory: AOs need 0.003 [GiB]; user supplied 3.486 [GiB]. Using in-core AOs.

  ==> MemDFJK: Density-Fitted J/K Matrices <==

    J tasked:                   Yes
    K tasked:                   Yes
    wK tasked:                   No
    OpenMP threads:               1
    Memory (MB):               3570
    Algorithm:                 Core
    Schwarz Cutoff:           1E-12
    Mask sparsity (%):       0.0000
    Fitting Condition:        1E-12

   => Auxiliary Basis Set <=

  Basis Set: (CC-PVDZ AUX)
    Blend: CC-PVDZ-JKFIT
    Number of shells: 66
    Number of basis function: 186
    Number of Cartesian functions: 212
    Spherical Harmonics?: true
    Max angular momentum: 3

  Minimum eigenvalue in the overlap matrix is 2.4565641613E-02.
  Using Symmetric Orthogonalization.

  SCF Guess: Superposition of Atomic Densities via on-the-fly atomic UHF.

  ==> Iterations <==

                           Total Energy        Delta E     RMS |[F,P]|

   @DF-RKS iter   0:  -151.56241695809197   -1.51562e+02   4.83076e-02 
   @DF-RKS iter   1:  -151.52406328804324    3.83537e-02   6.88199e-03 
   @DF-RKS iter   2:  -151.52598887882786   -1.92559e-03   6.76067e-03 DIIS
   @DF-RKS iter   3:  -151.54990715504425   -2.39183e-02   8.05425e-04 DIIS
   @DF-RKS iter   4:  -151.55022910070468   -3.21946e-04   8.24620e-05 DIIS
   @DF-RKS iter   5:  -151.55023132636245   -2.22566e-06   6.80056e-05 DIIS
   @DF-RKS iter   6:  -151.55023356102697   -2.23466e-06   2.09110e-05 DIIS
   @DF-RKS iter   7:  -151.55023380520666   -2.44180e-07   1.21975e-06 DIIS
   @DF-RKS iter   8:  -151.55023380666753   -1.46088e-09   1.26140e-07 DIIS

  ==> Post-Iterations <==

    Orbital Energies [Eh]
    ---------------------

    Doubly Occupied:                                                      

       1A    -19.186417     2A    -19.186377     3A     -1.110472  
       4A     -0.886371     5A     -0.501499     6A     -0.497977  
       7A     -0.403659     8A     -0.334935     9A     -0.252603  

    Virtual:                                                              

      10A      0.026007    11A      0.051548    12A      0.104527  
      13A      0.573017    14A      0.580661    15A      0.845203  
      16A      0.865928    17A      0.872081    18A      0.958900  
      19A      1.014277    20A      1.067222    21A      1.213358  
      22A      1.296536    23A      1.364981    24A      1.451670  
      25A      1.662299    26A      1.755347    27A      2.057068  
      28A      2.092381    29A      2.348280    30A      2.398900  
      31A      2.616217    32A      2.885410    33A      2.909158  
      34A      3.017216    35A      3.155534    36A      3.508240  
      37A      3.515305    38A      3.834713  

    Final Occupation by Irrep:
              A 
    DOCC [     9 ]

  Energy converged.

  @DF-RKS Final Energy:  -151.55023380666753

   => Energetics <=

    Nuclear Repulsion Energy =             36.7900735484962098
    One-Electron Energy =                -281.5751646280672844
    Two-Electron Energy =                 107.6980485554124130
    DFT Exchange-Correlation Energy =     -14.4628653925088724
    Empirical Dispersion Energy =          -0.0003258900000000
    VV10 Nonlocal Energy =                  0.0000000000000000
    Total Energy =                       -151.5502338066675350



Properties will be evaluated at   0.000000,   0.000000,   0.000000 [a0]

Properties computed using the SCF density matrix

  Nuclear Dipole Moment: [e a0]
     X:    59.0939      Y:    -1.6297      Z:    -0.2421

  Electronic Dipole Moment: [e a0]
     X:   -59.1070      Y:     1.7156      Z:    -0.2024

  Dipole Moment: [e a0]
     X:    -0.0131      Y:     0.0859      Z:    -0.4446     Total:     0.4530

  Dipole Moment: [D]
     X:    -0.0332      Y:     0.2184      Z:    -1.1299     Total:     1.1513


*** tstop() called on loro.prib.upf.edu at Sat Sep 29 16:27:24 2018
Module time:
	user time   =       2.70 seconds =       0.05 minutes
	system time =       0.08 seconds =       0.00 minutes
	total time  =          4 seconds =       0.07 minutes
Total time:
	user time   =       2.70 seconds =       0.05 minutes
	system time =       0.08 seconds =       0.00 minutes
	total time  =          4 seconds =       0.07 minutes


Properties will be evaluated at   0.000000,   0.000000,   0.000000 [a0]
OEProp: No title given, name of density matrix used for the following properties is 'SCF density'
  Nuclear Dipole Moment: [e a0]
     X:    59.0939      Y:    -1.6297      Z:    -0.2421

  Electronic Dipole Moment: [e a0]
     X:   -59.1070      Y:     1.7156      Z:    -0.2024

  Dipole Moment: [e a0]
     X:    -0.0131      Y:     0.0859      Z:    -0.4446     Total:     0.4530

  Dipole Moment: [D]
     X:    -0.0332      Y:     0.2184      Z:    -1.1299     Total:     1.1513

  Quadrupole Moment: [D A]
    XX:   -10.9709     YY:    -8.9440     ZZ:   -11.8110
    XY:     3.5075     XZ:    -1.3891     YZ:     0.5371

  Traceless Quadrupole Moment: [D A]
    XX:    -0.3956     YY:     1.6312     ZZ:    -1.2357
    XY:     3.5075     XZ:    -1.3891     YZ:     0.5371

  Mulliken Charges: (a.u.)
   Center  Symbol    Alpha    Beta     Spin     Total
       1     O     4.09136  4.09136  0.00000 -0.18272
       2     O     4.09134  4.09134  0.00000 -0.18267
       3     H     0.40864  0.40864  0.00000  0.18272
       4     H     0.40866  0.40866  0.00000  0.18267

   Total alpha =  9.00000, Total beta =  9.00000, Total charge = -0.00000


    Psi4 stopped on: Saturday, 29 September 2018 04:27PM
    Psi4 wall time for execution: 0:00:03.96

*** Psi4 exiting successfully. Buy a developer a beer!
