
    -----------------------------------------------------------------------
          Psi4: An Open-Source Ab Initio Electronic Structure Package
                               Psi4 1.2.1 release

                         Git: Rev {HEAD} 406f4de 


    R. M. Parrish, L. A. Burns, D. G. A. Smith, A. C. Simmonett,
    A. E. DePrince III, E. G. Hohenstein, U. Bozkaya, A. Yu. Sokolov,
    R. Di Remigio, R. M. Richard, J. F. Gonthier, A. M. James,
    H. R. McAlexander, A. Kumar, M. Saitow, X. Wang, B. P. Pritchard,
    P. Verma, H. F. Schaefer III, K. Patkowski, R. A. King, E. F. Valeev,
    F. A. Evangelista, J. M. Turney, T. D. Crawford, and C. D. Sherrill,
    J. Chem. Theory Comput. 13(7) pp 3185--3197 (2017).
    (doi: 10.1021/acs.jctc.7b00174)


                         Additional Contributions by
    P. Kraus, H. Kruse, M. H. Lechner, M. C. Schieber, and R. A. Shaw

    -----------------------------------------------------------------------


    Psi4 started on: Saturday, 29 September 2018 05:08PM

    Process ID: 12304
    Host:       loro.prib.upf.edu
    PSIDATADIR: /shared/joao/test_parameterize/miniconda3/share/psi4
    Memory:     500.0 MiB
    Threads:    1
    
  ==> Input File <==

--------------------------------------------------------------------------
set_num_threads(1)
set_memory('5348 MB')

set { scf_mem_safety_factor 0.7 }

set { reference rks }
set { basis cc-pVDZ }

molecule MOL {
    0 1
    noreorient
    nocom
    symmetry c1
    O    1.050400   0.042900  -0.048100
    C    2.474100   0.047400  -0.029000
    C    3.002600  -1.068900  -0.932000
    N    2.961070  -2.374696  -0.275746
    H    0.760400   0.728400   0.578000
    H    2.809900  -0.097900   1.003200
    H    2.817400   1.026800  -0.378600
    H    4.030003  -0.842285  -1.239941
    H    2.407336  -1.102991  -1.851541
    H    3.609087  -2.377655   0.511367
    H    3.308621  -3.079685  -0.925707
}

set optking { frozen_dihedral = (" 1 2 3 4 ") }

energy, wfn = energy('B3LYP-D3', return_wfn=True)

import os
os.chdir(os.environ['HTMD_PSI4_WORKDIR'])

oeprop(wfn, 'DIPOLE', 'QUADRUPOLE', 'MULLIKEN_CHARGES')

with open('psi4out.xyz', 'w') as f:
    f.write('11 ' )
    f.write('%.12f\n' % energy)
    f.write(MOL.save_string_xyz())
--------------------------------------------------------------------------
  Threads set to 1 by Python driver.

  Memory set to   4.981 GiB by Python driver.

*** tstart() called on loro.prib.upf.edu
*** at Sat Sep 29 17:08:29 2018

   => Loading Basis Set <=

    Name: CC-PVDZ
    Role: ORBITAL
    Keyword: BASIS
    atoms 1    entry O          line   198 file /shared/joao/test_parameterize/miniconda3/share/psi4/basis/cc-pvdz.gbs 
    atoms 2-3  entry C          line   138 file /shared/joao/test_parameterize/miniconda3/share/psi4/basis/cc-pvdz.gbs 
    atoms 4    entry N          line   168 file /shared/joao/test_parameterize/miniconda3/share/psi4/basis/cc-pvdz.gbs 
    atoms 5-11 entry H          line    22 file /shared/joao/test_parameterize/miniconda3/share/psi4/basis/cc-pvdz.gbs 


         ---------------------------------------------------------
                                   SCF
            by Justin Turney, Rob Parrish, Andy Simmonett
                             and Daniel Smith
                              RKS Reference
                        1 Threads,   5100 MiB Core
         ---------------------------------------------------------

  ==> Geometry <==

    Molecular point group: c1
    Full point group: C1

    Geometry (in Angstrom), charge = 0, multiplicity = 1:

       Center              X                  Y                   Z               Mass       
    ------------   -----------------  -----------------  -----------------  -----------------
         O            1.050400000000     0.042900000000    -0.048100000000    15.994914619560
         C            2.474100000000     0.047400000000    -0.029000000000    12.000000000000
         C            3.002600000000    -1.068900000000    -0.932000000000    12.000000000000
         N            2.961070000000    -2.374696000000    -0.275746000000    14.003074004780
         H            0.760400000000     0.728400000000     0.578000000000     1.007825032070
         H            2.809900000000    -0.097900000000     1.003200000000     1.007825032070
         H            2.817400000000     1.026800000000    -0.378600000000     1.007825032070
         H            4.030003000000    -0.842285000000    -1.239941000000     1.007825032070
         H            2.407336000000    -1.102991000000    -1.851541000000     1.007825032070
         H            3.609087000000    -2.377655000000     0.511367000000     1.007825032070
         H            3.308621000000    -3.079685000000    -0.925707000000     1.007825032070

  Running in c1 symmetry.

  Rotational constants: A =      0.32961  B =      0.03546  C =      0.03339 [cm^-1]
  Rotational constants: A =   9881.40368  B =   1063.18952  C =   1001.02043 [MHz]
  Nuclear repulsion =  131.964682105252024

  Charge       = 0
  Multiplicity = 1
  Electrons    = 34
  Nalpha       = 17
  Nbeta        = 17

  ==> Algorithm <==

  SCF Algorithm Type is DF.
  DIIS enabled.
  MOM disabled.
  Fractional occupation disabled.
  Guess Type is SAD.
  Energy threshold   = 1.00e-06
  Density threshold  = 1.00e-06
  Integral threshold = 0.00e+00

  ==> Primary Basis <==

  Basis Set: CC-PVDZ
    Blend: CC-PVDZ
    Number of shells: 45
    Number of basis function: 91
    Number of Cartesian functions: 95
    Spherical Harmonics?: true
    Max angular momentum: 2

  ==> DFT Potential <==

   => Composite Functional: B3LYP-D3ZERO <= 

    B3LYP-d3zero Hyb-GGA Exchange-Correlation Functional

    P. J. Stephens, F. J. Devlin, C. F. Chabalowski, and M. J. Frisch, J. Phys. Chem. 98, 11623 (1994)

    Deriv               =              1
    GGA                 =           TRUE
    Meta                =          FALSE

    Exchange Hybrid     =           TRUE
    MP2 Hybrid          =          FALSE

   => Exchange Functionals <=

    0.0800   Slater exchange
    0.7200         Becke 88

   => Exact (HF) Exchange <=

    0.2000               HF 

   => Correlation Functionals <=

    0.1900   Vosko, Wilk & Nusair (VWN5_RPA)
    0.8100   Lee, Yang & Parr

   => Molecular Quadrature <=

    Radial Scheme       =       TREUTLER
    Pruning Scheme      =           FLAT
    Nuclear Scheme      =       TREUTLER

    BS radius alpha     =              1
    Pruning alpha       =              1
    Radial Points       =             75
    Spherical Points    =            302
    Total Points        =         245097
    Total Blocks        =           1892
    Max Points          =            256
    Max Functions       =             91

   => -D3ZERO: Empirical Dispersion <=

    Grimme's -D3 (zero-damping) Dispersion Correction
    Grimme S.; Antony J.; Ehrlich S.; Krieg H. (2010), J. Chem. Phys., 132: 154104

        S6 =   1.000000E+00
        S8 =   1.703000E+00
       SR6 =   1.261000E+00
       SR8 =   1.000000E+00
    ALPHA6 =   1.400000E+01

   => Loading Basis Set <=

    Name: (CC-PVDZ AUX)
    Role: JKFIT
    Keyword: DF_BASIS_SCF
    atoms 1    entry O          line   221 file /shared/joao/test_parameterize/miniconda3/share/psi4/basis/cc-pvdz-jkfit.gbs 
    atoms 2-3  entry C          line   121 file /shared/joao/test_parameterize/miniconda3/share/psi4/basis/cc-pvdz-jkfit.gbs 
    atoms 4    entry N          line   171 file /shared/joao/test_parameterize/miniconda3/share/psi4/basis/cc-pvdz-jkfit.gbs 
    atoms 5-11 entry H          line    51 file /shared/joao/test_parameterize/miniconda3/share/psi4/basis/cc-pvdz-jkfit.gbs 

  ==> Pre-Iterations <==

   -------------------------------------------------------
    Irrep   Nso     Nmo     Nalpha   Nbeta   Ndocc  Nsocc
   -------------------------------------------------------
     A         91      91       0       0       0       0
   -------------------------------------------------------
    Total      91      91      17      17      17       0
   -------------------------------------------------------

  ==> Integral Setup <==

  DFHelper Memory: AOs need 0.036 [GiB]; user supplied 3.486 [GiB]. Using in-core AOs.

  ==> MemDFJK: Density-Fitted J/K Matrices <==

    J tasked:                   Yes
    K tasked:                   Yes
    wK tasked:                   No
    OpenMP threads:               1
    Memory (MB):               3570
    Algorithm:                 Core
    Schwarz Cutoff:           1E-12
    Mask sparsity (%):       0.0242
    Fitting Condition:        1E-12

   => Auxiliary Basis Set <=

  Basis Set: (CC-PVDZ AUX)
    Blend: CC-PVDZ-JKFIT
    Number of shells: 159
    Number of basis function: 441
    Number of Cartesian functions: 499
    Spherical Harmonics?: true
    Max angular momentum: 3

  Minimum eigenvalue in the overlap matrix is 4.8476842121E-03.
  Using Symmetric Orthogonalization.

  SCF Guess: Superposition of Atomic Densities via on-the-fly atomic UHF.

  ==> Iterations <==

                           Total Energy        Delta E     RMS |[F,P]|

   @DF-RKS iter   0:  -210.94355650798292   -2.10944e+02   3.75760e-02 
   @DF-RKS iter   1:  -210.25637577349525    6.87181e-01   6.10404e-03 
   @DF-RKS iter   2:  -210.12860115707926    1.27775e-01   8.82670e-03 DIIS
   @DF-RKS iter   3:  -210.38722232083597   -2.58621e-01   5.78201e-04 DIIS
   @DF-RKS iter   4:  -210.38805050658610   -8.28186e-04   3.34714e-04 DIIS
   @DF-RKS iter   5:  -210.38846649294783   -4.15986e-04   4.90142e-05 DIIS
   @DF-RKS iter   6:  -210.38847493139852   -8.43845e-06   1.34015e-05 DIIS
   @DF-RKS iter   7:  -210.38847553290498   -6.01506e-07   4.05877e-06 DIIS
   @DF-RKS iter   8:  -210.38847559189372   -5.89887e-08   5.59914e-07 DIIS

  ==> Post-Iterations <==

    Orbital Energies [Eh]
    ---------------------

    Doubly Occupied:                                                      

       1A    -19.121644     2A    -14.299276     3A    -10.224598  
       4A    -10.202670     5A     -1.005125     6A     -0.872677  
       7A     -0.713536     8A     -0.596162     9A     -0.506798  
      10A     -0.483778    11A     -0.452112    12A     -0.404631  
      13A     -0.387967    14A     -0.371544    15A     -0.319566  
      16A     -0.257853    17A     -0.225342  

    Virtual:                                                              

      18A      0.050925    19A      0.071219    20A      0.100915  
      21A      0.110021    22A      0.134976    23A      0.141195  
      24A      0.158952    25A      0.208069    26A      0.227120  
      27A      0.254913    28A      0.443014    29A      0.474712  
      30A      0.495544    31A      0.502641    32A      0.548994  
      33A      0.559831    34A      0.609051    35A      0.622385  
      36A      0.639970    37A      0.651267    38A      0.662108  
      39A      0.687889    40A      0.698761    41A      0.814017  
      42A      0.843614    43A      0.864032    44A      0.914290  
      45A      0.965078    46A      0.996778    47A      1.010844  
      48A      1.066084    49A      1.179373    50A      1.202931  
      51A      1.227111    52A      1.289422    53A      1.328575  
      54A      1.348617    55A      1.446625    56A      1.491879  
      57A      1.544959    58A      1.576069    59A      1.597684  
      60A      1.613735    61A      1.642970    62A      1.657666  
      63A      1.680819    64A      1.732326    65A      1.751427  
      66A      1.785372    67A      1.854516    68A      1.901775  
      69A      1.918364    70A      1.951411    71A      1.978333  
      72A      2.012860    73A      2.037664    74A      2.128641  
      75A      2.192407    76A      2.200166    77A      2.324593  
      78A      2.368253    79A      2.394864    80A      2.459217  
      81A      2.476567    82A      2.536506    83A      2.607793  
      84A      2.677571    85A      2.826037    86A      2.972462  
      87A      3.031293    88A      3.054165    89A      3.110931  
      90A      3.207190    91A      3.702147  

    Final Occupation by Irrep:
              A 
    DOCC [    17 ]

  Energy converged.

  @DF-RKS Final Energy:  -210.38847559189372

   => Energetics <=

    Nuclear Repulsion Energy =            131.9646821052520238
    One-Electron Energy =                -546.9338894801949209
    Two-Electron Energy =                 228.0718113296861418
    DFT Exchange-Correlation Energy =     -23.4861741466369374
    Empirical Dispersion Energy =          -0.0049054000000000
    VV10 Nonlocal Energy =                  0.0000000000000000
    Total Energy =                       -210.3884755918937230



Properties will be evaluated at   0.000000,   0.000000,   0.000000 [a0]

Properties computed using the SCF density matrix

  Nuclear Dipole Moment: [e a0]
     X:   154.4542      Y:   -53.2033      Z:   -19.6234

  Electronic Dipole Moment: [e a0]
     X:  -153.6938      Y:    53.5892      Z:    19.8304

  Dipole Moment: [e a0]
     X:     0.7604      Y:     0.3858      Z:     0.2070     Total:     0.8774

  Dipole Moment: [D]
     X:     1.9327      Y:     0.9807      Z:     0.5261     Total:     2.2302


*** tstop() called on loro.prib.upf.edu at Sat Sep 29 17:08:50 2018
Module time:
	user time   =      15.38 seconds =       0.26 minutes
	system time =       0.24 seconds =       0.00 minutes
	total time  =         21 seconds =       0.35 minutes
Total time:
	user time   =      15.38 seconds =       0.26 minutes
	system time =       0.24 seconds =       0.00 minutes
	total time  =         21 seconds =       0.35 minutes


Properties will be evaluated at   0.000000,   0.000000,   0.000000 [a0]
OEProp: No title given, name of density matrix used for the following properties is 'SCF density'
  Nuclear Dipole Moment: [e a0]
     X:   154.4542      Y:   -53.2033      Z:   -19.6234

  Electronic Dipole Moment: [e a0]
     X:  -153.6938      Y:    53.5892      Z:    19.8304

  Dipole Moment: [e a0]
     X:     0.7604      Y:     0.3858      Z:     0.2070     Total:     0.8774

  Dipole Moment: [D]
     X:     1.9327      Y:     0.9807      Z:     0.5261     Total:     2.2302

  Quadrupole Moment: [D A]
    XX:   -16.1313     YY:   -24.2952     ZZ:   -23.6685
    XY:    -3.1982     XZ:    -0.3445     YZ:     2.2309

  Traceless Quadrupole Moment: [D A]
    XX:     5.2337     YY:    -2.9302     ZZ:    -2.3035
    XY:    -3.1982     XZ:    -0.3445     YZ:     2.2309

  Mulliken Charges: (a.u.)
   Center  Symbol    Alpha    Beta     Spin     Total
       1     O     4.13617  4.13617  0.00000 -0.27233
       2     C     2.92428  2.92428  0.00000  0.15144
       3     C     2.97890  2.97890  0.00000  0.04220
       4     N     3.58846  3.58846  0.00000 -0.17691
       5     H     0.43265  0.43265  0.00000  0.13470
       6     H     0.50496  0.50496  0.00000 -0.00993
       7     H     0.50464  0.50464  0.00000 -0.00928
       8     H     0.50801  0.50801  0.00000 -0.01603
       9     H     0.48803  0.48803  0.00000  0.02395
      10     H     0.46754  0.46754  0.00000  0.06493
      11     H     0.46636  0.46636  0.00000  0.06727

   Total alpha = 17.00000, Total beta = 17.00000, Total charge = -0.00000


    Psi4 stopped on: Saturday, 29 September 2018 05:08PM
    Psi4 wall time for execution: 0:00:20.18

*** Psi4 exiting successfully. Buy a developer a beer!
