
    -----------------------------------------------------------------------
          Psi4: An Open-Source Ab Initio Electronic Structure Package
                               Psi4 1.2.1 release

                         Git: Rev {HEAD} 406f4de 


    R. M. Parrish, L. A. Burns, D. G. A. Smith, A. C. Simmonett,
    A. E. DePrince III, E. G. Hohenstein, U. Bozkaya, A. Yu. Sokolov,
    R. Di Remigio, R. M. Richard, J. F. Gonthier, A. M. James,
    H. R. McAlexander, A. Kumar, M. Saitow, X. Wang, B. P. Pritchard,
    P. Verma, H. F. Schaefer III, K. Patkowski, R. A. King, E. F. Valeev,
    F. A. Evangelista, J. M. Turney, T. D. Crawford, and C. D. Sherrill,
    J. Chem. Theory Comput. 13(7) pp 3185--3197 (2017).
    (doi: 10.1021/acs.jctc.7b00174)


                         Additional Contributions by
    P. Kraus, H. Kruse, M. H. Lechner, M. C. Schieber, and R. A. Shaw

    -----------------------------------------------------------------------


    Psi4 started on: Saturday, 29 September 2018 08:27PM

    Process ID: 28739
    Host:       arancio.prib.upf.edu
    PSIDATADIR: /shared/joao/test_parameterize/miniconda3/share/psi4
    Memory:     500.0 MiB
    Threads:    1
    
  ==> Input File <==

--------------------------------------------------------------------------
set_num_threads(4)
set_memory('3000 MB')

set { scf_mem_safety_factor 0.7 }

set { reference rks }
set { basis 6-31G* }

molecule MOL {
    1 1
    noreorient
    nocom
    symmetry c1
    C   -0.000000  -0.000000  -0.177864
    C    0.036678   1.219374   0.524165
    C    0.031765   1.213120   1.915444
    C    0.000000   0.000000   2.610107
    C   -0.031765  -1.213120   1.915444
    C   -0.036678  -1.219375   0.524165
    C   -0.000000   0.000000  -1.644734
    H    0.018170   2.164705  -0.010854
    H    0.042402   2.152895   2.457886
    H    0.000000   0.000000   3.695756
    H   -0.042402  -2.152895   2.457886
    H   -0.018170  -2.164705  -0.010853
    N   -0.712590  -0.905950  -2.308461
    N    0.712590   0.905950  -2.308460
    H    0.673432   1.006470  -3.315997
    H    1.377190   1.485970  -1.813316
    H   -0.628486  -1.885763  -2.071444
    H   -1.399350  -0.658709  -3.011312
}

set optking { frozen_dihedral = (" 1 7 13 17 ") }

set optking { dynamic_level = 1 
 geom_maxiter = 250
 print_trajectory_xyz_file = True }

energy, wfn = optimize('B3LYP-D3', return_wfn=True)

import os
os.chdir(os.environ['HTMD_PSI4_WORKDIR'])

oeprop(wfn, 'DIPOLE', 'QUADRUPOLE', 'MULLIKEN_CHARGES')

with open('psi4out.xyz', 'w') as f:
    f.write('18 ' )
    f.write('%.12f\n' % energy)
    f.write(MOL.save_string_xyz())
--------------------------------------------------------------------------
  Threads set to 4 by Python driver.

  Memory set to   2.794 GiB by Python driver.
gradient() will perform analytic gradient computation.

*** tstart() called on arancio.prib.upf.edu
*** at Sat Sep 29 20:27:29 2018

   => Loading Basis Set <=

    Name: 6-31G*
    Role: ORBITAL
    Keyword: BASIS
    atoms 1-7         entry C          line   111 file /shared/joao/test_parameterize/miniconda3/share/psi4/basis/6-31gs.gbs 
    atoms 8-12, 15-18 entry H          line    44 file /shared/joao/test_parameterize/miniconda3/share/psi4/basis/6-31gs.gbs 
    atoms 13-14       entry N          line   128 file /shared/joao/test_parameterize/miniconda3/share/psi4/basis/6-31gs.gbs 


         ---------------------------------------------------------
                                   SCF
            by Justin Turney, Rob Parrish, Andy Simmonett
                             and Daniel Smith
                              RKS Reference
                        4 Threads,   2861 MiB Core
         ---------------------------------------------------------

  ==> Geometry <==

    Molecular point group: c1
    Full point group: C1

    Geometry (in Angstrom), charge = 1, multiplicity = 1:

       Center              X                  Y                   Z               Mass       
    ------------   -----------------  -----------------  -----------------  -----------------
         C            0.000000000000     0.000000000000    -0.177864000000    12.000000000000
         C            0.036678000000     1.219374000000     0.524165000000    12.000000000000
         C            0.031765000000     1.213120000000     1.915444000000    12.000000000000
         C            0.000000000000     0.000000000000     2.610107000000    12.000000000000
         C           -0.031765000000    -1.213120000000     1.915444000000    12.000000000000
         C           -0.036678000000    -1.219375000000     0.524165000000    12.000000000000
         C            0.000000000000     0.000000000000    -1.644734000000    12.000000000000
         H            0.018170000000     2.164705000000    -0.010854000000     1.007825032070
         H            0.042402000000     2.152895000000     2.457886000000     1.007825032070
         H            0.000000000000     0.000000000000     3.695756000000     1.007825032070
         H           -0.042402000000    -2.152895000000     2.457886000000     1.007825032070
         H           -0.018170000000    -2.164705000000    -0.010853000000     1.007825032070
         N           -0.712590000000    -0.905950000000    -2.308461000000    14.003074004780
         N            0.712590000000     0.905950000000    -2.308460000000    14.003074004780
         H            0.673432000000     1.006470000000    -3.315997000000     1.007825032070
         H            1.377190000000     1.485970000000    -1.813316000000     1.007825032070
         H           -0.628486000000    -1.885763000000    -2.071444000000     1.007825032070
         H           -1.399350000000    -0.658709000000    -3.011312000000     1.007825032070

  Running in c1 symmetry.

  Rotational constants: A =      0.12122  B =      0.03963  C =      0.03132 [cm^-1]
  Rotational constants: A =   3634.08581  B =   1188.09813  C =    938.88251 [MHz]
  Nuclear repulsion =  416.816017797470579

  Charge       = 1
  Multiplicity = 1
  Electrons    = 64
  Nalpha       = 32
  Nbeta        = 32

  ==> Algorithm <==

  SCF Algorithm Type is DF.
  DIIS enabled.
  MOM disabled.
  Fractional occupation disabled.
  Guess Type is SAD.
  Energy threshold   = 1.00e-08
  Density threshold  = 1.00e-08
  Integral threshold = 0.00e+00

  ==> Primary Basis <==

  Basis Set: 6-31G*
    Blend: 6-31G*
    Number of shells: 72
    Number of basis function: 153
    Number of Cartesian functions: 153
    Spherical Harmonics?: false
    Max angular momentum: 2

  ==> DFT Potential <==

   => Composite Functional: B3LYP-D3ZERO <= 

    B3LYP-d3zero Hyb-GGA Exchange-Correlation Functional

    P. J. Stephens, F. J. Devlin, C. F. Chabalowski, and M. J. Frisch, J. Phys. Chem. 98, 11623 (1994)

    Deriv               =              1
    GGA                 =           TRUE
    Meta                =          FALSE

    Exchange Hybrid     =           TRUE
    MP2 Hybrid          =          FALSE

   => Exchange Functionals <=

    0.0800   Slater exchange
    0.7200         Becke 88

   => Exact (HF) Exchange <=

    0.2000               HF 

   => Correlation Functionals <=

    0.1900   Vosko, Wilk & Nusair (VWN5_RPA)
    0.8100   Lee, Yang & Parr

   => Molecular Quadrature <=

    Radial Scheme       =       TREUTLER
    Pruning Scheme      =           FLAT
    Nuclear Scheme      =       TREUTLER

    BS radius alpha     =              1
    Pruning alpha       =              1
    Radial Points       =             75
    Spherical Points    =            302
    Total Points        =         396973
    Total Blocks        =           3010
    Max Points          =            256
    Max Functions       =            149

   => -D3ZERO: Empirical Dispersion <=

    Grimme's -D3 (zero-damping) Dispersion Correction
    Grimme S.; Antony J.; Ehrlich S.; Krieg H. (2010), J. Chem. Phys., 132: 154104

        S6 =   1.000000E+00
        S8 =   1.703000E+00
       SR6 =   1.261000E+00
       SR8 =   1.000000E+00
    ALPHA6 =   1.400000E+01

   => Loading Basis Set <=

    Name: (6-31G* AUX)
    Role: JKFIT
    Keyword: DF_BASIS_SCF
    atoms 1-7         entry C          line   121 file /shared/joao/test_parameterize/miniconda3/share/psi4/basis/cc-pvdz-jkfit.gbs 
    atoms 8-12, 15-18 entry H          line    51 file /shared/joao/test_parameterize/miniconda3/share/psi4/basis/cc-pvdz-jkfit.gbs 
    atoms 13-14       entry N          line   171 file /shared/joao/test_parameterize/miniconda3/share/psi4/basis/cc-pvdz-jkfit.gbs 

  ==> Pre-Iterations <==

   -------------------------------------------------------
    Irrep   Nso     Nmo     Nalpha   Nbeta   Ndocc  Nsocc
   -------------------------------------------------------
     A        153     153       0       0       0       0
   -------------------------------------------------------
    Total     153     153      32      32      32       0
   -------------------------------------------------------

  ==> Integral Setup <==

  ==> DiskDFJK: Density-Fitted J/K Matrices <==

    J tasked:                  Yes
    K tasked:                  Yes
    wK tasked:                  No
    OpenMP threads:              4
    Integrals threads:           4
    Memory (MB):              2002
    Algorithm:                Core
    Integral Cache:           NONE
    Schwarz Cutoff:          1E-12
    Fitting Condition:       1E-12

   => Auxiliary Basis Set <=

  Basis Set: (6-31G* AUX)
    Blend: CC-PVDZ-JKFIT
    Number of shells: 297
    Number of basis function: 954
    Number of Cartesian functions: 954
    Spherical Harmonics?: false
    Max angular momentum: 3

  Minimum eigenvalue in the overlap matrix is 4.8554730728E-04.
  Using Symmetric Orthogonalization.

  SCF Guess: Superposition of Atomic Densities via on-the-fly atomic UHF.

  ==> Iterations <==

                           Total Energy        Delta E     RMS |[F,P]|

   @DF-RKS iter   0:  -379.61905313788202   -3.79619e+02   4.82219e-02 
   @DF-RKS iter   1:  -380.99850781805083   -1.37945e+00   1.21622e-02 
   @DF-RKS iter   2:  -380.87027453203814    1.28233e-01   1.36300e-02 DIIS
   @DF-RKS iter   3:  -381.42760274366248   -5.57328e-01   2.09927e-03 DIIS
   @DF-RKS iter   4:  -381.43815974868687   -1.05570e-02   8.34386e-04 DIIS
   @DF-RKS iter   5:  -381.43984271474233   -1.68297e-03   2.79776e-04 DIIS
   @DF-RKS iter   6:  -381.44003917469672   -1.96460e-04   8.65371e-05 DIIS
   @DF-RKS iter   7:  -381.44005921045749   -2.00358e-05   1.69213e-05 DIIS
   @DF-RKS iter   8:  -381.44005993491584   -7.24458e-07   6.60269e-06 DIIS
   @DF-RKS iter   9:  -381.44006006073016   -1.25814e-07   2.26272e-06 DIIS
   @DF-RKS iter  10:  -381.44006007724266   -1.65125e-08   7.55464e-07 DIIS
   @DF-RKS iter  11:  -381.44006007901424   -1.77158e-09   8.37079e-08 DIIS
   @DF-RKS iter  12:  -381.44006007903459   -2.03499e-11   4.31360e-08 DIIS
   @DF-RKS iter  13:  -381.44006007903744   -2.84217e-12   2.54434e-08 DIIS
   @DF-RKS iter  14:  -381.44006007903960   -2.16005e-12   5.74789e-09 DIIS

  ==> Post-Iterations <==

    Orbital Energies [Eh]
    ---------------------

    Doubly Occupied:                                                      

       1A    -14.578871     2A    -14.540945     3A    -10.501283  
       4A    -10.373529     5A    -10.357749     6A    -10.357551  
       7A    -10.343605     8A    -10.341287     9A    -10.341067  
      10A     -1.181500    11A     -1.087682    12A     -1.014693  
      13A     -0.925976    14A     -0.903179    15A     -0.844161  
      16A     -0.780931    17A     -0.772911    18A     -0.741284  
      19A     -0.729185    20A     -0.698559    21A     -0.673844  
      22A     -0.630823    23A     -0.607006    24A     -0.588813  
      25A     -0.577610    26A     -0.565057    27A     -0.516248  
      28A     -0.508337    29A     -0.499222    30A     -0.457412  
      31A     -0.408801    32A     -0.405385  

    Virtual:                                                              

      33A     -0.240179    34A     -0.156016    35A     -0.144240  
      36A     -0.105787    37A     -0.077329    38A     -0.049641  
      39A     -0.039370    40A     -0.024612    41A      0.006396  
      42A      0.017923    43A      0.029399    44A      0.059502  
      45A      0.075184    46A      0.090146    47A      0.126576  
      48A      0.142873    49A      0.156249    50A      0.168321  
      51A      0.209392    52A      0.238510    53A      0.300071  
      54A      0.350843    55A      0.359048    56A      0.380964  
      57A      0.392974    58A      0.400056    59A      0.415922  
      60A      0.421676    61A      0.438690    62A      0.449520  
      63A      0.457056    64A      0.470392    65A      0.473327  
      66A      0.479163    67A      0.487661    68A      0.504143  
      69A      0.513010    70A      0.538785    71A      0.559965  
      72A      0.584505    73A      0.612157    74A      0.648061  
      75A      0.661347    76A      0.678264    77A      0.688766  
      78A      0.703733    79A      0.714834    80A      0.723609  
      81A      0.753803    82A      0.763089    83A      0.776361  
      84A      0.780765    85A      0.810468    86A      0.832241  
      87A      0.850923    88A      0.892435    89A      0.955905  
      90A      0.965001    91A      0.977276    92A      1.016577  
      93A      1.031560    94A      1.085449    95A      1.140387  
      96A      1.153937    97A      1.257807    98A      1.275142  
      99A      1.280839   100A      1.304907   101A      1.325645  
     102A      1.341150   103A      1.360300   104A      1.372472  
     105A      1.408690   106A      1.455800   107A      1.536247  
     108A      1.596433   109A      1.630764   110A      1.666365  
     111A      1.694364   112A      1.733223   113A      1.752757  
     114A      1.803006   115A      1.805682   116A      1.834049  
     117A      1.894559   118A      1.929906   119A      1.950485  
     120A      1.980985   121A      1.995376   122A      2.007440  
     123A      2.013965   124A      2.050021   125A      2.124603  
     126A      2.126619   127A      2.152699   128A      2.192804  
     129A      2.201548   130A      2.311999   131A      2.350819  
     132A      2.418526   133A      2.446798   134A      2.453156  
     135A      2.487905   136A      2.519411   137A      2.547062  
     138A      2.589875   139A      2.597722   140A      2.627215  
     141A      2.730794   142A      2.848606   143A      2.979710  
     144A      3.257677   145A      3.621295   146A      3.677095  
     147A      3.913212   148A      3.946247   149A      3.963680  
     150A      4.043132   151A      4.173336   152A      4.251260  
     153A      4.544954  

    Final Occupation by Irrep:
              A 
    DOCC [    32 ]

  Energy converged.

  @DF-RKS Final Energy:  -381.44006007903960

   => Energetics <=

    Nuclear Repulsion Energy =            416.8160177974705789
    One-Electron Energy =               -1328.8530573997481952
    Two-Electron Energy =                 575.0179648510395509
    DFT Exchange-Correlation Energy =     -44.4090612178014936
    Empirical Dispersion Energy =          -0.0119241100000000
    VV10 Nonlocal Energy =                  0.0000000000000000
    Total Energy =                       -381.4400600790395970



Properties will be evaluated at   0.000000,   0.000000,   0.000000 [a0]

Properties computed using the SCF density matrix

  Nuclear Dipole Moment: [e a0]
     X:     0.0431      Y:    -0.0983      Z:     0.1128

  Electronic Dipole Moment: [e a0]
     X:     0.0634      Y:     0.2368      Z:    -2.2760

  Dipole Moment: [e a0]
     X:     0.1065      Y:     0.1385      Z:    -2.1632     Total:     2.1703

  Dipole Moment: [D]
     X:     0.2706      Y:     0.3520      Z:    -5.4983     Total:     5.5162


*** tstop() called on arancio.prib.upf.edu at Sat Sep 29 20:27:56 2018
Module time:
	user time   =      94.40 seconds =       1.57 minutes
	system time =       0.48 seconds =       0.01 minutes
	total time  =         27 seconds =       0.45 minutes
Total time:
	user time   =      94.40 seconds =       1.57 minutes
	system time =       0.48 seconds =       0.01 minutes
	total time  =         27 seconds =       0.45 minutes

*** tstart() called on arancio.prib.upf.edu
*** at Sat Sep 29 20:27:56 2018


         ------------------------------------------------------------
                                   SCF GRAD                          
                          Rob Parrish, Justin Turney,                
                       Andy Simmonett, and Alex Sokolov              
         ------------------------------------------------------------

  ==> Geometry <==

    Molecular point group: c1
    Full point group: C1

    Geometry (in Angstrom), charge = 1, multiplicity = 1:

       Center              X                  Y                   Z               Mass       
    ------------   -----------------  -----------------  -----------------  -----------------
         C            0.000000000000     0.000000000000    -0.177864000000    12.000000000000
         C            0.036678000000     1.219374000000     0.524165000000    12.000000000000
         C            0.031765000000     1.213120000000     1.915444000000    12.000000000000
         C            0.000000000000     0.000000000000     2.610107000000    12.000000000000
         C           -0.031765000000    -1.213120000000     1.915444000000    12.000000000000
         C           -0.036678000000    -1.219375000000     0.524165000000    12.000000000000
         C            0.000000000000     0.000000000000    -1.644734000000    12.000000000000
         H            0.018170000000     2.164705000000    -0.010854000000     1.007825032070
         H            0.042402000000     2.152895000000     2.457886000000     1.007825032070
         H            0.000000000000     0.000000000000     3.695756000000     1.007825032070
         H           -0.042402000000    -2.152895000000     2.457886000000     1.007825032070
         H           -0.018170000000    -2.164705000000    -0.010853000000     1.007825032070
         N           -0.712590000000    -0.905950000000    -2.308461000000    14.003074004780
         N            0.712590000000     0.905950000000    -2.308460000000    14.003074004780
         H            0.673432000000     1.006470000000    -3.315997000000     1.007825032070
         H            1.377190000000     1.485970000000    -1.813316000000     1.007825032070
         H           -0.628486000000    -1.885763000000    -2.071444000000     1.007825032070
         H           -1.399350000000    -0.658709000000    -3.011312000000     1.007825032070

  Nuclear repulsion =  416.816017797470579

  ==> Basis Set <==

  Basis Set: 6-31G*
    Blend: 6-31G*
    Number of shells: 72
    Number of basis function: 153
    Number of Cartesian functions: 153
    Spherical Harmonics?: false
    Max angular momentum: 2

  ==> DFJKGrad: Density-Fitted SCF Gradients <==

    Gradient:                    1
    J tasked:                  Yes
    K tasked:                  Yes
    wK tasked:                  No
    OpenMP threads:              4
    Integrals threads:           4
    Memory (MB):              2002
    Schwarz Cutoff:          0E+00
    Fitting Condition:       1E-12

   => Auxiliary Basis Set <=

  Basis Set: (6-31G* AUX)
    Blend: CC-PVDZ-JKFIT
    Number of shells: 297
    Number of basis function: 954
    Number of Cartesian functions: 954
    Spherical Harmonics?: false
    Max angular momentum: 3

  ==> DFT Potential <==

   => Composite Functional: B3LYP-D3ZERO <= 

    B3LYP-d3zero Hyb-GGA Exchange-Correlation Functional

    P. J. Stephens, F. J. Devlin, C. F. Chabalowski, and M. J. Frisch, J. Phys. Chem. 98, 11623 (1994)

    Deriv               =              1
    GGA                 =           TRUE
    Meta                =          FALSE

    Exchange Hybrid     =           TRUE
    MP2 Hybrid          =          FALSE

   => Exchange Functionals <=

    0.0800   Slater exchange
    0.7200         Becke 88

   => Exact (HF) Exchange <=

    0.2000               HF 

   => Correlation Functionals <=

    0.1900   Vosko, Wilk & Nusair (VWN5_RPA)
    0.8100   Lee, Yang & Parr

   => Molecular Quadrature <=

    Radial Scheme       =       TREUTLER
    Pruning Scheme      =           FLAT
    Nuclear Scheme      =       TREUTLER

    BS radius alpha     =              1
    Pruning alpha       =              1
    Radial Points       =             75
    Spherical Points    =            302
    Total Points        =         396973
    Total Blocks        =           3010
    Max Points          =            256
    Max Functions       =            149


  -Total Gradient:
     Atom            X                  Y                   Z
    ------   -----------------  -----------------  -----------------
       1       -0.011876093105     0.004735988380     0.000668642056
       2       -0.002655392663    -0.000693922425     0.000077478176
       3        0.001313340585     0.000634892816    -0.000631558363
       4       -0.000178617783    -0.001313355719    -0.000223994555
       5       -0.000489819862     0.001478873734     0.002099281429
       6        0.000715887160    -0.001344942918    -0.002794707417
       7       -0.018620554765    -0.015375841404    -0.011993043222
       8       -0.000293621558    -0.000047197696    -0.000143857012
       9        0.000295529950    -0.000061646107     0.000067053969
      10        0.000055609761     0.000017737591     0.000037380123
      11       -0.000012347905    -0.000019165260    -0.000050909328
      12        0.001104248244     0.000527053010    -0.001538646822
      13        0.014208837109     0.015976491714     0.020815404032
      14        0.010412405433    -0.001845140028    -0.005767188121
      15       -0.000495813610     0.003664386832     0.001464188566
      16        0.003799372577    -0.005834671052    -0.001414547831
      17        0.011861552498    -0.001724789737    -0.008422867832
      18       -0.009143280568     0.001225561905     0.007748254339


*** tstop() called on arancio.prib.upf.edu at Sat Sep 29 20:28:03 2018
Module time:
	user time   =      27.37 seconds =       0.46 minutes
	system time =       0.22 seconds =       0.00 minutes
	total time  =          7 seconds =       0.12 minutes
Total time:
	user time   =     121.84 seconds =       2.03 minutes
	system time =       0.70 seconds =       0.01 minutes
	total time  =         34 seconds =       0.57 minutes

			-----------------------------------------
			 OPTKING 2.0: for geometry optimizations 
			  - R.A. King,  Bethel University        
			-----------------------------------------
	At level 1: Red. Int., RFO, no backsteps, dynamic trust

	Internal coordinates to be generated automatically.
	Detected frag 1 with atoms:  1 2 3 4 5 6 7 8 9 10 11 12 13 14 15 16 17 18
	---Fragment 1 Bond Connectivity---
	 1 : 2 6 7
	 2 : 1 3 8
	 3 : 2 4 9
	 4 : 3 5 10
	 5 : 4 6 11
	 6 : 1 5 12
	 7 : 1 13 14
	 8 : 2
	 9 : 3
	 10 : 4
	 11 : 5
	 12 : 6
	 13 : 7 17 18
	 14 : 7 15 16
	 15 : 14
	 16 : 14
	 17 : 13
	 18 : 13

	Assuming in current code that numbering for constraints corresponds to unified fragment.
	Frozen dihedral atom list: 
	     1     7    13    17
	---Fragment 1 Geometry and Gradient---
	 C           0.0000000000        0.0000000000       -0.3361142489
	 C           0.0693113751        2.3042829136        0.9905282984
	 C           0.0600271506        2.2924645663        3.6196645829
	 C           0.0000000000        0.0000000000        4.9323874075
	 C          -0.0600271506       -2.2924645663        3.6196645829
	 C          -0.0693113751       -2.3042848033        0.9905282984
	 C           0.0000000000        0.0000000000       -3.1080968214
	 H           0.0343363238        4.0906996085       -0.0205110874
	 H           0.0801281675        4.0683819429        4.6447314059
	 H           0.0000000000        0.0000000000        6.9839666940
	 H          -0.0801281675       -4.0683819429        4.6447314059
	 H          -0.0343363238       -4.0906996085       -0.0205091977
	 N          -1.3465999450       -1.7119973901       -4.3623590784
	 N           1.3465999450        1.7119973901       -4.3623571887
	 H           1.2726020491        1.9019526610       -6.2663261875
	 H           2.6025119329        2.8080763417       -3.4266706324
	 H          -1.1876664184       -3.5635756215       -3.9144618596
	 H          -2.6443882641       -1.2447796113       -5.6905549807
	            -0.0118760931        0.0047359884        0.0006686421
	            -0.0026553927       -0.0006939224        0.0000774782
	             0.0013133406        0.0006348928       -0.0006315584
	            -0.0001786178       -0.0013133557       -0.0002239946
	            -0.0004898199        0.0014788737        0.0020992814
	             0.0007158872       -0.0013449429       -0.0027947074
	            -0.0186205548       -0.0153758414       -0.0119930432
	            -0.0002936216       -0.0000471977       -0.0001438570
	             0.0002955299       -0.0000616461        0.0000670540
	             0.0000556098        0.0000177376        0.0000373801
	            -0.0000123479       -0.0000191653       -0.0000509093
	             0.0011042482        0.0005270530       -0.0015386468
	             0.0142088371        0.0159764917        0.0208154040
	             0.0104124054       -0.0018451400       -0.0057671881
	            -0.0004958136        0.0036643868        0.0014641886
	             0.0037993726       -0.0058346711       -0.0014145478
	             0.0118615525       -0.0017247897       -0.0084228678
	            -0.0091432806        0.0012255619        0.0077482543

	Previous optimization step data not found.  Starting new optimization.

	---Fragment 1 Intrafragment Coordinates---
	 - Coordinate -           - BOHR/RAD -       - ANG/DEG -
	 R(1,2)           =         2.659794	       1.407502
	 R(1,6)           =         2.659796	       1.407503
	 R(1,7)           =         2.771983	       1.466870
	 R(2,3)           =         2.629179	       1.391302
	 R(2,8)           =         2.052976	       1.086388
	 R(3,4)           =         2.642393	       1.398294
	 R(3,9)           =         2.050622	       1.085142
	 R(4,5)           =         2.642393	       1.398294
	 R(4,10)          =         2.051579	       1.085649
	 R(5,6)           =         2.629179	       1.391302
	 R(5,11)          =         2.050622	       1.085142
	 R(6,12)          =         2.052973	       1.086386
	 R(7,13)          =         2.513452	       1.330061
	 R(7,14)          =         2.513451	       1.330061
	 R(13,17)         =         1.911600	       1.011575
	 R(13,18)         =         1.914850	       1.013295
	 R(14,15)         =         1.914852	       1.013296
	 R(14,16)         =         1.911600	       1.011575
	 B(1,2,3)         =         2.088380	     119.655376
	 B(1,2,8)         =         2.103396	     120.515689
	 B(1,6,5)         =         2.088379	     119.655315
	 B(1,6,12)        =         2.103396	     120.515729
	 B(1,7,13)        =         2.093264	     119.935172
	 B(1,7,14)        =         2.093263	     119.935135
	 B(2,1,6)         =         2.097220	     120.161857
	 B(2,1,7)         =         2.092983	     119.919082
	 B(2,3,4)         =         2.095279	     120.050636
	 B(2,3,9)         =         2.089719	     119.732108
	 B(3,2,8)         =         2.090149	     119.756722
	 B(3,4,5)         =         2.101793	     120.423859
	 B(3,4,10)        =         2.090696	     119.788070
	 B(4,3,9)         =         2.098135	     120.214297
	 B(4,5,6)         =         2.095280	     120.050677
	 B(4,5,11)        =         2.098135	     120.214297
	 B(5,4,10)        =         2.090696	     119.788070
	 B(5,6,12)        =         2.090149	     119.756743
	 B(6,1,7)         =         2.092982	     119.919061
	 B(6,5,11)        =         2.089719	     119.732067
	 B(7,13,17)       =         2.092411	     119.886322
	 B(7,13,18)       =         2.144860	     122.891444
	 B(7,14,15)       =         2.144860	     122.891405
	 B(7,14,16)       =         2.092412	     119.886393
	 B(13,7,14)       =         2.096659	     120.129694
	 B(15,14,16)      =         2.043399	     117.078146
	 B(17,13,18)      =         2.043400	     117.078174
	 D(1,2,3,4)       =         0.007799	       0.446825
	 D(1,2,3,9)       =        -3.122896	    -178.928735
	 D(1,6,5,4)       =         0.007799	       0.446822
	 D(1,6,5,11)      =        -3.122896	    -178.928737
	*D(1,7,13,17)     =        -0.872665	     -50.000008
	 D(1,7,13,18)     =         2.190511	     125.507036
	 D(1,7,14,15)     =        -3.032165	    -173.730230
	 D(1,7,14,16)     =         0.187844	      10.762681
	 D(2,1,6,5)       =        -0.003906	      -0.223802
	 D(2,1,6,12)      =        -3.091437	    -177.126283
	 D(2,1,7,13)      =        -2.505167	    -143.535494
	 D(2,1,7,14)      =         0.636426	      36.464506
	 D(2,3,4,5)       =        -0.003942	      -0.225875
	 D(2,3,4,10)      =         3.137650	     179.774125
	 D(3,2,1,6)       =        -0.003906	      -0.223806
	 D(3,2,1,7)       =         3.137687	     179.776196
	 D(3,4,5,6)       =        -0.003942	      -0.225874
	 D(3,4,5,11)      =         3.126699	     179.146646
	 D(4,3,2,8)       =         3.095744	     177.373058
	 D(4,5,6,12)      =         3.095744	     177.373055
	 D(5,4,3,9)       =         3.126699	     179.146646
	 D(5,6,1,7)       =         3.137687	     179.776197
	 D(6,1,2,8)       =        -3.091437	    -177.126287
	 D(6,1,7,13)      =         0.636426	      36.464508
	 D(6,1,7,14)      =        -2.505167	    -143.535492
	 D(6,5,4,10)      =         3.137650	     179.774126
	 D(7,1,2,8)       =         0.050156	       2.873714
	 D(7,1,6,12)      =         0.050156	       2.873716
	 D(8,2,3,9)       =        -0.034950	      -2.002503
	 D(9,3,4,10)      =        -0.014894	      -0.853354
	 D(10,4,5,11)     =        -0.014894	      -0.853354
	 D(11,5,6,12)     =        -0.034950	      -2.002504
	 D(13,7,14,15)    =         0.109428	       6.269770
	 D(13,7,14,16)    =        -2.953748	    -169.237319
	 D(14,7,13,17)    =         2.268928	     129.999992
	 D(14,7,13,18)    =        -0.951082	     -54.492964

	Current energy   :      -381.4400600790

	Generating empirical Hessian (Schlegel '84) for each fragment.
	Taking RFO optimization step.
	Going to follow RFO solution 1.
	Using RFO vector 1.

	Determining step-restricting scale parameter for RS-RFO.
	Maximum step size allowed    0.50000

	 Iter      |step|        alpha        rfo_root  
	------------------------------------------------
	    0     0.59614       1.00000           1
	    1     0.51935       1.51385           1
	    2     0.50107       1.67464           1
	    3     0.50000       1.68457           1
	------------------------------------------------
	Norm of target step-size    0.50000
	Projected energy change by RFO approximation:        -0.0071249695

	Back-transformation to cartesian coordinates...
	Could not converge backtransformation.
	Using first guess instead.

	Back-transformation to cartesian coordinates to adjust frozen coordinates...
	Successfully converged to displaced geometry.

	--- Internal Coordinate Step in ANG or DEG, aJ/ANG or AJ/DEG ---
	 ---------------------------------------------------------------------------
	   Coordinate                Previous        Force       Change         New 
	   ----------                --------       ------       ------       ------
	    1 R(1,2)          =      1.407502     0.009054     0.001844     1.409346
	    2 R(1,6)          =      1.407503     0.013329     0.002834     1.410337
	    3 R(1,7)          =      1.466870     0.020033     0.003391     1.470261
	    4 R(2,3)          =      1.391302     0.002036     0.000783     1.392085
	    5 R(2,8)          =      1.086388    -0.000284     0.000566     1.086954
	    6 R(3,4)          =      1.398294    -0.007585    -0.000326     1.397968
	    7 R(3,9)          =      1.085142     0.000141     0.000326     1.085469
	    8 R(4,5)          =      1.398294     0.005078     0.001009     1.399302
	    9 R(4,10)         =      1.085649    -0.000310     0.000254     1.085903
	   10 R(5,6)          =      1.391302    -0.012751    -0.001420     1.389882
	   11 R(5,11)         =      1.085142     0.000070     0.000723     1.085865
	   12 R(6,12)         =      1.086386    -0.002620     0.000669     1.087056
	   13 R(7,13)         =      1.330061     0.244381     0.026847     1.356908
	   14 R(7,14)         =      1.330061    -0.061517    -0.000458     1.329603
	   15 R(13,17)        =      1.011575    -0.005625     0.000908     1.012483
	   16 R(13,18)        =      1.013295    -0.009241     0.012503     1.025798
	   17 R(14,15)        =      1.013296     0.008845     0.001356     1.014652
	   18 R(14,16)        =      1.011575     0.012697     0.013693     1.025268
	   19 B(1,2,3)        =    119.655376     0.000043     0.106916   119.762292
	   20 B(1,2,8)        =    120.515689    -0.000010    -0.017355   120.498334
	   21 B(1,6,5)        =    119.655315     0.000065     0.195266   119.850581
	   22 B(1,6,12)       =    120.515729     0.000094     0.470488   120.986217
	   23 B(1,7,13)       =    119.935172     0.000852     2.314406   122.249578
	   24 B(1,7,14)       =    119.935135    -0.000462    -1.437801   118.497334
	   25 B(2,1,6)        =    120.161857    -0.000127    -0.319394   119.842463
	   26 B(2,1,7)        =    119.919082    -0.000237    -0.671499   119.247583
	   27 B(2,3,4)        =    120.050636     0.000013     0.048801   120.099437
	   28 B(2,3,9)        =    119.732108    -0.000013    -0.064859   119.667248
	   29 B(3,2,8)        =    119.756722    -0.000034    -0.124019   119.632703
	   30 B(3,4,5)        =    120.423859    -0.000012    -0.058343   120.365517
	   31 B(3,4,10)       =    119.788070     0.000007     0.050157   119.838228
	   32 B(4,3,9)        =    120.214297     0.000000     0.018109   120.232405
	   33 B(4,5,6)        =    120.050677     0.000017     0.012830   120.063507
	   34 B(4,5,11)       =    120.214297    -0.000012    -0.014284   120.200013
	   35 B(5,4,10)       =    119.788070     0.000004     0.007797   119.795867
	   36 B(5,6,12)       =    119.756743    -0.000157    -0.636578   119.120165
	   37 B(6,1,7)        =    119.919061     0.000364     0.988178   120.907239
	   38 B(6,5,11)       =    119.732067    -0.000004     0.004413   119.736479
	   39 B(7,13,17)      =    119.886322     0.000135     0.752974   120.639296
	   40 B(7,13,18)      =    122.891444    -0.000014    -0.272931   122.618513
	   41 B(7,14,15)      =    122.891405    -0.000262    -1.088511   121.802894
	   42 B(7,14,16)      =    119.886393     0.000178     1.227281   121.113674
	   43 B(13,7,14)      =    120.129694    -0.000390    -1.348126   118.781567
	   44 B(15,14,16)     =    117.078146     0.000100     0.005274   117.083420
	   45 B(17,13,18)     =    117.078174    -0.000086    -0.495132   116.583042
	   46 D(1,2,3,4)      =      0.446825     0.000011     0.920835     1.367660
	   47 D(1,2,3,9)      =   -178.928735     0.000008     0.642454  -178.286281
	   48 D(1,6,5,4)      =      0.446822     0.000006     0.513216     0.960038
	   49 D(1,6,5,11)     =   -178.928737    -0.000001    -0.102297  -179.031035
	   50 *D(1,7,13,17)   =    -50.000008    -0.000000    -0.000000   -50.000008
	   51 D(1,7,13,18)    =    125.507036     0.000122     9.236608   134.743644
	   52 D(1,7,14,15)    =   -173.730230     0.000005     0.691342  -173.038887
	   53 D(1,7,14,16)    =     10.762681    -0.000053    -3.842362     6.920319
	   54 D(2,1,6,5)      =     -0.223802    -0.000001    -0.058029    -0.281831
	   55 D(2,1,6,12)     =   -177.126283    -0.000008    -0.748493  -177.874775
	   56 D(2,1,7,13)     =   -143.535494     0.000014     0.465243  -143.070251
	   57 D(2,1,7,14)     =     36.464506    -0.000079    -7.514328    28.950178
	   58 D(2,3,4,5)      =     -0.225875    -0.000006    -0.468792    -0.694667
	   59 D(2,3,4,10)     =    179.774125    -0.000003    -0.241635   179.532490
	   60 D(3,2,1,6)      =     -0.223806    -0.000008    -0.659629    -0.883435
	   61 D(3,2,1,7)      =    179.776196    -0.000014    -1.253495   178.522700
	   62 D(3,4,5,6)      =     -0.225874    -0.000003    -0.254525    -0.480399
	   63 D(3,4,5,11)     =    179.146646     0.000004     0.363986   179.510632
	   64 D(4,3,2,8)      =    177.373058     0.000003     0.258879   177.631937
	   65 D(4,5,6,12)     =    177.373055     0.000015     1.224892   178.597947
	   66 D(5,4,3,9)      =    179.146646    -0.000002    -0.189345   178.957301
	   67 D(5,6,1,7)      =    179.776197     0.000005     0.545885   180.322082
	   68 D(6,1,2,8)      =   -177.126287     0.000000     0.011438  -177.114849
	   69 D(6,1,7,13)     =     36.464508     0.000008    -0.135128    36.329379
	   70 D(6,1,7,14)     =   -143.535492    -0.000085    -8.114699  -151.650191
	   71 D(6,5,4,10)     =    179.774126    -0.000006    -0.481586   179.292540
	   72 D(7,1,2,8)      =      2.873714    -0.000006    -0.582429     2.291286
	   73 D(7,1,6,12)     =      2.873716    -0.000002    -0.144578     2.729138
	   74 D(8,2,3,9)      =     -2.002503    -0.000000    -0.019501    -2.022004
	   75 D(9,3,4,10)     =     -0.853354     0.000001     0.037812    -0.815542
	   76 D(10,4,5,11)    =     -0.853354     0.000002     0.136925    -0.716429
	   77 D(11,5,6,12)    =     -2.002504     0.000008     0.609378    -1.393126
	   78 D(13,7,14,15)   =      6.269770    -0.000088    -7.006727    -0.736957
	   79 D(13,7,14,16)   =   -169.237319    -0.000146   -11.540432  -180.777751
	   80 D(14,7,13,17)   =    129.999992     0.000093     8.001360   138.001352
	   81 D(14,7,13,18)   =    -54.492964     0.000216    17.237968   -37.254996
	 ---------------------------------------------------------------------------
	Successfully symmetrized geometry.

  ==> Convergence Check <==

  Measures of convergence in internal coordinates in au.
  Criteria marked as inactive (o), active & met (*), and active & unmet ( ).
  --------------------------------------------------------------------------------------------- ~
   Step     Total Energy     Delta E     MAX Force     RMS Force      MAX Disp      RMS Disp    ~
  --------------------------------------------------------------------------------------------- ~
    Convergence Criteria    1.00e-06 *    3.00e-04 *             o    1.20e-03 *             o  ~
  --------------------------------------------------------------------------------------------- ~
      1    -381.44006008   -3.81e+02      2.97e-02      4.43e-03 o    3.01e-01      5.49e-02 o  ~
  ---------------------------------------------------------------------------------------------

	Writing optimization data to binary file.
	Structure for next step:
	Cartesian Geometry (in Angstrom)
	    C     0.0343165815  -0.0415270239  -0.1671181192
	    C     0.1016035759   1.1897929816   0.5152157560
	    C     0.0727352187   1.2111513156   1.9068371093
	    C     0.0061557337   0.0136931277   2.6251518601
	    C    -0.0465457060  -1.2124339156   1.9529297876
	    C    -0.0429890955  -1.2454184743   0.5634439928
	    C     0.0326747829  -0.0489116640  -1.6373592836
	    H     0.1143733613   2.1262298536  -0.0365020848
	    H     0.0964859603   2.1618281149   2.4301836121
	    H    -0.0084729843   0.0349546830   3.7107479334
	    H    -0.0902047666  -2.1413145767   2.5136236210
	    H    -0.0611427371  -2.2071592355   0.0570692852
	    N    -0.7062533463  -0.9312363641  -2.3561694556
	    N     0.6520630464   0.9382842619  -2.2773949585
	    H     0.5950156298   1.0408424657  -3.2852372950
	    H     1.2099905272   1.6317398471  -1.7684640123
	    H    -0.6679298810  -1.9223842913  -2.1529993910
	    H    -1.2690899011  -0.6501641056  -3.1664003575
			--------------------------
			 OPTKING Finished Execution 
			--------------------------

    Structure for next step:
    Molecular point group: c1
    Full point group: C1

    Geometry (in Angstrom), charge = 1, multiplicity = 1:

    C            0.034316581530    -0.041527023945    -0.167118119166
    C            0.101603575945     1.189792981609     0.515215756039
    C            0.072735218675     1.211151315610     1.906837109274
    C            0.006155733686     0.013693127672     2.625151860070
    C           -0.046545705963    -1.212433915602     1.952929787596
    C           -0.042989095547    -1.245418474299     0.563443992821
    C            0.032674782873    -0.048911663991    -1.637359283590
    H            0.114373361344     2.126229853591    -0.036502084832
    H            0.096485960341     2.161828114897     2.430183612110
    H           -0.008472984321     0.034954683009     3.710747933358
    H           -0.090204766574    -2.141314576741     2.513623621040
    H           -0.061142737081    -2.207159235502     0.057069285200
    N           -0.706253346294    -0.931236364094    -2.356169455603
    N            0.652063046438     0.938284261878    -2.277394958510
    H            0.595015629791     1.040842465725    -3.285237294952
    H            1.209990527183     1.631739847073    -1.768464012291
    H           -0.667929880952    -1.922384291299    -2.152999391014
    H           -1.269089901073    -0.650164105592    -3.166400357549

gradient() will perform analytic gradient computation.

*** tstart() called on arancio.prib.upf.edu
*** at Sat Sep 29 20:28:04 2018

   => Loading Basis Set <=

    Name: 6-31G*
    Role: ORBITAL
    Keyword: BASIS
    atoms 1-7         entry C          line   111 file /shared/joao/test_parameterize/miniconda3/share/psi4/basis/6-31gs.gbs 
    atoms 8-12, 15-18 entry H          line    44 file /shared/joao/test_parameterize/miniconda3/share/psi4/basis/6-31gs.gbs 
    atoms 13-14       entry N          line   128 file /shared/joao/test_parameterize/miniconda3/share/psi4/basis/6-31gs.gbs 


         ---------------------------------------------------------
                                   SCF
            by Justin Turney, Rob Parrish, Andy Simmonett
                             and Daniel Smith
                              RKS Reference
                        4 Threads,   2861 MiB Core
         ---------------------------------------------------------

  ==> Geometry <==

    Molecular point group: c1
    Full point group: C1

    Geometry (in Angstrom), charge = 1, multiplicity = 1:

       Center              X                  Y                   Z               Mass       
    ------------   -----------------  -----------------  -----------------  -----------------
         C            0.034316581530    -0.041527023945    -0.167118119166    12.000000000000
         C            0.101603575945     1.189792981609     0.515215756039    12.000000000000
         C            0.072735218675     1.211151315610     1.906837109274    12.000000000000
         C            0.006155733686     0.013693127672     2.625151860070    12.000000000000
         C           -0.046545705963    -1.212433915602     1.952929787596    12.000000000000
         C           -0.042989095547    -1.245418474299     0.563443992821    12.000000000000
         C            0.032674782873    -0.048911663991    -1.637359283590    12.000000000000
         H            0.114373361344     2.126229853591    -0.036502084832     1.007825032070
         H            0.096485960341     2.161828114897     2.430183612110     1.007825032070
         H           -0.008472984321     0.034954683009     3.710747933358     1.007825032070
         H           -0.090204766574    -2.141314576741     2.513623621040     1.007825032070
         H           -0.061142737081    -2.207159235502     0.057069285200     1.007825032070
         N           -0.706253346294    -0.931236364094    -2.356169455603    14.003074004780
         N            0.652063046438     0.938284261878    -2.277394958510    14.003074004780
         H            0.595015629791     1.040842465725    -3.285237294952     1.007825032070
         H            1.209990527183     1.631739847073    -1.768464012291     1.007825032070
         H           -0.667929880952    -1.922384291299    -2.152999391014     1.007825032070
         H           -1.269089901073    -0.650164105592    -3.166400357549     1.007825032070

  Running in c1 symmetry.

  Rotational constants: A =      0.12112  B =      0.03943  C =      0.03089 [cm^-1]
  Rotational constants: A =   3630.97932  B =   1182.07572  C =    926.13850 [MHz]
  Nuclear repulsion =  415.524713537839375

  Charge       = 1
  Multiplicity = 1
  Electrons    = 64
  Nalpha       = 32
  Nbeta        = 32

  ==> Algorithm <==

  SCF Algorithm Type is DF.
  DIIS enabled.
  MOM disabled.
  Fractional occupation disabled.
  Guess Type is READ.
  Energy threshold   = 1.00e-08
  Density threshold  = 1.00e-08
  Integral threshold = 0.00e+00

  ==> Primary Basis <==

  Basis Set: 6-31G*
    Blend: 6-31G*
    Number of shells: 72
    Number of basis function: 153
    Number of Cartesian functions: 153
    Spherical Harmonics?: false
    Max angular momentum: 2

  ==> DFT Potential <==

   => Composite Functional: B3LYP-D3ZERO <= 

    B3LYP-d3zero Hyb-GGA Exchange-Correlation Functional

    P. J. Stephens, F. J. Devlin, C. F. Chabalowski, and M. J. Frisch, J. Phys. Chem. 98, 11623 (1994)

    Deriv               =              1
    GGA                 =           TRUE
    Meta                =          FALSE

    Exchange Hybrid     =           TRUE
    MP2 Hybrid          =          FALSE

   => Exchange Functionals <=

    0.0800   Slater exchange
    0.7200         Becke 88

   => Exact (HF) Exchange <=

    0.2000               HF 

   => Correlation Functionals <=

    0.1900   Vosko, Wilk & Nusair (VWN5_RPA)
    0.8100   Lee, Yang & Parr

   => Molecular Quadrature <=

    Radial Scheme       =       TREUTLER
    Pruning Scheme      =           FLAT
    Nuclear Scheme      =       TREUTLER

    BS radius alpha     =              1
    Pruning alpha       =              1
    Radial Points       =             75
    Spherical Points    =            302
    Total Points        =         396895
    Total Blocks        =           3018
    Max Points          =            256
    Max Functions       =            149

   => -D3ZERO: Empirical Dispersion <=

    Grimme's -D3 (zero-damping) Dispersion Correction
    Grimme S.; Antony J.; Ehrlich S.; Krieg H. (2010), J. Chem. Phys., 132: 154104

        S6 =   1.000000E+00
        S8 =   1.703000E+00
       SR6 =   1.261000E+00
       SR8 =   1.000000E+00
    ALPHA6 =   1.400000E+01

   => Loading Basis Set <=

    Name: (6-31G* AUX)
    Role: JKFIT
    Keyword: DF_BASIS_SCF
    atoms 1-7         entry C          line   121 file /shared/joao/test_parameterize/miniconda3/share/psi4/basis/cc-pvdz-jkfit.gbs 
    atoms 8-12, 15-18 entry H          line    51 file /shared/joao/test_parameterize/miniconda3/share/psi4/basis/cc-pvdz-jkfit.gbs 
    atoms 13-14       entry N          line   171 file /shared/joao/test_parameterize/miniconda3/share/psi4/basis/cc-pvdz-jkfit.gbs 

  Reading orbitals from file 180, no projection.

  ==> Pre-Iterations <==

   -------------------------------------------------------
    Irrep   Nso     Nmo     Nalpha   Nbeta   Ndocc  Nsocc
   -------------------------------------------------------
     A        153     153       0       0       0       0
   -------------------------------------------------------
    Total     153     153      32      32      32       0
   -------------------------------------------------------

  ==> Integral Setup <==

  ==> DiskDFJK: Density-Fitted J/K Matrices <==

    J tasked:                  Yes
    K tasked:                  Yes
    wK tasked:                  No
    OpenMP threads:              4
    Integrals threads:           4
    Memory (MB):              2002
    Algorithm:                Core
    Integral Cache:           NONE
    Schwarz Cutoff:          1E-12
    Fitting Condition:       1E-12

   => Auxiliary Basis Set <=

  Basis Set: (6-31G* AUX)
    Blend: CC-PVDZ-JKFIT
    Number of shells: 297
    Number of basis function: 954
    Number of Cartesian functions: 954
    Spherical Harmonics?: false
    Max angular momentum: 3

  Minimum eigenvalue in the overlap matrix is 4.8697548512E-04.
  Using Symmetric Orthogonalization.

  SCF Guess: Orbitals guess was supplied from a previous computation.

  ==> Iterations <==

                           Total Energy        Delta E     RMS |[F,P]|

   @DF-RKS iter   0:  -381.39647572946700   -3.81396e+02   2.58767e-03 
   @DF-RKS iter   1:  -381.44736179198253   -5.08861e-02   4.18893e-04 
   @DF-RKS iter   2:  -381.44681998777503    5.41804e-04   6.23435e-04 DIIS
   @DF-RKS iter   3:  -381.44797778773346   -1.15780e-03   1.02144e-04 DIIS
   @DF-RKS iter   4:  -381.44800152395499   -2.37362e-05   4.32376e-05 DIIS
   @DF-RKS iter   5:  -381.44800662255125   -5.09860e-06   1.53347e-05 DIIS
   @DF-RKS iter   6:  -381.44800732990086   -7.07350e-07   5.49079e-06 DIIS
   @DF-RKS iter   7:  -381.44800740858193   -7.86811e-08   1.44703e-06 DIIS
   @DF-RKS iter   8:  -381.44800741510306   -6.52113e-09   4.40579e-07 DIIS
   @DF-RKS iter   9:  -381.44800741557447   -4.71402e-10   1.51724e-07 DIIS
   @DF-RKS iter  10:  -381.44800741563978   -6.53131e-11   5.70131e-08 DIIS
   @DF-RKS iter  11:  -381.44800741564842   -8.64020e-12   2.09255e-08 DIIS
   @DF-RKS iter  12:  -381.44800741565081   -2.38742e-12   3.88491e-09 DIIS

  ==> Post-Iterations <==

    Orbital Energies [Eh]
    ---------------------

    Doubly Occupied:                                                      

       1A    -14.577653     2A    -14.550680     3A    -10.502498  
       4A    -10.375670     5A    -10.359232     6A    -10.357213  
       7A    -10.343777     8A    -10.341639     9A    -10.340826  
      10A     -1.177630    11A     -1.082077    12A     -1.014390  
      13A     -0.926059    14A     -0.903184    15A     -0.843724  
      16A     -0.780410    17A     -0.771219    18A     -0.737421  
      19A     -0.728950    20A     -0.693684    21A     -0.670115  
      22A     -0.630685    23A     -0.607288    24A     -0.587652  
      25A     -0.577664    26A     -0.569964    27A     -0.515305  
      28A     -0.508607    29A     -0.499172    30A     -0.461747  
      31A     -0.409152    32A     -0.405673  

    Virtual:                                                              

      33A     -0.235329    34A     -0.155835    35A     -0.141260  
      36A     -0.110748    37A     -0.078572    38A     -0.060756  
      39A     -0.038760    40A     -0.027025    41A      0.007484  
      42A      0.021173    43A      0.027189    44A      0.061981  
      45A      0.068112    46A      0.085392    47A      0.121461  
      48A      0.136289    49A      0.155742    50A      0.171598  
      51A      0.206893    52A      0.233386    53A      0.298955  
      54A      0.351420    55A      0.357561    56A      0.379896  
      57A      0.390477    58A      0.399476    59A      0.415218  
      60A      0.420757    61A      0.437921    62A      0.449552  
      63A      0.457871    64A      0.470118    65A      0.473140  
      66A      0.475416    67A      0.485359    68A      0.499433  
      69A      0.510197    70A      0.550474    71A      0.552357  
      72A      0.586687    73A      0.612646    74A      0.644938  
      75A      0.656830    76A      0.676690    77A      0.688711  
      78A      0.703573    79A      0.715533    80A      0.727370  
      81A      0.749098    82A      0.770811    83A      0.773499  
      84A      0.786489    85A      0.815617    86A      0.836461  
      87A      0.852473    88A      0.916699    89A      0.962042  
      90A      0.970942    91A      0.981097    92A      1.022369  
      93A      1.035190    94A      1.079645    95A      1.129883  
      96A      1.147667    97A      1.249739    98A      1.274350  
      99A      1.279993   100A      1.308005   101A      1.322080  
     102A      1.336978   103A      1.349857   104A      1.360211  
     105A      1.415247   106A      1.451401   107A      1.524811  
     108A      1.599994   109A      1.626034   110A      1.654872  
     111A      1.713435   112A      1.728757   113A      1.743083  
     114A      1.797144   115A      1.800917   116A      1.827495  
     117A      1.892244   118A      1.915929   119A      1.939026  
     120A      1.974993   121A      1.990530   122A      2.000756  
     123A      2.017062   124A      2.041089   125A      2.116947  
     126A      2.126127   127A      2.152455   128A      2.188282  
     129A      2.197758   130A      2.301756   131A      2.323592  
     132A      2.389454   133A      2.442050   134A      2.451907  
     135A      2.483854   136A      2.519251   137A      2.536622  
     138A      2.589993   139A      2.600540   140A      2.624053  
     141A      2.730555   142A      2.835100   143A      2.977253  
     144A      3.253905   145A      3.620471   146A      3.651799  
     147A      3.909291   148A      3.945603   149A      3.962708  
     150A      4.041829   151A      4.171575   152A      4.250822  
     153A      4.542879  

    Final Occupation by Irrep:
              A 
    DOCC [    32 ]

  Energy converged.

  @DF-RKS Final Energy:  -381.44800741565081

   => Energetics <=

    Nuclear Repulsion Energy =            415.5247135378393750
    One-Electron Energy =               -1326.3123800324779040
    Two-Electron Energy =                 573.7332306815461607
    DFT Exchange-Correlation Energy =     -44.3818028025584113
    Empirical Dispersion Energy =          -0.0117688000000000
    VV10 Nonlocal Energy =                  0.0000000000000000
    Total Energy =                       -381.4480074156508067



Properties will be evaluated at   0.000000,   0.000000,   0.000000 [a0]

Properties computed using the SCF density matrix

  Nuclear Dipole Moment: [e a0]
     X:     0.9211      Y:    -1.2813      Z:     0.7969

  Electronic Dipole Moment: [e a0]
     X:    -0.8585      Y:     1.4079      Z:    -3.0098

  Dipole Moment: [e a0]
     X:     0.0626      Y:     0.1267      Z:    -2.2130     Total:     2.2175

  Dipole Moment: [D]
     X:     0.1591      Y:     0.3220      Z:    -5.6248     Total:     5.6363


*** tstop() called on arancio.prib.upf.edu at Sat Sep 29 20:28:26 2018
Module time:
	user time   =      81.35 seconds =       1.36 minutes
	system time =       0.42 seconds =       0.01 minutes
	total time  =         22 seconds =       0.37 minutes
Total time:
	user time   =     204.22 seconds =       3.40 minutes
	system time =       1.18 seconds =       0.02 minutes
	total time  =         57 seconds =       0.95 minutes

*** tstart() called on arancio.prib.upf.edu
*** at Sat Sep 29 20:28:26 2018


         ------------------------------------------------------------
                                   SCF GRAD                          
                          Rob Parrish, Justin Turney,                
                       Andy Simmonett, and Alex Sokolov              
         ------------------------------------------------------------

  ==> Geometry <==

    Molecular point group: c1
    Full point group: C1

    Geometry (in Angstrom), charge = 1, multiplicity = 1:

       Center              X                  Y                   Z               Mass       
    ------------   -----------------  -----------------  -----------------  -----------------
         C            0.034316581530    -0.041527023945    -0.167118119166    12.000000000000
         C            0.101603575945     1.189792981609     0.515215756039    12.000000000000
         C            0.072735218675     1.211151315610     1.906837109274    12.000000000000
         C            0.006155733686     0.013693127672     2.625151860070    12.000000000000
         C           -0.046545705963    -1.212433915602     1.952929787596    12.000000000000
         C           -0.042989095547    -1.245418474299     0.563443992821    12.000000000000
         C            0.032674782873    -0.048911663991    -1.637359283590    12.000000000000
         H            0.114373361344     2.126229853591    -0.036502084832     1.007825032070
         H            0.096485960341     2.161828114897     2.430183612110     1.007825032070
         H           -0.008472984321     0.034954683009     3.710747933358     1.007825032070
         H           -0.090204766574    -2.141314576741     2.513623621040     1.007825032070
         H           -0.061142737081    -2.207159235502     0.057069285200     1.007825032070
         N           -0.706253346294    -0.931236364094    -2.356169455603    14.003074004780
         N            0.652063046438     0.938284261878    -2.277394958510    14.003074004780
         H            0.595015629791     1.040842465725    -3.285237294952     1.007825032070
         H            1.209990527183     1.631739847073    -1.768464012291     1.007825032070
         H           -0.667929880952    -1.922384291299    -2.152999391014     1.007825032070
         H           -1.269089901073    -0.650164105592    -3.166400357549     1.007825032070

  Nuclear repulsion =  415.524713537839375

  ==> Basis Set <==

  Basis Set: 6-31G*
    Blend: 6-31G*
    Number of shells: 72
    Number of basis function: 153
    Number of Cartesian functions: 153
    Spherical Harmonics?: false
    Max angular momentum: 2

  ==> DFJKGrad: Density-Fitted SCF Gradients <==

    Gradient:                    1
    J tasked:                  Yes
    K tasked:                  Yes
    wK tasked:                  No
    OpenMP threads:              4
    Integrals threads:           4
    Memory (MB):              2002
    Schwarz Cutoff:          0E+00
    Fitting Condition:       1E-12

   => Auxiliary Basis Set <=

  Basis Set: (6-31G* AUX)
    Blend: CC-PVDZ-JKFIT
    Number of shells: 297
    Number of basis function: 954
    Number of Cartesian functions: 954
    Spherical Harmonics?: false
    Max angular momentum: 3

  ==> DFT Potential <==

   => Composite Functional: B3LYP-D3ZERO <= 

    B3LYP-d3zero Hyb-GGA Exchange-Correlation Functional

    P. J. Stephens, F. J. Devlin, C. F. Chabalowski, and M. J. Frisch, J. Phys. Chem. 98, 11623 (1994)

    Deriv               =              1
    GGA                 =           TRUE
    Meta                =          FALSE

    Exchange Hybrid     =           TRUE
    MP2 Hybrid          =          FALSE

   => Exchange Functionals <=

    0.0800   Slater exchange
    0.7200         Becke 88

   => Exact (HF) Exchange <=

    0.2000               HF 

   => Correlation Functionals <=

    0.1900   Vosko, Wilk & Nusair (VWN5_RPA)
    0.8100   Lee, Yang & Parr

   => Molecular Quadrature <=

    Radial Scheme       =       TREUTLER
    Pruning Scheme      =           FLAT
    Nuclear Scheme      =       TREUTLER

    BS radius alpha     =              1
    Pruning alpha       =              1
    Radial Points       =             75
    Spherical Points    =            302
    Total Points        =         396895
    Total Blocks        =           3018
    Max Points          =            256
    Max Functions       =            149


  -Total Gradient:
     Atom            X                  Y                   Z
    ------   -----------------  -----------------  -----------------
       1       -0.009178840273     0.011054915889     0.000396430586
       2       -0.000745436346     0.000898173375    -0.000512859614
       3        0.000054965221     0.000110465598     0.000457435549
       4       -0.000037472508    -0.000067279880     0.000086498493
       5        0.000123757937     0.000105001396    -0.000122937422
       6        0.000434340204    -0.001529757113     0.001106242805
       7        0.007435391104    -0.010372148424     0.003416175494
       8        0.000584646183    -0.000109174088    -0.001911922990
       9        0.000106177256     0.000149060757     0.000199303773
      10        0.000018564609    -0.000067793321     0.000230484294
      11       -0.000073455628    -0.000476049063     0.000250194272
      12        0.000711107103    -0.000690237584     0.000149771691
      13       -0.001460387779    -0.002125708259     0.005274920739
      14        0.001786505047    -0.005459145679    -0.003582901491
      15       -0.001618142211     0.001306589097    -0.000246529598
      16        0.007855766220     0.006565028435     0.005372706543
      17        0.009505864372    -0.002506310765    -0.007439796212
      18       -0.015503201569     0.003221580241    -0.003124614115


*** tstop() called on arancio.prib.upf.edu at Sat Sep 29 20:28:33 2018
Module time:
	user time   =      27.29 seconds =       0.45 minutes
	system time =       0.21 seconds =       0.00 minutes
	total time  =          7 seconds =       0.12 minutes
Total time:
	user time   =     231.57 seconds =       3.86 minutes
	system time =       1.40 seconds =       0.02 minutes
	total time  =         64 seconds =       1.07 minutes

			-----------------------------------------
			 OPTKING 2.0: for geometry optimizations 
			  - R.A. King,  Bethel University        
			-----------------------------------------
	At level 1: Red. Int., RFO, no backsteps, dynamic trust

	Previous internal coordinate definitions found.
	---Fragment 1 Geometry and Gradient---
	 C           0.0648489409       -0.0784747024       -0.3158074771
	 C           0.1920029327        2.2483828901        0.9736166783
	 C           0.1374496435        2.2887442920        3.6033999166
	 C           0.0116326508        0.0258762612        4.9608180728
	 C          -0.0879586369       -2.2911680547        3.6905024553
	 C          -0.0812376173       -2.3534998373        1.0647548377
	 C           0.0617463911       -0.0924296496       -3.0941606271
	 H           0.2161343298        4.0179921189       -0.0689789436
	 H           0.1823320407        4.0852630835        4.5923814795
	 H          -0.0160116199        0.0660547779        7.0122973422
	 H          -0.1704623047       -4.0464981144        4.7500602449
	 H          -0.1155430281       -4.1709264868        0.1078453196
	 N          -1.3346254049       -1.7597816931       -4.4525149938
	 N           1.2322205791        1.7731002897       -4.3036527680
	 H           1.1244165851        1.9669072077       -6.2081987690
	 H           2.2865507198        3.0835414311       -3.3419126591
	 H          -1.2622045510       -3.6327798327       -4.0685792133
	 H          -2.3982323510       -1.2286321010       -5.9836295028
	            -0.0091788403        0.0110549159        0.0003964306
	            -0.0007454363        0.0008981734       -0.0005128596
	             0.0000549652        0.0001104656        0.0004574355
	            -0.0000374725       -0.0000672799        0.0000864985
	             0.0001237579        0.0001050014       -0.0001229374
	             0.0004343402       -0.0015297571        0.0011062428
	             0.0074353911       -0.0103721484        0.0034161755
	             0.0005846462       -0.0001091741       -0.0019119230
	             0.0001061773        0.0001490608        0.0001993038
	             0.0000185646       -0.0000677933        0.0002304843
	            -0.0000734556       -0.0004760491        0.0002501943
	             0.0007111071       -0.0006902376        0.0001497717
	            -0.0014603878       -0.0021257083        0.0052749207
	             0.0017865050       -0.0054591457       -0.0035829015
	            -0.0016181422        0.0013065891       -0.0002465296
	             0.0078557662        0.0065650284        0.0053727065
	             0.0095058644       -0.0025063108       -0.0074397962
	            -0.0155032016        0.0032215802       -0.0031246141

	---Fragment 1 Intrafragment Coordinates---
	 - Coordinate -           - BOHR/RAD -       - ANG/DEG -
	 R(1,2)           =         2.663278	       1.409346
	 R(1,6)           =         2.665152	       1.410337
	 R(1,7)           =         2.778390	       1.470261
	 R(2,3)           =         2.630659	       1.392085
	 R(2,8)           =         2.054046	       1.086954
	 R(3,4)           =         2.641777	       1.397968
	 R(3,9)           =         2.051238	       1.085469
	 R(4,5)           =         2.644298	       1.399302
	 R(4,10)          =         2.052059	       1.085903
	 R(5,6)           =         2.626496	       1.389882
	 R(5,11)          =         2.051988	       1.085865
	 R(6,12)          =         2.054238	       1.087056
	 R(7,13)          =         2.564185	       1.356908
	 R(7,14)          =         2.512585	       1.329603
	 R(13,17)         =         1.913315	       1.012483
	 R(13,18)         =         1.938477	       1.025798
	 R(14,15)         =         1.917414	       1.014652
	 R(14,16)         =         1.937476	       1.025268
	 B(1,2,3)         =         2.090246	     119.762292
	 B(1,2,8)         =         2.103093	     120.498334
	 B(1,6,5)         =         2.091787	     119.850581
	 B(1,6,12)        =         2.111608	     120.986217
	 B(1,7,13)        =         2.133658	     122.249578
	 B(1,7,14)        =         2.068169	     118.497334
	 B(2,1,6)         =         2.091646	     119.842463
	 B(2,1,7)         =         2.081263	     119.247583
	 B(2,3,4)         =         2.096131	     120.099437
	 B(2,3,9)         =         2.088587	     119.667248
	 B(3,2,8)         =         2.087985	     119.632703
	 B(3,4,5)         =         2.100775	     120.365517
	 B(3,4,10)        =         2.091572	     119.838228
	 B(4,3,9)         =         2.098451	     120.232405
	 B(4,5,6)         =         2.095504	     120.063507
	 B(4,5,11)        =         2.097886	     120.200013
	 B(5,4,10)        =         2.090832	     119.795867
	 B(5,6,12)        =         2.079039	     119.120165
	 B(6,1,7)         =         2.110229	     120.907239
	 B(6,5,11)        =         2.089796	     119.736479
	 B(7,13,17)       =         2.105553	     120.639296
	 B(7,13,18)       =         2.140097	     122.618513
	 B(7,14,15)       =         2.125862	     121.802894
	 B(7,14,16)       =         2.113832	     121.113674
	 B(13,7,14)       =         2.073129	     118.781567
	 B(15,14,16)      =         2.043491	     117.083420
	 B(17,13,18)      =         2.034758	     116.583042
	 D(1,2,3,4)       =         0.023870	       1.367660
	 D(1,2,3,9)       =        -3.111683	    -178.286281
	 D(1,6,5,4)       =         0.016756	       0.960038
	 D(1,6,5,11)      =        -3.124681	    -179.031035
	*D(1,7,13,17)     =        -0.872665	     -50.000008
	 D(1,7,13,18)     =         2.351720	     134.743644
	 D(1,7,14,15)     =        -3.020098	    -173.038887
	 D(1,7,14,16)     =         0.120782	       6.920319
	 D(2,1,6,5)       =        -0.004919	      -0.281831
	 D(2,1,6,12)      =        -3.104500	    -177.874775
	 D(2,1,7,13)      =        -2.497047	    -143.070251
	 D(2,1,7,14)      =         0.505276	      28.950178
	 D(2,3,4,5)       =        -0.012124	      -0.694667
	 D(2,3,4,10)      =         3.133433	     179.532490
	 D(3,2,1,6)       =        -0.015419	      -0.883435
	 D(3,2,1,7)       =         3.115809	     178.522700
	 D(3,4,5,6)       =        -0.008385	      -0.480399
	 D(3,4,5,11)      =         3.133052	     179.510632
	 D(4,3,2,8)       =         3.100262	     177.631937
	 D(4,5,6,12)      =         3.117122	     178.597947
	 D(5,4,3,9)       =         3.123394	     178.957301
	 D(5,6,1,7)       =        -3.135971	    -179.677918
	 D(6,1,2,8)       =        -3.091237	    -177.114849
	 D(6,1,7,13)      =         0.634067	      36.329379
	 D(6,1,7,14)      =        -2.646795	    -151.650191
	 D(6,5,4,10)      =         3.129245	     179.292540
	 D(7,1,2,8)       =         0.039990	       2.291286
	 D(7,1,6,12)      =         0.047632	       2.729138
	 D(8,2,3,9)       =        -0.035291	      -2.022004
	 D(9,3,4,10)      =        -0.014234	      -0.815542
	 D(10,4,5,11)     =        -0.012504	      -0.716429
	 D(11,5,6,12)     =        -0.024315	      -1.393126
	 D(13,7,14,15)    =        -0.012862	      -0.736957
	 D(13,7,14,16)    =         3.128018	     179.222249
	 D(14,7,13,17)    =         2.408578	     138.001352
	 D(14,7,13,18)    =        -0.650222	     -37.254996

	Current energy   :      -381.4480074157

	Energy change for the previous step:
		Projected    :        -0.0071249695
		Actual       :        -0.0079473366
	Energy ratio indicates good step: Trust radius increased to 1.000e+00.


	Performing BFGS update.
	Previous computed or guess Hessian on step 1.
	Steps to be used in Hessian update: 1
	Taking RFO optimization step.
	Going to follow RFO solution 1.
	Using RFO vector 1.
	Norm of target step-size    0.60310
	Projected energy change by RFO approximation:        -0.0040015593

	Back-transformation to cartesian coordinates...
	Could not converge backtransformation.
	Using first guess instead.

	Back-transformation to cartesian coordinates to adjust frozen coordinates...
	Successfully converged to displaced geometry.

	--- Internal Coordinate Step in ANG or DEG, aJ/ANG or AJ/DEG ---
	 ---------------------------------------------------------------------------
	   Coordinate                Previous        Force       Change         New 
	   ----------                --------       ------       ------       ------
	    1 R(1,2)          =      1.409346     0.005133     0.002090     1.411436
	    2 R(1,6)          =      1.410337    -0.018880    -0.001298     1.409039
	    3 R(1,7)          =      1.470261    -0.003029     0.000933     1.471194
	    4 R(2,3)          =      1.392085    -0.006854    -0.000581     1.391504
	    5 R(2,8)          =      1.086954    -0.007276    -0.000884     1.086070
	    6 R(3,4)          =      1.397968    -0.007036    -0.000834     1.397134
	    7 R(3,9)          =      1.085469    -0.001885    -0.000058     1.085411
	    8 R(4,5)          =      1.399302    -0.005915     0.000027     1.399329
	    9 R(4,10)         =      1.085903    -0.001886    -0.000202     1.085701
	   10 R(5,6)          =      1.389882    -0.002194    -0.000869     1.389013
	   11 R(5,11)         =      1.085865    -0.004445    -0.000043     1.085822
	   12 R(6,12)         =      1.087056    -0.004359     0.000597     1.087653
	   13 R(7,13)         =      1.356908    -0.064113     0.003771     1.360679
	   14 R(7,14)         =      1.329603    -0.039418    -0.001670     1.327933
	   15 R(13,17)        =      1.012483    -0.010886    -0.001071     1.011412
	   16 R(13,18)        =      1.025798    -0.097683     0.038977     1.064775
	   17 R(14,15)        =      1.014652    -0.003856     0.002258     1.016910
	   18 R(14,16)        =      1.025268    -0.093769    -0.001100     1.024168
	   19 B(1,2,3)        =    119.762292     0.000018     0.098804   119.861096
	   20 B(1,2,8)        =    120.498334     0.000123     0.652578   121.150912
	   21 B(1,6,5)        =    119.850581     0.000066     0.300031   120.150611
	   22 B(1,6,12)       =    120.986217    -0.000066    -0.064479   120.921738
	   23 B(1,7,13)       =    122.249578    -0.000338    -0.224904   122.024674
	   24 B(1,7,14)       =    118.497334     0.000650     1.664520   120.161854
	   25 B(2,1,6)        =    119.842463    -0.000064    -0.345757   119.496706
	   26 B(2,1,7)        =    119.247583     0.000339     0.906019   120.153602
	   27 B(2,3,4)        =    120.099437     0.000017     0.098127   120.197564
	   28 B(2,3,9)        =    119.667248    -0.000016    -0.116268   119.550981
	   29 B(3,2,8)        =    119.632703    -0.000142    -0.802117   118.830586
	   30 B(3,4,5)        =    120.365517    -0.000032    -0.125595   120.239922
	   31 B(3,4,10)       =    119.838228     0.000010     0.047227   119.885455
	   32 B(4,3,9)        =    120.232405    -0.000001     0.016491   120.248896
	   33 B(4,5,6)        =    120.063507    -0.000004    -0.032790   120.030718
	   34 B(4,5,11)       =    120.200013    -0.000000     0.020431   120.220444
	   35 B(5,4,10)       =    119.795867     0.000021     0.074664   119.870531
	   36 B(5,6,12)       =    119.120165     0.000001    -0.211242   118.908923
	   37 B(6,1,7)        =    120.907239    -0.000275    -0.587192   120.320047
	   38 B(6,5,11)       =    119.736479     0.000005     0.011546   119.748025
	   39 B(7,13,17)      =    120.639296     0.000110     0.525704   121.165000
	   40 B(7,13,18)      =    122.618513    -0.000219    -3.400869   119.217644
	   41 B(7,14,15)      =    121.802894    -0.000006    -0.639140   121.163754
	   42 B(7,14,16)      =    121.113674    -0.000003     0.621392   121.735066
	   43 B(13,7,14)      =    118.781567    -0.000317    -1.722972   117.058595
	   44 B(15,14,16)     =    117.083420     0.000009     0.011080   117.094500
	   45 B(17,13,18)     =    116.583042     0.000063    -1.579208   115.003835
	   46 D(1,2,3,4)      =      1.367660    -0.000001     0.042706     1.410366
	   47 D(1,2,3,9)      =   -178.286281     0.000001     0.277141  -178.009140
	   48 D(1,6,5,4)      =      0.960038     0.000002     0.355793     1.315831
	   49 D(1,6,5,11)     =   -179.031035     0.000000     0.019514  -179.011521
	   50 *D(1,7,13,17)   =    -50.000008    -0.000000    -0.000000   -50.000008
	   51 D(1,7,13,18)    =    134.743644     0.000156    20.537283   155.280928
	   52 D(1,7,14,15)    =   -173.038887    -0.000022    -3.173293  -176.212181
	   53 D(1,7,14,16)    =      6.920319    -0.000022    -4.100178     2.820141
	   54 D(2,1,6,5)      =     -0.281831    -0.000004    -0.738078    -1.019909
	   55 D(2,1,6,12)     =   -177.874775    -0.000010    -1.553797  -179.428573
	   56 D(2,1,7,13)     =   -143.070251    -0.000003    -1.237241  -144.307492
	   57 D(2,1,7,14)     =     28.950178    -0.000017    -3.505236    25.444942
	   58 D(2,3,4,5)      =     -0.694667    -0.000002    -0.429069    -1.123736
	   59 D(2,3,4,10)     =    179.532490     0.000001     0.080553   179.613043
	   60 D(3,2,1,6)      =     -0.883435     0.000004     0.538564    -0.344871
	   61 D(3,2,1,7)      =    178.522700    -0.000005    -0.841433   177.681267
	   62 D(3,4,5,6)      =     -0.480399     0.000002     0.231557    -0.248842
	   63 D(3,4,5,11)     =    179.510632     0.000003     0.569438   180.080070
	   64 D(4,3,2,8)      =    177.631937    -0.000004    -0.728441   176.903496
	   65 D(4,5,6,12)     =    178.597947     0.000007     1.158403   179.756350
	   66 D(5,4,3,9)      =    178.957301    -0.000004    -0.665612   178.291690
	   67 D(5,6,1,7)      =   -179.677918     0.000004     0.635217  -179.042701
	   68 D(6,1,2,8)      =   -177.114849     0.000010     1.383673  -175.731176
	   69 D(6,1,7,13)     =     36.329379    -0.000011    -2.627124    33.702255
	   70 D(6,1,7,14)     =   -151.650191    -0.000025    -4.895118  -156.545310
	   71 D(6,5,4,10)     =    179.292540    -0.000001    -0.278051   179.014489
	   72 D(7,1,2,8)      =      2.291286     0.000001     0.003677     2.294962
	   73 D(7,1,6,12)     =      2.729138    -0.000002    -0.180502     2.548636
	   74 D(8,2,3,9)      =     -2.022004    -0.000003    -0.494006    -2.516010
	   75 D(9,3,4,10)     =     -0.815542    -0.000001    -0.155990    -0.971531
	   76 D(10,4,5,11)    =     -0.716429     0.000000     0.059830    -0.656599
	   77 D(11,5,6,12)    =     -1.393126     0.000005     0.822124    -0.571001
	   78 D(13,7,14,15)   =     -0.736957    -0.000036    -5.226255    -5.963213
	   79 D(13,7,14,16)   =    179.222249    -0.000037    -6.153140   173.069109
	   80 D(14,7,13,17)   =    138.001352    -0.000003     1.944719   139.946071
	   81 D(14,7,13,18)   =    -37.254996     0.000152    22.482002   -14.772993
	 ---------------------------------------------------------------------------
	Successfully symmetrized geometry.

  ==> Convergence Check <==

  Measures of convergence in internal coordinates in au.
  Criteria marked as inactive (o), active & met (*), and active & unmet ( ).
  ---------------------------------------------------------------------------------------------
   Step     Total Energy     Delta E     MAX Force     RMS Force      MAX Disp      RMS Disp   
  ---------------------------------------------------------------------------------------------
    Convergence Criteria    1.00e-06 *    3.00e-04 *             o    1.20e-03 *             o
  ---------------------------------------------------------------------------------------------
      2    -381.44800742   -7.95e-03      1.19e-02      2.94e-03 o    3.92e-01      6.49e-02 o  ~
  ---------------------------------------------------------------------------------------------

	Writing optimization data to binary file.
	Structure for next step:
	Cartesian Geometry (in Angstrom)
	    C     0.0486324197  -0.0300093076  -0.1522289137
	    C     0.1425439862   1.1943139282   0.5437335225
	    C     0.1126878535   1.2045245340   1.9348796031
	    C     0.0197189299   0.0046798707   2.6446063720
	    C    -0.0676305774  -1.2133471930   1.9613040803
	    C    -0.0673671597  -1.2328428244   0.5724278549
	    C     0.0282121592  -0.0442196144  -1.6232126300
	    H     0.1637874176   2.1418454616   0.0133737883
	    H     0.1525606124   2.1512542439   2.4642464151
	    H     0.0031483202   0.0181280793   3.7300974236
	    H    -0.1411791802  -2.1455555359   2.5131989912
	    H    -0.1319821652  -2.1900467511   0.0600084324
	    N    -0.7177359235  -0.9393709239  -2.3258599285
	    N     0.5824427156   0.9495382242  -2.3078144954
	    H     0.5274697250   0.9842759290  -3.3226428659
	    H     1.0695861585   1.7197006234  -1.8404165855
	    H    -0.6758598844  -1.9292968166  -2.1227665691
	    H    -1.0262494075  -0.6956049276  -3.3153764953
			--------------------------
			 OPTKING Finished Execution 
			--------------------------

    Structure for next step:
    Molecular point group: c1
    Full point group: C1

    Geometry (in Angstrom), charge = 1, multiplicity = 1:

    C            0.048632419733    -0.030009307600    -0.152228913700
    C            0.142543986240     1.194313928215     0.543733522452
    C            0.112687853548     1.204524534033     1.934879603132
    C            0.019718929898     0.004679870705     2.644606372042
    C           -0.067630577441    -1.213347192981     1.961304080269
    C           -0.067367159662    -1.232842824357     0.572427854857
    C            0.028212159229    -0.044219614412    -1.623212629952
    H            0.163787417607     2.141845461588     0.013373788317
    H            0.152560612415     2.151254243931     2.464246415051
    H            0.003148320188     0.018128079335     3.730097423626
    H           -0.141179180249    -2.145555535921     2.513198991181
    H           -0.131982165166    -2.190046751076     0.060008432405
    N           -0.717735923528    -0.939370923868    -2.325859928457
    N            0.582442715637     0.949538224211    -2.307814495418
    H            0.527469725020     0.984275929013    -3.322642865878
    H            1.069586158480     1.719700623358    -1.840416585509
    H           -0.675859884443    -1.929296816611    -2.122766569104
    H           -1.026249407505    -0.695604927563    -3.315376495315

gradient() will perform analytic gradient computation.

*** tstart() called on arancio.prib.upf.edu
*** at Sat Sep 29 20:28:33 2018

   => Loading Basis Set <=

    Name: 6-31G*
    Role: ORBITAL
    Keyword: BASIS
    atoms 1-7         entry C          line   111 file /shared/joao/test_parameterize/miniconda3/share/psi4/basis/6-31gs.gbs 
    atoms 8-12, 15-18 entry H          line    44 file /shared/joao/test_parameterize/miniconda3/share/psi4/basis/6-31gs.gbs 
    atoms 13-14       entry N          line   128 file /shared/joao/test_parameterize/miniconda3/share/psi4/basis/6-31gs.gbs 


[...]
	 R(6,Z)           =         1.042661	       0.551753
	 R(7,X)           =        -0.015277	      -0.008084
	 R(7,Y)           =        -0.042780	      -0.022638
	 R(7,Z)           =        -3.084756	      -1.632383
	 R(8,X)           =         0.337970	       0.178846
	 R(8,Y)           =         4.064809	       2.151004
	 R(8,Z)           =         0.039080	       0.020681
	 R(9,X)           =         0.408842	       0.216350
	 R(9,Y)           =         4.041078	       2.138446
	 R(9,Z)           =         4.662898	       2.467499
	 R(10,X)          =         0.070669	       0.037397
	 R(10,Y)          =        -0.002912	      -0.001541
	 R(10,Z)          =         7.027200	       3.718634
	 R(11,X)          =        -0.322387	      -0.170600
	 R(11,Y)          =        -4.062746	      -2.149913
	 R(11,Z)          =         4.696649	       2.485359
	 R(12,X)          =        -0.350718	      -0.185592
	 R(12,Y)          =        -4.109445	      -2.174625
	 R(12,Z)          =         0.069468	       0.036761
	 R(13,X)          =        -1.438274	      -0.761102
	 R(13,Y)          =        -1.754921	      -0.928664
	 R(13,Z)          =        -4.336310	      -2.294676
	 R(14,X)          =         1.004757	       0.531694
	 R(14,Y)          =         1.852943	       0.980535
	 R(14,Z)          =        -4.369737	      -2.312365
	 R(15,X)          =         0.891085	       0.471542
	 R(15,Y)          =         1.988790	       1.052422
	 R(15,Z)          =        -6.276739	      -3.321507
	 R(16,X)          =         1.962944	       1.038745
	 R(16,Y)          =         3.241683	       1.715425
	 R(16,Z)          =        -3.471598	      -1.837091
	 R(17,X)          =        -1.270313	      -0.672221
	 R(17,Y)          =        -3.598717	      -1.904359
	 R(17,Z)          =        -3.834426	      -2.029091
	 R(18,X)          =        -1.480577	      -0.783488
	 R(18,Y)          =        -1.602500	      -0.848007
	 R(18,Z)          =        -6.252186	      -3.308514

	Current energy   :      -381.4579423355

	Generating empirical Hessian (Schlegel '84) for each fragment.
	Taking RFO optimization step.
	Going to follow RFO solution 1.
	Using RFO vector 1.
	Norm of target step-size    0.00383
	Projected energy change by RFO approximation:        -0.0000010257

	Back-transformation to cartesian coordinates...
	Successfully converged to displaced geometry.

	Back-transformation to cartesian coordinates to adjust frozen coordinates...
	Successfully converged to displaced geometry.

	--- Internal Coordinate Step in ANG or DEG, aJ/ANG or AJ/DEG ---
	 ---------------------------------------------------------------------------
	   Coordinate                Previous        Force       Change         New 
	   ----------                --------       ------       ------       ------
	    1 R(1,2)          =      1.408949    -0.000004     0.000015     1.408964
	    2 R(1,6)          =      1.408446    -0.000076    -0.000029     1.408418
	    3 R(1,7)          =      1.468184    -0.000001     0.000004     1.468188
	    4 R(2,3)          =      1.390547     0.000234     0.000055     1.390602
	    5 R(2,8)          =      1.086160    -0.000113    -0.000014     1.086146
	    6 R(3,4)          =      1.397633    -0.000096    -0.000011     1.397622
	    7 R(3,9)          =      1.085084    -0.000066    -0.000013     1.085071
	    8 R(4,5)          =      1.397943     0.000142     0.000031     1.397974
	    9 R(4,10)         =      1.085578    -0.000052    -0.000005     1.085573
	   10 R(5,6)          =      1.389872    -0.000003    -0.000002     1.389870
	   11 R(5,11)         =      1.085021     0.000058     0.000012     1.085033
	   12 R(6,12)         =      1.086147     0.000130     0.000031     1.086178
	   13 R(7,13)         =      1.351499    -0.000282    -0.000019     1.351480
	   14 R(7,14)         =      1.326686     0.000636     0.000095     1.326781
	   15 R(13,17)        =      1.015094    -0.000032     0.000015     1.015110
	   16 R(13,18)        =      1.017288     0.000165     0.000047     1.017335
	   17 R(14,15)        =      1.013486     0.000089     0.000016     1.013502
	   18 R(14,16)        =      1.011459     0.000047     0.000027     1.011486
	   19 B(1,2,3)        =    120.025039    -0.000002    -0.006690   120.018349
	   20 B(1,2,8)        =    121.233736    -0.000002    -0.011650   121.222086
	   21 B(1,6,5)        =    120.198641    -0.000001    -0.002797   120.195844
	   22 B(1,6,12)       =    121.129585     0.000001     0.005646   121.135231
	   23 B(1,7,13)       =    120.077741     0.000006     0.030411   120.108152
	   24 B(1,7,14)       =    120.189345    -0.000006    -0.033307   120.156038
	   25 B(2,1,6)        =    119.403591     0.000002     0.006231   119.409822
	   26 B(2,1,7)        =    120.427004     0.000002     0.005030   120.432034
	   27 B(2,3,4)        =    120.144561     0.000001     0.003871   120.148432
	   28 B(2,3,9)        =    119.597727    -0.000001    -0.003516   119.594211
	   29 B(3,2,8)        =    118.623874     0.000003     0.019402   118.643275
	   30 B(3,4,5)        =    120.211582    -0.000001    -0.002864   120.208718
	   31 B(3,4,10)       =    119.887347     0.000001     0.003278   119.890624
	   32 B(4,3,9)        =    120.255107     0.000000    -0.000367   120.254739
	   33 B(4,5,6)        =    120.008871     0.000000     0.002475   120.011346
	   34 B(4,5,11)       =    120.261331     0.000000     0.001575   120.262907
	   35 B(5,4,10)       =    119.900206    -0.000000    -0.000395   119.899811
	   36 B(5,6,12)       =    118.648968    -0.000001    -0.002920   118.646048
	   37 B(6,1,7)        =    120.168316    -0.000004    -0.011702   120.156614
	   38 B(6,5,11)       =    119.729740    -0.000000    -0.004058   119.725682
	   39 B(7,13,17)      =    117.863543    -0.000005    -0.035268   117.828276
	   40 B(7,13,18)      =    116.582771    -0.000002    -0.021351   116.561420
	   41 B(7,14,15)      =    122.672172    -0.000002    -0.008504   122.663668
	   42 B(7,14,16)      =    120.831529     0.000002     0.010612   120.842141
	   43 B(13,7,14)      =    118.844649     0.000001     0.006507   118.851156
	   44 B(15,14,16)     =    116.493381     0.000000    -0.002049   116.491332
	   45 B(17,13,18)     =    109.808948     0.000003     0.000489   109.809436
	   46 D(1,2,3,4)      =      0.960603    -0.000000    -0.026564     0.934039
	   47 D(1,2,3,9)      =   -178.453698    -0.000000    -0.025230  -178.478927
	   48 D(1,6,5,4)      =      0.637475    -0.000000     0.004542     0.642016
	   49 D(1,6,5,11)     =   -179.275352    -0.000000     0.009979  -179.265372
	   50 *D(1,7,13,17)   =    -50.000008    -0.000000     0.000000   -50.000008
	   51 D(1,7,13,18)    =    176.118269     0.000001     0.067446   176.185715
	   52 D(1,7,14,15)    =   -174.758482    -0.000000    -0.018108  -174.776590
	   53 D(1,7,14,16)    =      5.884970    -0.000000    -0.024673     5.860298
	   54 D(2,1,6,5)      =     -0.312553    -0.000000    -0.027334    -0.339888
	   55 D(2,1,6,12)     =   -178.551884    -0.000000    -0.024556  -178.576440
	   56 D(2,1,7,13)     =   -146.178841     0.000001     0.042529  -146.136313
	   57 D(2,1,7,14)     =     22.910353     0.000001     0.065217    22.975570
	   58 D(2,3,4,5)      =     -0.637439     0.000000     0.003460    -0.633979
	   59 D(2,3,4,10)     =    179.701260     0.000000    -0.000244   179.701016
	   60 D(3,2,1,6)      =     -0.487506     0.000000     0.038369    -0.449137
	   61 D(3,2,1,7)      =    179.133329    -0.000001    -0.031825   179.101504
	   62 D(3,4,5,6)      =     -0.165769     0.000000     0.007571    -0.158198
	   63 D(3,4,5,11)     =    179.746589     0.000000     0.002099   179.748688
	   64 D(4,3,2,8)      =    177.071398    -0.000000    -0.009412   177.061986
	   65 D(4,5,6,12)     =    178.920101     0.000000     0.001982   178.922083
	   66 D(5,4,3,9)      =    178.772981    -0.000000     0.002098   178.775079
	   67 D(5,6,1,7)      =   -179.934387     0.000001     0.042598  -179.891789
	   68 D(6,1,2,8)      =   -176.494774     0.000000     0.019531  -176.475242
	   69 D(6,1,7,13)     =     33.439085    -0.000000    -0.028121    33.410964
	   70 D(6,1,7,14)     =   -157.471721     0.000000    -0.005433  -157.477154
	   71 D(6,5,4,10)     =    179.495488     0.000000     0.011288   179.506776
	   72 D(7,1,2,8)      =      3.126061    -0.000001    -0.050662     3.075399
	   73 D(7,1,6,12)     =      1.826282     0.000001     0.045376     1.871659
	   74 D(8,2,3,9)      =     -2.342903    -0.000000    -0.008077    -2.350980
	   75 D(9,3,4,10)     =     -0.888320    -0.000000    -0.001606    -0.889926
	   76 D(10,4,5,11)    =     -0.592153     0.000000     0.005816    -0.586338
	   77 D(11,5,6,12)    =     -0.992726     0.000000     0.007419    -0.985306
	   78 D(13,7,14,15)   =     -5.535853     0.000000     0.006963    -5.528891
	   79 D(13,7,14,16)   =    175.107599     0.000000     0.000398   175.107997
	   80 D(14,7,13,17)   =    140.765040     0.000000    -0.018023   140.747016
	   81 D(14,7,13,18)   =      6.883316     0.000001     0.049423     6.932739
	   82 R(1,X)          =      0.011689     0.000181     0.000441     0.012130
	   83 R(1,Y)          =     -0.014582     0.000116    -0.000018    -0.014600
	   84 R(1,Z)          =     -0.164354     0.000102     0.000017    -0.164337
	   85 R(2,X)          =      0.141585     0.000051    -0.000040     0.141545
	   86 R(2,Y)          =      1.198238     0.000269     0.000097     1.198335
	   87 R(2,Z)          =      0.540865    -0.000146    -0.000063     0.540802
	   88 R(3,X)          =      0.141233     0.000071     0.000008     0.141241
	   89 R(3,Y)          =      1.198035     0.000028     0.000028     1.198063
	   90 R(3,Z)          =      1.931412     0.000088    -0.000009     1.931403
	   91 R(4,X)          =      0.032346     0.000061    -0.000010     0.032336
	   92 R(4,Y)          =     -0.005788     0.000140     0.000055    -0.005734
	   93 R(4,Z)          =      2.633076     0.000086     0.000012     2.633088
	   94 R(5,X)          =     -0.090141     0.000067    -0.000012    -0.090153
	   95 R(5,Y)          =     -1.214491     0.000081     0.000047    -1.214444
	   96 R(5,Z)          =      1.941500    -0.000099    -0.000038     1.941462
	   97 R(6,X)          =     -0.107415     0.000175     0.000163    -0.107252
	   98 R(6,Y)          =     -1.221531     0.000087     0.000010    -1.221521
	   99 R(6,Z)          =      0.551753    -0.000097    -0.000038     0.551715
	  100 R(7,X)          =     -0.008084    -0.000621    -0.000336    -0.008421
	  101 R(7,Y)          =     -0.022638    -0.000704    -0.000184    -0.022822
	  102 R(7,Z)          =     -1.632383     0.000118     0.000025    -1.632358
	  103 R(8,X)          =      0.178846    -0.000206    -0.000185     0.178661
	  104 R(8,Y)          =      2.151004    -0.000100    -0.000061     2.150943
	  105 R(8,Z)          =      0.020681    -0.000604    -0.000334     0.020347
	  106 R(9,X)          =      0.216350     0.000044     0.000042     0.216392
	  107 R(9,Y)          =      2.138446     0.000013     0.000022     2.138469
	  108 R(9,Z)          =      2.467499    -0.000016    -0.000029     2.467470
	  109 R(10,X)         =      0.037397     0.000036     0.000032     0.037429
	  110 R(10,Y)         =     -0.001541     0.000021     0.000012    -0.001530
	  111 R(10,Z)         =      3.718634     0.000035     0.000007     3.718641
	  112 R(11,X)         =     -0.170600    -0.000028    -0.000066    -0.170666
	  113 R(11,Y)         =     -2.149913    -0.000015     0.000011    -2.149901
	  114 R(11,Z)         =      2.485359    -0.000162    -0.000084     2.485275
	  115 R(12,X)         =     -0.185592     0.000119     0.000122    -0.185470
	  116 R(12,Y)         =     -2.174625    -0.000100    -0.000050    -2.174674
	  117 R(12,Z)         =      0.036761    -0.000017     0.000013     0.036774
	  118 R(13,X)         =     -0.761102    -0.000510    -0.000491    -0.761592
	  119 R(13,Y)         =     -0.928664    -0.000119     0.000056    -0.928608
	  120 R(13,Z)         =     -2.294676    -0.000232    -0.000090    -2.294766
	  121 R(14,X)         =      0.531694     0.000020    -0.000026     0.531669
	  122 R(14,Y)         =      0.980535    -0.000011    -0.000084     0.980452
	  123 R(14,Z)         =     -2.312365     0.000407     0.000234    -2.312131
	  124 R(15,X)         =      0.471542    -0.000081    -0.000095     0.471447
	  125 R(15,Y)         =      1.052422     0.000141     0.000071     1.052494
	  126 R(15,Z)         =     -3.321507     0.000335     0.000233    -3.321274
	  127 R(16,X)         =      1.038745     0.000256     0.000144     1.038890
	  128 R(16,Y)         =      1.715425    -0.000159    -0.000194     1.715231
	  129 R(16,Z)         =     -1.837091     0.000484     0.000280    -1.836810
	  130 R(17,X)         =     -0.672221    -0.000076    -0.000057    -0.672277
	  131 R(17,Y)         =     -1.904359     0.000056     0.000116    -1.904244
	  132 R(17,Z)         =     -2.029091     0.000141     0.000041    -2.029050
	  133 R(18,X)         =     -0.783488     0.000489     0.000396    -0.783092
	  134 R(18,Y)         =     -0.848007     0.000167     0.000008    -0.847999
	  135 R(18,Z)         =     -3.308514    -0.000398    -0.000160    -3.308675
	 ---------------------------------------------------------------------------
	Successfully symmetrized geometry.

  ==> Convergence Check <==

  Measures of convergence in internal coordinates in au.
  Criteria marked as inactive (o), active & met (*), and active & unmet ( ).
  --------------------------------------------------------------------------------------------- ~
   Step     Total Energy     Delta E     MAX Force     RMS Force      MAX Disp      RMS Disp    ~
  --------------------------------------------------------------------------------------------- ~
    Convergence Criteria    1.00e-06 *    3.00e-04 *             o    1.20e-03 *             o  ~
  --------------------------------------------------------------------------------------------- ~
      1    -381.45794234   -3.81e+02      8.54e-05 *    2.69e-05 o    1.18e-03 *    3.29e-04 o  ~
  ---------------------------------------------------------------------------------------------


  **** Optimization is complete! (in 1 steps) ****

  ==> Optimization Summary <==

  Measures of convergence in internal coordinates in au.
  --------------------------------------------------------------------------------------------------------------- ~
   Step         Total Energy             Delta E       MAX Force       RMS Force        MAX Disp        RMS Disp  ~
  --------------------------------------------------------------------------------------------------------------- ~
      1    -381.457942335453   -381.457942335453      0.00008543      0.00002693      0.00117716      0.00032926  ~
  --------------------------------------------------------------------------------------------------------------- ~

	Writing optimization data to binary file.
	Final energy is   -381.4579423354530
	Final (previous) structure:
	Cartesian Geometry (in Angstrom)
	    C     0.0116893381  -0.0145818027  -0.1643537030
	    C     0.1415853718   1.1982382055   0.5408647805
	    C     0.1412331584   1.1980345002   1.9314116544
	    C     0.0323463344  -0.0057880058   2.6330758221
	    C    -0.0901414059  -1.2144908965   1.9414998040
	    C    -0.1074149299  -1.2215312843   0.5517525427
	    C    -0.0080844724  -0.0226383722  -1.6323826393
	    H     0.1788459379   2.1510044541   0.0206805086
	    H     0.2163501244   2.1384464419   2.4674994560
	    H     0.0373966484  -0.0015411858   3.7186338512
	    H    -0.1705998329  -2.1499127838   2.4853593679
	    H    -0.1855917101  -2.1746248742   0.0367611324
	    N    -0.7611015701  -0.9286640280  -2.2946761746
	    N     0.5316944696   0.9805353027  -2.3123654627
	    H     0.4715419988   1.0524222369  -3.3215071283
	    H     1.0387452169   1.7154249901  -1.8370906344
	    H    -0.6722208812  -1.9043592466  -2.0290910189
	    H    -0.7834877960  -0.8480066514  -3.3085141587
	Saving final (previous) structure.
	Removing binary optimization data file.
			--------------------------
			 OPTKING Finished Execution 
			--------------------------

    Final optimized geometry and variables:
    Molecular point group: c1
    Full point group: C1

    Geometry (in Angstrom), charge = 1, multiplicity = 1:

    C            0.011689338071    -0.014581802747    -0.164353703030
    C            0.141585371752     1.198238205486     0.540864780520
    C            0.141233158362     1.198034500219     1.931411654377
    C            0.032346334376    -0.005788005791     2.633075822070
    C           -0.090141405873    -1.214490896542     1.941499804030
    C           -0.107414929877    -1.221531284333     0.551752542708
    C           -0.008084472377    -0.022638372247    -1.632382639295
    H            0.178845937878     2.151004454081     0.020680508643
    H            0.216350124380     2.138446441931     2.467499455992
    H            0.037396648366    -0.001541185760     3.718633851248
    H           -0.170599832942    -2.149912783810     2.485359367896
    H           -0.185591710139    -2.174624874159     0.036761132426
    N           -0.761101570138    -0.928664027986    -2.294676174608
    N            0.531694469615     0.980535302710    -2.312365462698
    H            0.471541998850     1.052422236892    -3.321507128317
    H            1.038745216941     1.715424990101    -1.837090634400
    H           -0.672220881198    -1.904359246630    -2.029091018902
    H           -0.783487796046    -0.848006651414    -3.308514158660

	Removing binary optimization data file.
	Cleaning optimization helper files.


Properties will be evaluated at   0.000000,   0.000000,   0.000000 [a0]
OEProp: No title given, name of density matrix used for the following properties is 'SCF density'
  Nuclear Dipole Moment: [e a0]
     X:    -1.4127      Y:    -0.2921      Z:     1.5017

  Electronic Dipole Moment: [e a0]
     X:     1.7278      Y:     0.3130      Z:    -3.7411

  Dipole Moment: [e a0]
     X:     0.3151      Y:     0.0209      Z:    -2.2394     Total:     2.2615

  Dipole Moment: [D]
     X:     0.8008      Y:     0.0530      Z:    -5.6920     Total:     5.7483

  Quadrupole Moment: [D A]
    XX:   -53.5691     YY:   -34.8544     ZZ:   -12.2617
    XY:     4.8973     XZ:    -0.7400     YZ:    -0.2472

  Traceless Quadrupole Moment: [D A]
    XX:   -20.0074     YY:    -1.2927     ZZ:    21.3000
    XY:     4.8973     XZ:    -0.7400     YZ:    -0.2472

  Mulliken Charges: (a.u.)
   Center  Symbol    Alpha    Beta     Spin     Total
       1     C     2.92632  2.92632  0.00000  0.14735
       2     C     3.08532  3.08532  0.00000 -0.17063
       3     C     3.06162  3.06162  0.00000 -0.12324
       4     C     3.05126  3.05126  0.00000 -0.10253
       5     C     3.06254  3.06254  0.00000 -0.12507
       6     C     3.08155  3.08155  0.00000 -0.16310
       7     C     2.75130  2.75130  0.00000  0.49739
       8     H     0.41836  0.41836  0.00000  0.16328
       9     H     0.40502  0.40502  0.00000  0.18996
      10     H     0.40306  0.40306  0.00000  0.19388
      11     H     0.40490  0.40490  0.00000  0.19020
      12     H     0.42144  0.42144  0.00000  0.15712
      13     N     3.84733  3.84733  0.00000 -0.69466
      14     N     3.85994  3.85994  0.00000 -0.71987
      15     H     0.30404  0.30404  0.00000  0.39191
      16     H     0.29849  0.29849  0.00000  0.40302
      17     H     0.30326  0.30326  0.00000  0.39348
      18     H     0.31425  0.31425  0.00000  0.37150

   Total alpha = 32.00000, Total beta = 32.00000, Total charge =  1.00000


    Psi4 stopped on: Saturday, 29 September 2018 08:36PM
    Psi4 wall time for execution: 0:08:50.68

*** Psi4 exiting successfully. Buy a developer a beer!
