
    -----------------------------------------------------------------------
          Psi4: An Open-Source Ab Initio Electronic Structure Package
                               Psi4 1.2.1 release

                         Git: Rev {HEAD} 406f4de 


    R. M. Parrish, L. A. Burns, D. G. A. Smith, A. C. Simmonett,
    A. E. DePrince III, E. G. Hohenstein, U. Bozkaya, A. Yu. Sokolov,
    R. Di Remigio, R. M. Richard, J. F. Gonthier, A. M. James,
    H. R. McAlexander, A. Kumar, M. Saitow, X. Wang, B. P. Pritchard,
    P. Verma, H. F. Schaefer III, K. Patkowski, R. A. King, E. F. Valeev,
    F. A. Evangelista, J. M. Turney, T. D. Crawford, and C. D. Sherrill,
    J. Chem. Theory Comput. 13(7) pp 3185--3197 (2017).
    (doi: 10.1021/acs.jctc.7b00174)


                         Additional Contributions by
    P. Kraus, H. Kruse, M. H. Lechner, M. C. Schieber, and R. A. Shaw

    -----------------------------------------------------------------------


    Psi4 started on: Saturday, 29 September 2018 08:24PM

    Process ID: 23357
    Host:       oliva.prib.upf.edu
    PSIDATADIR: /shared/joao/test_parameterize/miniconda3/share/psi4
    Memory:     500.0 MiB
    Threads:    1
    
  ==> Input File <==

--------------------------------------------------------------------------
set_num_threads(4)
set_memory('3000 MB')

set { scf_mem_safety_factor 0.7 }

set { reference rks }
set { basis 6-31G* }

molecule MOL {
    1 1
    noreorient
    nocom
    symmetry c1
    C   -0.000000  -0.000000  -0.177864
    C    0.036678   1.219374   0.524165
    C    0.031765   1.213120   1.915444
    C    0.000000   0.000000   2.610107
    C   -0.031765  -1.213120   1.915444
    C   -0.036678  -1.219375   0.524165
    C   -0.000000   0.000000  -1.644734
    H    0.018170   2.164705  -0.010854
    H    0.042402   2.152895   2.457886
    H    0.000000   0.000000   3.695756
    H   -0.042402  -2.152895   2.457886
    H   -0.018170  -2.164705  -0.010853
    N   -0.712590  -0.905950  -2.308461
    N    0.712590   0.905950  -2.308460
    H    0.673432   1.006470  -3.315997
    H    1.377190   1.485970  -1.813316
    H   -0.256768  -1.723526  -2.691971
    H   -1.720586  -0.854981  -2.398525
}

set optking { frozen_dihedral = (" 1 7 13 17 ") }

set optking { dynamic_level = 1 
 geom_maxiter = 250
 print_trajectory_xyz_file = True }

energy, wfn = optimize('B3LYP-D3', return_wfn=True)

import os
os.chdir(os.environ['HTMD_PSI4_WORKDIR'])

oeprop(wfn, 'DIPOLE', 'QUADRUPOLE', 'MULLIKEN_CHARGES')

with open('psi4out.xyz', 'w') as f:
    f.write('18 ' )
    f.write('%.12f\n' % energy)
    f.write(MOL.save_string_xyz())
--------------------------------------------------------------------------
  Threads set to 4 by Python driver.

  Memory set to   2.794 GiB by Python driver.
gradient() will perform analytic gradient computation.

*** tstart() called on oliva.prib.upf.edu
*** at Sat Sep 29 20:24:39 2018

   => Loading Basis Set <=

    Name: 6-31G*
    Role: ORBITAL
    Keyword: BASIS
    atoms 1-7         entry C          line   111 file /shared/joao/test_parameterize/miniconda3/share/psi4/basis/6-31gs.gbs 
    atoms 8-12, 15-18 entry H          line    44 file /shared/joao/test_parameterize/miniconda3/share/psi4/basis/6-31gs.gbs 
    atoms 13-14       entry N          line   128 file /shared/joao/test_parameterize/miniconda3/share/psi4/basis/6-31gs.gbs 


         ---------------------------------------------------------
                                   SCF
            by Justin Turney, Rob Parrish, Andy Simmonett
                             and Daniel Smith
                              RKS Reference
                        4 Threads,   2861 MiB Core
         ---------------------------------------------------------

  ==> Geometry <==

    Molecular point group: c1
    Full point group: C1

    Geometry (in Angstrom), charge = 1, multiplicity = 1:

       Center              X                  Y                   Z               Mass       
    ------------   -----------------  -----------------  -----------------  -----------------
         C            0.000000000000     0.000000000000    -0.177864000000    12.000000000000
         C            0.036678000000     1.219374000000     0.524165000000    12.000000000000
         C            0.031765000000     1.213120000000     1.915444000000    12.000000000000
         C            0.000000000000     0.000000000000     2.610107000000    12.000000000000
         C           -0.031765000000    -1.213120000000     1.915444000000    12.000000000000
         C           -0.036678000000    -1.219375000000     0.524165000000    12.000000000000
         C            0.000000000000     0.000000000000    -1.644734000000    12.000000000000
         H            0.018170000000     2.164705000000    -0.010854000000     1.007825032070
         H            0.042402000000     2.152895000000     2.457886000000     1.007825032070
         H            0.000000000000     0.000000000000     3.695756000000     1.007825032070
         H           -0.042402000000    -2.152895000000     2.457886000000     1.007825032070
         H           -0.018170000000    -2.164705000000    -0.010853000000     1.007825032070
         N           -0.712590000000    -0.905950000000    -2.308461000000    14.003074004780
         N            0.712590000000     0.905950000000    -2.308460000000    14.003074004780
         H            0.673432000000     1.006470000000    -3.315997000000     1.007825032070
         H            1.377190000000     1.485970000000    -1.813316000000     1.007825032070
         H           -0.256768000000    -1.723526000000    -2.691971000000     1.007825032070
         H           -1.720586000000    -0.854981000000    -2.398525000000     1.007825032070

  Running in c1 symmetry.

  Rotational constants: A =      0.12088  B =      0.03960  C =      0.03136 [cm^-1]
  Rotational constants: A =   3623.98058  B =   1187.11044  C =    940.08824 [MHz]
  Nuclear repulsion =  416.629295870469718

  Charge       = 1
  Multiplicity = 1
  Electrons    = 64
  Nalpha       = 32
  Nbeta        = 32

  ==> Algorithm <==

  SCF Algorithm Type is DF.
  DIIS enabled.
  MOM disabled.
  Fractional occupation disabled.
  Guess Type is SAD.
  Energy threshold   = 1.00e-08
  Density threshold  = 1.00e-08
  Integral threshold = 0.00e+00

  ==> Primary Basis <==

  Basis Set: 6-31G*
    Blend: 6-31G*
    Number of shells: 72
    Number of basis function: 153
    Number of Cartesian functions: 153
    Spherical Harmonics?: false
    Max angular momentum: 2

  ==> DFT Potential <==

   => Composite Functional: B3LYP-D3ZERO <= 

    B3LYP-d3zero Hyb-GGA Exchange-Correlation Functional

    P. J. Stephens, F. J. Devlin, C. F. Chabalowski, and M. J. Frisch, J. Phys. Chem. 98, 11623 (1994)

    Deriv               =              1
    GGA                 =           TRUE
    Meta                =          FALSE

    Exchange Hybrid     =           TRUE
    MP2 Hybrid          =          FALSE

   => Exchange Functionals <=

    0.0800   Slater exchange
    0.7200         Becke 88

   => Exact (HF) Exchange <=

    0.2000               HF 

   => Correlation Functionals <=

    0.1900   Vosko, Wilk & Nusair (VWN5_RPA)
    0.8100   Lee, Yang & Parr

   => Molecular Quadrature <=

    Radial Scheme       =       TREUTLER
    Pruning Scheme      =           FLAT
    Nuclear Scheme      =       TREUTLER

    BS radius alpha     =              1
    Pruning alpha       =              1
    Radial Points       =             75
    Spherical Points    =            302
    Total Points        =         397104
    Total Blocks        =           3003
    Max Points          =            256
    Max Functions       =            149

   => -D3ZERO: Empirical Dispersion <=

    Grimme's -D3 (zero-damping) Dispersion Correction
    Grimme S.; Antony J.; Ehrlich S.; Krieg H. (2010), J. Chem. Phys., 132: 154104

        S6 =   1.000000E+00
        S8 =   1.703000E+00
       SR6 =   1.261000E+00
       SR8 =   1.000000E+00
    ALPHA6 =   1.400000E+01

   => Loading Basis Set <=

    Name: (6-31G* AUX)
    Role: JKFIT
    Keyword: DF_BASIS_SCF
    atoms 1-7         entry C          line   121 file /shared/joao/test_parameterize/miniconda3/share/psi4/basis/cc-pvdz-jkfit.gbs 
    atoms 8-12, 15-18 entry H          line    51 file /shared/joao/test_parameterize/miniconda3/share/psi4/basis/cc-pvdz-jkfit.gbs 
    atoms 13-14       entry N          line   171 file /shared/joao/test_parameterize/miniconda3/share/psi4/basis/cc-pvdz-jkfit.gbs 

  ==> Pre-Iterations <==

   -------------------------------------------------------
    Irrep   Nso     Nmo     Nalpha   Nbeta   Ndocc  Nsocc
   -------------------------------------------------------
     A        153     153       0       0       0       0
   -------------------------------------------------------
    Total     153     153      32      32      32       0
   -------------------------------------------------------

  ==> Integral Setup <==

  ==> DiskDFJK: Density-Fitted J/K Matrices <==

    J tasked:                  Yes
    K tasked:                  Yes
    wK tasked:                  No
    OpenMP threads:              4
    Integrals threads:           4
    Memory (MB):              2002
    Algorithm:                Core
    Integral Cache:           NONE
    Schwarz Cutoff:          1E-12
    Fitting Condition:       1E-12

   => Auxiliary Basis Set <=

  Basis Set: (6-31G* AUX)
    Blend: CC-PVDZ-JKFIT
    Number of shells: 297
    Number of basis function: 954
    Number of Cartesian functions: 954
    Spherical Harmonics?: false
    Max angular momentum: 3

  Minimum eigenvalue in the overlap matrix is 4.8689887433E-04.
  Using Symmetric Orthogonalization.

  SCF Guess: Superposition of Atomic Densities via on-the-fly atomic UHF.

  ==> Iterations <==

                           Total Energy        Delta E     RMS |[F,P]|

   @DF-RKS iter   0:  -379.61146113748049   -3.79611e+02   6.64425e-02 
   @DF-RKS iter   1:  -380.97881149324661   -1.36735e+00   1.22939e-02 
   @DF-RKS iter   2:  -380.75103559338584    2.27776e-01   1.46486e-02 DIIS
   @DF-RKS iter   3:  -381.40113795964021   -6.50102e-01   2.26059e-03 DIIS
   @DF-RKS iter   4:  -381.42903919299584   -2.79012e-02   9.52588e-04 DIIS
   @DF-RKS iter   5:  -381.43103419530382   -1.99500e-03   4.27905e-04 DIIS
   @DF-RKS iter   6:  -381.43154617673997   -5.11981e-04   1.20086e-04 DIIS
   @DF-RKS iter   7:  -381.43158494237292   -3.87656e-05   3.95617e-05 DIIS
   @DF-RKS iter   8:  -381.43158935411219   -4.41174e-06   8.54997e-06 DIIS
   @DF-RKS iter   9:  -381.43158953120883   -1.77097e-07   5.20864e-06 DIIS
   @DF-RKS iter  10:  -381.43158961079087   -7.95820e-08   7.63195e-07 DIIS
   @DF-RKS iter  11:  -381.43158961199441   -1.20355e-09   3.41621e-07 DIIS
   @DF-RKS iter  12:  -381.43158961274901   -7.54596e-10   9.20468e-08 DIIS
   @DF-RKS iter  13:  -381.43158961277800   -2.89901e-11   3.01871e-08 DIIS
   @DF-RKS iter  14:  -381.43158961278084   -2.84217e-12   1.15713e-08 DIIS
   @DF-RKS iter  15:  -381.43158961278044    3.97904e-13   3.57748e-09 DIIS

  ==> Post-Iterations <==

    Orbital Energies [Eh]
    ---------------------

    Doubly Occupied:                                                      

       1A    -14.584373     2A    -14.518467     3A    -10.497940  
       4A    -10.370907     5A    -10.359175     6A    -10.358029  
       7A    -10.349060     8A    -10.343214     9A    -10.342422  
      10A     -1.176963    11A     -1.079084    12A     -1.015530  
      13A     -0.925339    14A     -0.904102    15A     -0.841199  
      16A     -0.777402    17A     -0.768002    18A     -0.741052  
      19A     -0.716146    20A     -0.709289    21A     -0.671733  
      22A     -0.628957    23A     -0.607026    24A     -0.585403  
      25A     -0.578339    26A     -0.552907    27A     -0.519092  
      28A     -0.509022    29A     -0.499831    30A     -0.440811  
      31A     -0.415541    32A     -0.407282  

    Virtual:                                                              

      33A     -0.252473    34A     -0.157114    35A     -0.142166  
      36A     -0.096451    37A     -0.072320    38A     -0.048073  
      39A     -0.037350    40A     -0.005801    41A      0.005333  
      42A      0.010559    43A      0.022993    44A      0.056197  
      45A      0.061057    46A      0.094699    47A      0.132712  
      48A      0.138211    49A      0.155679    50A      0.161186  
      51A      0.210775    52A      0.240400    53A      0.299434  
      54A      0.354039    55A      0.362105    56A      0.380601  
      57A      0.394219    58A      0.402042    59A      0.414591  
      60A      0.422732    61A      0.439998    62A      0.448459  
      63A      0.454588    64A      0.469188    65A      0.471120  
      66A      0.482220    67A      0.488992    68A      0.507631  
      69A      0.531367    70A      0.543169    71A      0.551051  
      72A      0.577733    73A      0.623012    74A      0.630567  
      75A      0.667112    76A      0.684817    77A      0.688868  
      78A      0.701983    79A      0.715257    80A      0.722972  
      81A      0.737999    82A      0.748294    83A      0.770592  
      84A      0.775493    85A      0.808200    86A      0.825250  
      87A      0.849924    88A      0.899931    89A      0.951438  
      90A      0.961676    91A      0.987071    92A      1.016076  
      93A      1.044965    94A      1.082021    95A      1.138752  
      96A      1.152304    97A      1.247510    98A      1.273431  
      99A      1.279791   100A      1.307875   101A      1.320786  
     102A      1.339601   103A      1.358164   104A      1.380531  
     105A      1.435325   106A      1.499888   107A      1.534653  
     108A      1.551212   109A      1.625624   110A      1.665284  
     111A      1.711111   112A      1.721223   113A      1.749589  
     114A      1.772283   115A      1.806022   116A      1.827171  
     117A      1.892715   118A      1.952718   119A      1.965357  
     120A      1.975320   121A      1.995761   122A      2.017152  
     123A      2.024019   124A      2.047931   125A      2.115469  
     126A      2.128776   127A      2.151668   128A      2.194461  
     129A      2.227153   130A      2.331769   131A      2.368027  
     132A      2.414492   133A      2.446685   134A      2.462596  
     135A      2.484398   136A      2.512645   137A      2.555833  
     138A      2.582415   139A      2.597281   140A      2.624712  
     141A      2.733819   142A      2.837927   143A      2.979572  
     144A      3.255683   145A      3.619055   146A      3.703114  
     147A      3.911562   148A      3.943786   149A      3.961690  
     150A      4.042029   151A      4.171276   152A      4.249801  
     153A      4.543902  

    Final Occupation by Irrep:
              A 
    DOCC [    32 ]

  Energy converged.

  @DF-RKS Final Energy:  -381.43158961278044

   => Energetics <=

    Nuclear Repulsion Energy =            416.6292958704697185
    One-Electron Energy =               -1328.5831711638438719
    Two-Electron Energy =                 574.9450447157261124
    DFT Exchange-Correlation Energy =     -44.4108622151324042
    Empirical Dispersion Energy =          -0.0118968200000000
    VV10 Nonlocal Energy =                  0.0000000000000000
    Total Energy =                       -381.4315896127804422



Properties will be evaluated at   0.000000,   0.000000,   0.000000 [a0]

Properties computed using the SCF density matrix

  Nuclear Dipole Moment: [e a0]
     X:     0.1385      Y:    -0.1627      Z:     0.0981

  Electronic Dipole Moment: [e a0]
     X:     0.1061      Y:     0.3357      Z:    -2.0460

  Dipole Moment: [e a0]
     X:     0.2445      Y:     0.1731      Z:    -1.9479     Total:     1.9708

  Dipole Moment: [D]
     X:     0.6215      Y:     0.4399      Z:    -4.9510     Total:     5.0092


*** tstop() called on oliva.prib.upf.edu at Sat Sep 29 20:25:12 2018
Module time:
	user time   =     113.67 seconds =       1.89 minutes
	system time =       1.09 seconds =       0.02 minutes
	total time  =         33 seconds =       0.55 minutes
Total time:
	user time   =     113.67 seconds =       1.89 minutes
	system time =       1.09 seconds =       0.02 minutes
	total time  =         33 seconds =       0.55 minutes

*** tstart() called on oliva.prib.upf.edu
*** at Sat Sep 29 20:25:12 2018


         ------------------------------------------------------------
                                   SCF GRAD                          
                          Rob Parrish, Justin Turney,                
                       Andy Simmonett, and Alex Sokolov              
         ------------------------------------------------------------

  ==> Geometry <==

    Molecular point group: c1
    Full point group: C1

    Geometry (in Angstrom), charge = 1, multiplicity = 1:

       Center              X                  Y                   Z               Mass       
    ------------   -----------------  -----------------  -----------------  -----------------
         C            0.000000000000     0.000000000000    -0.177864000000    12.000000000000
         C            0.036678000000     1.219374000000     0.524165000000    12.000000000000
         C            0.031765000000     1.213120000000     1.915444000000    12.000000000000
         C            0.000000000000     0.000000000000     2.610107000000    12.000000000000
         C           -0.031765000000    -1.213120000000     1.915444000000    12.000000000000
         C           -0.036678000000    -1.219375000000     0.524165000000    12.000000000000
         C            0.000000000000     0.000000000000    -1.644734000000    12.000000000000
         H            0.018170000000     2.164705000000    -0.010854000000     1.007825032070
         H            0.042402000000     2.152895000000     2.457886000000     1.007825032070
         H            0.000000000000     0.000000000000     3.695756000000     1.007825032070
         H           -0.042402000000    -2.152895000000     2.457886000000     1.007825032070
         H           -0.018170000000    -2.164705000000    -0.010853000000     1.007825032070
         N           -0.712590000000    -0.905950000000    -2.308461000000    14.003074004780
         N            0.712590000000     0.905950000000    -2.308460000000    14.003074004780
         H            0.673432000000     1.006470000000    -3.315997000000     1.007825032070
         H            1.377190000000     1.485970000000    -1.813316000000     1.007825032070
         H           -0.256768000000    -1.723526000000    -2.691971000000     1.007825032070
         H           -1.720586000000    -0.854981000000    -2.398525000000     1.007825032070

  Nuclear repulsion =  416.629295870469718

  ==> Basis Set <==

  Basis Set: 6-31G*
    Blend: 6-31G*
    Number of shells: 72
    Number of basis function: 153
    Number of Cartesian functions: 153
    Spherical Harmonics?: false
    Max angular momentum: 2

  ==> DFJKGrad: Density-Fitted SCF Gradients <==

    Gradient:                    1
    J tasked:                  Yes
    K tasked:                  Yes
    wK tasked:                  No
    OpenMP threads:              4
    Integrals threads:           4
    Memory (MB):              2002
    Schwarz Cutoff:          0E+00
    Fitting Condition:       1E-12

   => Auxiliary Basis Set <=

  Basis Set: (6-31G* AUX)
    Blend: CC-PVDZ-JKFIT
    Number of shells: 297
    Number of basis function: 954
    Number of Cartesian functions: 954
    Spherical Harmonics?: false
    Max angular momentum: 3

  ==> DFT Potential <==

   => Composite Functional: B3LYP-D3ZERO <= 

    B3LYP-d3zero Hyb-GGA Exchange-Correlation Functional

    P. J. Stephens, F. J. Devlin, C. F. Chabalowski, and M. J. Frisch, J. Phys. Chem. 98, 11623 (1994)

    Deriv               =              1
    GGA                 =           TRUE
    Meta                =          FALSE

    Exchange Hybrid     =           TRUE
    MP2 Hybrid          =          FALSE

   => Exchange Functionals <=

    0.0800   Slater exchange
    0.7200         Becke 88

   => Exact (HF) Exchange <=

    0.2000               HF 

   => Correlation Functionals <=

    0.1900   Vosko, Wilk & Nusair (VWN5_RPA)
    0.8100   Lee, Yang & Parr

   => Molecular Quadrature <=

    Radial Scheme       =       TREUTLER
    Pruning Scheme      =           FLAT
    Nuclear Scheme      =       TREUTLER

    BS radius alpha     =              1
    Pruning alpha       =              1
    Radial Points       =             75
    Spherical Points    =            302
    Total Points        =         397104
    Total Blocks        =           3003
    Max Points          =            256
    Max Functions       =            149


  -Total Gradient:
     Atom            X                  Y                   Z
    ------   -----------------  -----------------  -----------------
       1        0.001050462290    -0.011156402474     0.010508620884
       2       -0.002427792906    -0.002205534823    -0.007284958176
       3       -0.000136445258    -0.003312150354     0.002003377270
       4        0.000000454227     0.000288035912    -0.000320405685
       5       -0.001286442692     0.001092466903     0.002211455203
       6        0.001990222684     0.004328669205    -0.001970861551
       7       -0.018735491442    -0.031537240840    -0.031506127887
       8        0.000446730853    -0.000166023090     0.000055047355
       9        0.000324916047     0.000036612341    -0.000303131760
      10        0.000274553785    -0.000082515921    -0.000102277073
      11       -0.000136238412    -0.000011981101     0.000024204576
      12        0.002395978032    -0.001508375105     0.000722847075
      13        0.016745226546     0.031455145010     0.034272180117
      14       -0.000372958223     0.010768764091    -0.008627577109
      15        0.002989542678     0.003670043774     0.002532437532
      16       -0.002849059225    -0.002917295399    -0.001061145229
      17        0.000671267904    -0.003742487880     0.010659158636
      18       -0.000945718877     0.005010126018    -0.011811071905


*** tstop() called on oliva.prib.upf.edu at Sat Sep 29 20:25:19 2018
Module time:
	user time   =      26.47 seconds =       0.44 minutes
	system time =       0.29 seconds =       0.00 minutes
	total time  =          7 seconds =       0.12 minutes
Total time:
	user time   =     140.18 seconds =       2.34 minutes
	system time =       1.39 seconds =       0.02 minutes
	total time  =         40 seconds =       0.67 minutes

			-----------------------------------------
			 OPTKING 2.0: for geometry optimizations 
			  - R.A. King,  Bethel University        
			-----------------------------------------
	At level 1: Red. Int., RFO, no backsteps, dynamic trust

	Internal coordinates to be generated automatically.
	Detected frag 1 with atoms:  1 2 3 4 5 6 7 8 9 10 11 12 13 14 15 16 17 18
	---Fragment 1 Bond Connectivity---
	 1 : 2 6 7
	 2 : 1 3 8
	 3 : 2 4 9
	 4 : 3 5 10
	 5 : 4 6 11
	 6 : 1 5 12
	 7 : 1 13 14
	 8 : 2
	 9 : 3
	 10 : 4
	 11 : 5
	 12 : 6
	 13 : 7 17 18
	 14 : 7 15 16
	 15 : 14
	 16 : 14
	 17 : 13
	 18 : 13

	Assuming in current code that numbering for constraints corresponds to unified fragment.
	Frozen dihedral atom list: 
	     1     7    13    17
	---Fragment 1 Geometry and Gradient---
	 C           0.0000000000        0.0000000000       -0.3361142489
	 C           0.0693113751        2.3042829136        0.9905282984
	 C           0.0600271506        2.2924645663        3.6196645829
	 C           0.0000000000        0.0000000000        4.9323874075
	 C          -0.0600271506       -2.2924645663        3.6196645829
	 C          -0.0693113751       -2.3042848033        0.9905282984
	 C           0.0000000000        0.0000000000       -3.1080968214
	 H           0.0343363238        4.0906996085       -0.0205110874
	 H           0.0801281675        4.0683819429        4.6447314059
	 H           0.0000000000        0.0000000000        6.9839666940
	 H          -0.0801281675       -4.0683819429        4.6447314059
	 H          -0.0343363238       -4.0906996085       -0.0205091977
	 N          -1.3465999450       -1.7119973901       -4.3623590784
	 N           1.3465999450        1.7119973901       -4.3623571887
	 H           1.2726020491        1.9019526610       -6.2663261875
	 H           2.6025119329        2.8080763417       -3.4266706324
	 H          -0.4852211997       -3.2569921229       -5.0870879477
	 H          -3.2514363281       -1.6156799388       -4.5325553729
	             0.0010504623       -0.0111564025        0.0105086209
	            -0.0024277929       -0.0022055348       -0.0072849582
	            -0.0001364453       -0.0033121504        0.0020033773
	             0.0000004542        0.0002880359       -0.0003204057
	            -0.0012864427        0.0010924669        0.0022114552
	             0.0019902227        0.0043286692       -0.0019708616
	            -0.0187354914       -0.0315372408       -0.0315061279
	             0.0004467309       -0.0001660231        0.0000550474
	             0.0003249160        0.0000366123       -0.0003031318
	             0.0002745538       -0.0000825159       -0.0001022771
	            -0.0001362384       -0.0000119811        0.0000242046
	             0.0023959780       -0.0015083751        0.0007228471
	             0.0167452265        0.0314551450        0.0342721801
	            -0.0003729582        0.0107687641       -0.0086275771
	             0.0029895427        0.0036700438        0.0025324375
	            -0.0028490592       -0.0029172954       -0.0010611452
	             0.0006712679       -0.0037424879        0.0106591586
	            -0.0009457189        0.0050101260       -0.0118110719

	Previous optimization step data not found.  Starting new optimization.

	---Fragment 1 Intrafragment Coordinates---
	 - Coordinate -           - BOHR/RAD -       - ANG/DEG -
	 R(1,2)           =         2.659794	       1.407502
	 R(1,6)           =         2.659796	       1.407503
	 R(1,7)           =         2.771983	       1.466870
	 R(2,3)           =         2.629179	       1.391302
	 R(2,8)           =         2.052976	       1.086388
	 R(3,4)           =         2.642393	       1.398294
	 R(3,9)           =         2.050622	       1.085142
	 R(4,5)           =         2.642393	       1.398294
	 R(4,10)          =         2.051579	       1.085649
	 R(5,6)           =         2.629179	       1.391302
	 R(5,11)          =         2.050622	       1.085142
	 R(6,12)          =         2.052973	       1.086386
	 R(7,13)          =         2.513452	       1.330061
	 R(7,14)          =         2.513451	       1.330061
	 R(13,17)         =         1.911600	       1.011575
	 R(13,18)         =         1.914849	       1.013294
	 R(14,15)         =         1.914852	       1.013296
	 R(14,16)         =         1.911600	       1.011575
	 B(1,2,3)         =         2.088380	     119.655376
	 B(1,2,8)         =         2.103396	     120.515689
	 B(1,6,5)         =         2.088379	     119.655315
	 B(1,6,12)        =         2.103396	     120.515729
	 B(1,7,13)        =         2.093264	     119.935172
	 B(1,7,14)        =         2.093263	     119.935135
	 B(2,1,6)         =         2.097220	     120.161857
	 B(2,1,7)         =         2.092983	     119.919082
	 B(2,3,4)         =         2.095279	     120.050636
	 B(2,3,9)         =         2.089719	     119.732108
	 B(3,2,8)         =         2.090149	     119.756722
	 B(3,4,5)         =         2.101793	     120.423859
	 B(3,4,10)        =         2.090696	     119.788070
	 B(4,3,9)         =         2.098135	     120.214297
	 B(4,5,6)         =         2.095280	     120.050677
	 B(4,5,11)        =         2.098135	     120.214297
	 B(5,4,10)        =         2.090696	     119.788070
	 B(5,6,12)        =         2.090149	     119.756743
	 B(6,1,7)         =         2.092982	     119.919061
	 B(6,5,11)        =         2.089719	     119.732067
	 B(7,13,17)       =         2.092411	     119.886291
	 B(7,13,18)       =         2.144860	     122.891418
	 B(7,14,15)       =         2.144860	     122.891405
	 B(7,14,16)       =         2.092412	     119.886393
	 B(13,7,14)       =         2.096659	     120.129694
	 B(15,14,16)      =         2.043399	     117.078146
	 B(17,13,18)      =         2.043401	     117.078228
	 D(1,2,3,4)       =         0.007799	       0.446825
	 D(1,2,3,9)       =        -3.122896	    -178.928735
	 D(1,6,5,4)       =         0.007799	       0.446822
	 D(1,6,5,11)      =        -3.122896	    -178.928737
	*D(1,7,13,17)     =        -1.745329	     -99.999977
	 D(1,7,13,18)     =         1.317846	      75.507005
	 D(1,7,14,15)     =        -3.032165	    -173.730230
	 D(1,7,14,16)     =         0.187844	      10.762681
	 D(2,1,6,5)       =        -0.003906	      -0.223802
	 D(2,1,6,12)      =        -3.091437	    -177.126283
	 D(2,1,7,13)      =        -2.505167	    -143.535494
	 D(2,1,7,14)      =         0.636426	      36.464506
	 D(2,3,4,5)       =        -0.003942	      -0.225875
	 D(2,3,4,10)      =         3.137650	     179.774125
	 D(3,2,1,6)       =        -0.003906	      -0.223806
	 D(3,2,1,7)       =         3.137687	     179.776196
	 D(3,4,5,6)       =        -0.003942	      -0.225874
	 D(3,4,5,11)      =         3.126699	     179.146646
	 D(4,3,2,8)       =         3.095744	     177.373058
	 D(4,5,6,12)      =         3.095744	     177.373055
	 D(5,4,3,9)       =         3.126699	     179.146646
	 D(5,6,1,7)       =         3.137687	     179.776197
	 D(6,1,2,8)       =        -3.091437	    -177.126287
	 D(6,1,7,13)      =         0.636426	      36.464508
	 D(6,1,7,14)      =        -2.505167	    -143.535492
	 D(6,5,4,10)      =         3.137650	     179.774126
	 D(7,1,2,8)       =         0.050156	       2.873714
	 D(7,1,6,12)      =         0.050156	       2.873716
	 D(8,2,3,9)       =        -0.034950	      -2.002503
	 D(9,3,4,10)      =        -0.014894	      -0.853354
	 D(10,4,5,11)     =        -0.014894	      -0.853354
	 D(11,5,6,12)     =        -0.034950	      -2.002504
	 D(13,7,14,15)    =         0.109428	       6.269770
	 D(13,7,14,16)    =        -2.953748	    -169.237319
	 D(14,7,13,17)    =         1.396264	      80.000023
	 D(14,7,13,18)    =        -1.823747	    -104.492995

	Current energy   :      -381.4315896128

	Generating empirical Hessian (Schlegel '84) for each fragment.
	Taking RFO optimization step.
	Going to follow RFO solution 1.
	Using RFO vector 1.

	Determining step-restricting scale parameter for RS-RFO.
	Maximum step size allowed    0.50000

	 Iter      |step|        alpha        rfo_root  
	------------------------------------------------
	    0     0.53544       1.00000           1
	    1     0.50322       1.18843           1
	    2     0.50003       1.20913           1
	    3     0.50000       1.20933           1
	------------------------------------------------
	Norm of target step-size    0.50000
	Projected energy change by RFO approximation:        -0.0137504420

	Back-transformation to cartesian coordinates...
	Could not converge backtransformation.
	Using first guess instead.

	Back-transformation to cartesian coordinates to adjust frozen coordinates...
	Successfully converged to displaced geometry.

	--- Internal Coordinate Step in ANG or DEG, aJ/ANG or AJ/DEG ---
	 ---------------------------------------------------------------------------
	   Coordinate                Previous        Force       Change         New 
	   ----------                --------       ------       ------       ------
	    1 R(1,2)          =      1.407502     0.047454     0.008301     1.415803
	    2 R(1,6)          =      1.407503     0.013426     0.003383     1.410886
	    3 R(1,7)          =      1.466870    -0.045666    -0.007690     1.459180
	    4 R(2,3)          =      1.391302    -0.015794    -0.001834     1.389468
	    5 R(2,8)          =      1.086388     0.001479     0.000899     1.087287
	    6 R(3,4)          =      1.398294     0.014270     0.002736     1.401030
	    7 R(3,9)          =      1.085142     0.000965     0.001177     1.086319
	    8 R(4,5)          =      1.398294     0.016219     0.003814     1.402108
	    9 R(4,10)         =      1.085649     0.000843     0.000313     1.085962
	   10 R(5,6)          =      1.391302    -0.013134    -0.001378     1.389924
	   11 R(5,11)         =      1.085142    -0.000199     0.000975     1.086117
	   12 R(6,12)         =      1.086386    -0.008221     0.002025     1.088411
	   13 R(7,13)         =      1.330061     0.392489     0.048763     1.378825
	   14 R(7,14)         =      1.330061    -0.093044    -0.009447     1.320614
	   15 R(13,17)        =      1.011575     0.005876     0.006023     1.017598
	   16 R(13,18)        =      1.013294    -0.018473     0.025701     1.038995
	   17 R(14,15)        =      1.013296     0.018698     0.004395     1.017691
	   18 R(14,16)        =      1.011575     0.033483     0.006808     1.018383
	   19 B(1,2,3)        =    119.655376     0.000046     0.170629   119.826005
	   20 B(1,2,8)        =    120.515689    -0.000022    -0.045465   120.470224
	   21 B(1,6,5)        =    119.655315    -0.000020    -0.157647   119.497668
	   22 B(1,6,12)       =    120.515729    -0.000093    -0.298928   120.216802
	   23 B(1,7,13)       =    119.935172     0.000972     2.488697   122.423869
	   24 B(1,7,14)       =    119.935135    -0.000223    -0.635234   119.299900
	   25 B(2,1,6)        =    120.161857    -0.000051    -0.048175   120.113682
	   26 B(2,1,7)        =    119.919082     0.000454     1.245492   121.164573
	   27 B(2,3,4)        =    120.050636    -0.000091    -0.324479   119.726157
	   28 B(2,3,9)        =    119.732108     0.000068     0.236728   119.968836
	   29 B(3,2,8)        =    119.756722    -0.000025    -0.136393   119.620329
	   30 B(3,4,5)        =    120.423859     0.000086     0.273306   120.697166
	   31 B(3,4,10)       =    119.788070    -0.000049    -0.173709   119.614362
	   32 B(4,3,9)        =    120.214297     0.000023     0.087187   120.301483
	   33 B(4,5,6)        =    120.050677     0.000029     0.067844   120.118521
	   34 B(4,5,11)       =    120.214297    -0.000013     0.049575   120.263872
	   35 B(5,4,10)       =    119.788070    -0.000037    -0.102160   119.685911
	   36 B(5,6,12)       =    119.756743     0.000115     0.491743   120.248486
	   37 B(6,1,7)        =    119.919061    -0.000403    -1.197921   118.721140
	   38 B(6,5,11)       =    119.732067    -0.000016    -0.114976   119.617090
	   39 B(7,13,17)      =    119.886291     0.000399     1.310827   121.197118
	   40 B(7,13,18)      =    122.891418    -0.000374    -2.595959   120.295459
	   41 B(7,14,15)      =    122.891405    -0.000525    -2.344343   120.547062
	   42 B(7,14,16)      =    119.886393     0.000342     1.449257   121.335650
	   43 B(13,7,14)      =    120.129694    -0.000749    -2.058095   118.071599
	   44 B(15,14,16)     =    117.078146     0.000181     0.862445   117.940591
	   45 B(17,13,18)     =    117.078228    -0.000066    -0.438217   116.640011
	   46 D(1,2,3,4)      =      0.446825     0.000003     0.251978     0.698803
	   47 D(1,2,3,9)      =   -178.928735     0.000004     0.308323  -178.620412
	   48 D(1,6,5,4)      =      0.446822     0.000011     1.048096     1.494917
	   49 D(1,6,5,11)     =   -178.928737     0.000002     0.163000  -178.765737
	   50 *D(1,7,13,17)   =    -99.999977    -0.000000     0.000000   -99.999977
	   51 D(1,7,13,18)    =     75.507005    -0.000146   -11.585070    63.921935
	   52 D(1,7,14,15)    =   -173.730230    -0.000036    -3.155459  -176.885688
	   53 D(1,7,14,16)    =     10.762681    -0.000029    -2.717579     8.045102
	   54 D(2,1,6,5)      =     -0.223802    -0.000013    -1.275676    -1.499478
	   55 D(2,1,6,12)     =   -177.126283    -0.000024    -2.165184  -179.291466
	   56 D(2,1,7,13)     =   -143.535494    -0.000083    -9.454752  -152.990246
	   57 D(2,1,7,14)     =     36.464506    -0.000026    -4.153728    32.310778
	   58 D(2,3,4,5)      =     -0.225875    -0.000005    -0.483768    -0.709643
	   59 D(2,3,4,10)     =    179.774125     0.000001     0.100308   179.874433
	   60 D(3,2,1,6)      =     -0.223806     0.000006     0.623517     0.399711
	   61 D(3,2,1,7)      =    179.776196     0.000003     0.336904   180.113100
	   62 D(3,4,5,6)      =     -0.225874    -0.000002    -0.175666    -0.401540
	   63 D(3,4,5,11)     =    179.146646     0.000007     0.714169   179.860815
	   64 D(4,3,2,8)      =    177.373058     0.000000     0.020314   177.393372
	   65 D(4,5,6,12)     =    177.373055     0.000020     1.913138   179.286194
	   66 D(5,4,3,9)      =    179.146646    -0.000006    -0.539373   178.607273
	   67 D(5,6,1,7)      =    179.776197    -0.000010    -0.996020   178.780177
	   68 D(6,1,2,8)      =   -177.126287     0.000009     0.859944  -176.266343
	   69 D(6,1,7,13)     =     36.464508    -0.000087    -9.737463    26.727044
	   70 D(6,1,7,14)     =   -143.535492    -0.000030    -4.436439  -147.971932
	   71 D(6,5,4,10)     =    179.774126    -0.000008    -0.760157   179.013969
	   72 D(7,1,2,8)      =      2.873714     0.000005     0.573331     3.447046
	   73 D(7,1,6,12)     =      2.873716    -0.000020    -1.885527     0.988189
	   74 D(8,2,3,9)      =     -2.002503     0.000001     0.076660    -1.925843
	   75 D(9,3,4,10)     =     -0.853354     0.000000     0.044703    -0.808651
	   76 D(10,4,5,11)    =     -0.853354     0.000001     0.129678    -0.723676
	   77 D(11,5,6,12)    =     -2.002504     0.000011     1.028043    -0.974461
	   78 D(13,7,14,15)   =      6.269770     0.000021     1.915119     8.184889
	   79 D(13,7,14,16)   =   -169.237319     0.000028     2.352999  -166.884320
	   80 D(14,7,13,17)   =     80.000023    -0.000057    -5.239030    74.760993
	   81 D(14,7,13,18)   =   -104.492995    -0.000203   -16.824100  -121.317094
	 ---------------------------------------------------------------------------
	Successfully symmetrized geometry.

  ==> Convergence Check <==

  Measures of convergence in internal coordinates in au.
  Criteria marked as inactive (o), active & met (*), and active & unmet ( ).
  --------------------------------------------------------------------------------------------- ~
   Step     Total Energy     Delta E     MAX Force     RMS Force      MAX Disp      RMS Disp    ~
  --------------------------------------------------------------------------------------------- ~
    Convergence Criteria    1.00e-06 *    3.00e-04 *             o    1.20e-03 *             o  ~
  --------------------------------------------------------------------------------------------- ~
      1    -381.43158961   -3.81e+02      4.76e-02      6.34e-03 o    2.94e-01      5.43e-02 o  ~
  ---------------------------------------------------------------------------------------------

	Writing optimization data to binary file.
	Structure for next step:
	Cartesian Geometry (in Angstrom)
	    C    -0.0166856004   0.0365976587  -0.1778664023
	    C     0.0827984101   1.2489663565   0.5465389189
	    C     0.0917977273   1.2251811638   1.9357741163
	    C     0.0170715948  -0.0006215725   2.6100956146
	    C    -0.0817118630  -1.2044094515   1.8980263713
	    C    -0.1149668244  -1.1921278144   0.5085546149
	    C    -0.0263109811   0.0273977097  -1.6369860791
	    H     0.0979087285   2.2030463564   0.0252938144
	    H     0.1454306267   2.1554993353   2.4940932874
	    H     0.0263076701  -0.0172327054   3.6958916029
	    H    -0.1369542830  -2.1508837312   2.4279175082
	    H    -0.1799283979  -2.1260488672  -0.0466124502
	    N    -0.6391374674  -0.9696798900  -2.3659836441
	    N     0.6591564001   0.9455507589  -2.2936073303
	    H     0.6279667707   0.9859063597  -3.3100192339
	    H     1.2889227720   1.5831057310  -1.8098492409
	    H    -0.1009628634  -1.7303445572  -2.7749609923
	    H    -1.6674344196  -1.1059708405  -2.3064824758
			--------------------------
			 OPTKING Finished Execution 
			--------------------------

    Structure for next step:
    Molecular point group: c1
    Full point group: C1

    Geometry (in Angstrom), charge = 1, multiplicity = 1:

    C           -0.016685600414     0.036597658671    -0.177866402340
    C            0.082798410100     1.248966356509     0.546538918897
    C            0.091797727326     1.225181163805     1.935774116346
    C            0.017071594766    -0.000621572498     2.610095614565
    C           -0.081711862973    -1.204409451483     1.898026371287
    C           -0.114966824423    -1.192127814424     0.508554614862
    C           -0.026310981102     0.027397709663    -1.636986079117
    H            0.097908728492     2.203046356415     0.025293814384
    H            0.145430626729     2.155499335274     2.494093287418
    H            0.026307670081    -0.017232705418     3.695891602939
    H           -0.136954283022    -2.150883731234     2.427917508232
    H           -0.179928397935    -2.126048867219    -0.046612450153
    N           -0.639137467448    -0.969679890016    -2.365983644100
    N            0.659156400099     0.945550758930    -2.293607330255
    H            0.627966770728     0.985906359710    -3.310019233929
    H            1.288922771978     1.583105730967    -1.809849240890
    H           -0.100962863369    -1.730344557182    -2.774960992329
    H           -1.667434419611    -1.105970840469    -2.306482475817

gradient() will perform analytic gradient computation.

*** tstart() called on oliva.prib.upf.edu
*** at Sat Sep 29 20:25:19 2018

   => Loading Basis Set <=

    Name: 6-31G*
    Role: ORBITAL
    Keyword: BASIS
    atoms 1-7         entry C          line   111 file /shared/joao/test_parameterize/miniconda3/share/psi4/basis/6-31gs.gbs 
    atoms 8-12, 15-18 entry H          line    44 file /shared/joao/test_parameterize/miniconda3/share/psi4/basis/6-31gs.gbs 
    atoms 13-14       entry N          line   128 file /shared/joao/test_parameterize/miniconda3/share/psi4/basis/6-31gs.gbs 


         ---------------------------------------------------------
                                   SCF
            by Justin Turney, Rob Parrish, Andy Simmonett
                             and Daniel Smith
                              RKS Reference
                        4 Threads,   2861 MiB Core
         ---------------------------------------------------------

  ==> Geometry <==

    Molecular point group: c1
    Full point group: C1

    Geometry (in Angstrom), charge = 1, multiplicity = 1:

       Center              X                  Y                   Z               Mass       
    ------------   -----------------  -----------------  -----------------  -----------------
         C           -0.016685600414     0.036597658671    -0.177866402340    12.000000000000
         C            0.082798410100     1.248966356509     0.546538918897    12.000000000000
         C            0.091797727326     1.225181163805     1.935774116346    12.000000000000
         C            0.017071594766    -0.000621572498     2.610095614565    12.000000000000
         C           -0.081711862973    -1.204409451483     1.898026371287    12.000000000000
         C           -0.114966824423    -1.192127814424     0.508554614862    12.000000000000
         C           -0.026310981102     0.027397709663    -1.636986079117    12.000000000000
         H            0.097908728492     2.203046356415     0.025293814384     1.007825032070
         H            0.145430626729     2.155499335274     2.494093287418     1.007825032070
         H            0.026307670081    -0.017232705418     3.695891602939     1.007825032070
         H           -0.136954283022    -2.150883731234     2.427917508232     1.007825032070
         H           -0.179928397935    -2.126048867219    -0.046612450153     1.007825032070
         N           -0.639137467448    -0.969679890016    -2.365983644100    14.003074004780
         N            0.659156400099     0.945550758930    -2.293607330255    14.003074004780
         H            0.627966770728     0.985906359710    -3.310019233929     1.007825032070
         H            1.288922771978     1.583105730967    -1.809849240890     1.007825032070
         H           -0.100962863369    -1.730344557182    -2.774960992329     1.007825032070
         H           -1.667434419611    -1.105970840469    -2.306482475817     1.007825032070

  Running in c1 symmetry.

  Rotational constants: A =      0.11991  B =      0.03969  C =      0.03091 [cm^-1]
  Rotational constants: A =   3594.83439  B =   1190.02143  C =    926.62664 [MHz]
  Nuclear repulsion =  415.262063219381844

  Charge       = 1
  Multiplicity = 1
  Electrons    = 64
  Nalpha       = 32
  Nbeta        = 32

  ==> Algorithm <==

  SCF Algorithm Type is DF.
  DIIS enabled.
  MOM disabled.
  Fractional occupation disabled.
  Guess Type is READ.
  Energy threshold   = 1.00e-08
  Density threshold  = 1.00e-08
  Integral threshold = 0.00e+00

  ==> Primary Basis <==

  Basis Set: 6-31G*
    Blend: 6-31G*
    Number of shells: 72
    Number of basis function: 153
    Number of Cartesian functions: 153
    Spherical Harmonics?: false
    Max angular momentum: 2

  ==> DFT Potential <==

   => Composite Functional: B3LYP-D3ZERO <= 

    B3LYP-d3zero Hyb-GGA Exchange-Correlation Functional

    P. J. Stephens, F. J. Devlin, C. F. Chabalowski, and M. J. Frisch, J. Phys. Chem. 98, 11623 (1994)

    Deriv               =              1
    GGA                 =           TRUE
    Meta                =          FALSE

    Exchange Hybrid     =           TRUE
    MP2 Hybrid          =          FALSE

   => Exchange Functionals <=

    0.0800   Slater exchange
    0.7200         Becke 88

   => Exact (HF) Exchange <=

    0.2000               HF 

   => Correlation Functionals <=

    0.1900   Vosko, Wilk & Nusair (VWN5_RPA)
    0.8100   Lee, Yang & Parr

   => Molecular Quadrature <=

    Radial Scheme       =       TREUTLER
    Pruning Scheme      =           FLAT
    Nuclear Scheme      =       TREUTLER

    BS radius alpha     =              1
    Pruning alpha       =              1
    Radial Points       =             75
    Spherical Points    =            302
    Total Points        =         397037
    Total Blocks        =           3007
    Max Points          =            256
    Max Functions       =            149

   => -D3ZERO: Empirical Dispersion <=

    Grimme's -D3 (zero-damping) Dispersion Correction
    Grimme S.; Antony J.; Ehrlich S.; Krieg H. (2010), J. Chem. Phys., 132: 154104

        S6 =   1.000000E+00
        S8 =   1.703000E+00
       SR6 =   1.261000E+00
       SR8 =   1.000000E+00
    ALPHA6 =   1.400000E+01

   => Loading Basis Set <=

    Name: (6-31G* AUX)
    Role: JKFIT
    Keyword: DF_BASIS_SCF
    atoms 1-7         entry C          line   121 file /shared/joao/test_parameterize/miniconda3/share/psi4/basis/cc-pvdz-jkfit.gbs 
    atoms 8-12, 15-18 entry H          line    51 file /shared/joao/test_parameterize/miniconda3/share/psi4/basis/cc-pvdz-jkfit.gbs 
    atoms 13-14       entry N          line   171 file /shared/joao/test_parameterize/miniconda3/share/psi4/basis/cc-pvdz-jkfit.gbs 

  Reading orbitals from file 180, no projection.

  ==> Pre-Iterations <==

   -------------------------------------------------------
    Irrep   Nso     Nmo     Nalpha   Nbeta   Ndocc  Nsocc
   -------------------------------------------------------
     A        153     153       0       0       0       0
   -------------------------------------------------------
    Total     153     153      32      32      32       0
   -------------------------------------------------------

  ==> Integral Setup <==

  ==> DiskDFJK: Density-Fitted J/K Matrices <==

    J tasked:                  Yes
    K tasked:                  Yes
    wK tasked:                  No
    OpenMP threads:              4
    Integrals threads:           4
    Memory (MB):              2002
    Algorithm:                Core
    Integral Cache:           NONE
    Schwarz Cutoff:          1E-12
    Fitting Condition:       1E-12

   => Auxiliary Basis Set <=

  Basis Set: (6-31G* AUX)
    Blend: CC-PVDZ-JKFIT
    Number of shells: 297
    Number of basis function: 954
    Number of Cartesian functions: 954
    Spherical Harmonics?: false
    Max angular momentum: 3

  Minimum eigenvalue in the overlap matrix is 4.9447402622E-04.
  Using Symmetric Orthogonalization.

  SCF Guess: Orbitals guess was supplied from a previous computation.

  ==> Iterations <==

                           Total Energy        Delta E     RMS |[F,P]|

   @DF-RKS iter   0:  -381.37642451058946   -3.81376e+02   3.02324e-03 
   @DF-RKS iter   1:  -381.44045160158970   -6.40271e-02   4.89774e-04 
   @DF-RKS iter   2:  -381.44014003902709    3.11563e-04   6.44668e-04 DIIS
   @DF-RKS iter   3:  -381.44130053128680   -1.16049e-03   1.32795e-04 DIIS
   @DF-RKS iter   4:  -381.44134036368160   -3.98324e-05   6.60011e-05 DIIS
   @DF-RKS iter   5:  -381.44135295685885   -1.25932e-05   1.92832e-05 DIIS
   @DF-RKS iter   6:  -381.44135404969114   -1.09283e-06   4.12061e-06 DIIS
   @DF-RKS iter   7:  -381.44135415052773   -1.00837e-07   1.42787e-06 DIIS
   @DF-RKS iter   8:  -381.44135416130359   -1.07759e-08   8.31572e-07 DIIS
   @DF-RKS iter   9:  -381.44135416375298   -2.44938e-09   2.19114e-07 DIIS
   @DF-RKS iter  10:  -381.44135416388468   -1.31706e-10   9.79087e-08 DIIS
   @DF-RKS iter  11:  -381.44135416391379   -2.91038e-11   2.80374e-08 DIIS
   @DF-RKS iter  12:  -381.44135416391640   -2.61480e-12   1.08905e-08 DIIS
   @DF-RKS iter  13:  -381.44135416391669   -2.84217e-13   3.18645e-09 DIIS

  ==> Post-Iterations <==

    Orbital Energies [Eh]
    ---------------------

    Doubly Occupied:                                                      

       1A    -14.581878     2A    -14.527851     3A    -10.497265  
       4A    -10.373927     5A    -10.362543     6A    -10.359986  
       7A    -10.352071     8A    -10.346022     9A    -10.344327  
      10A     -1.172278    11A     -1.067569    12A     -1.016152  
      13A     -0.926351    14A     -0.906200    15A     -0.839678  
      16A     -0.777918    17A     -0.768549    18A     -0.736928  
      19A     -0.714056    20A     -0.693691    21A     -0.669448  
      22A     -0.630376    23A     -0.607062    24A     -0.585534  
      25A     -0.580798    26A     -0.558162    27A     -0.518503  
      28A     -0.510564    29A     -0.501474    30A     -0.444365  
      31A     -0.417399    32A     -0.409993  

    Virtual:                                                              

      33A     -0.249366    34A     -0.158640    35A     -0.138802  
      36A     -0.099195    37A     -0.075914    38A     -0.050582  
      39A     -0.038709    40A     -0.007746    41A      0.004085  
      42A      0.006949    43A      0.020937    44A      0.053491  
      45A      0.057744    46A      0.086693    47A      0.122296  
      48A      0.128597    49A      0.153467    50A      0.163538  
      51A      0.212536    52A      0.232876    53A      0.296889  
      54A      0.350895    55A      0.367822    56A      0.377766  
      57A      0.392777    58A      0.399228    59A      0.412679  
      60A      0.419216    61A      0.437203    62A      0.446210  
      63A      0.453364    64A      0.467214    65A      0.470207  
      66A      0.480490    67A      0.487446    68A      0.511538  
      69A      0.529247    70A      0.536959    71A      0.548125  
      72A      0.577376    73A      0.617645    74A      0.648214  
      75A      0.673952    76A      0.687639    77A      0.695044  
      78A      0.700563    79A      0.716743    80A      0.722357  
      81A      0.726478    82A      0.750812    83A      0.770898  
      84A      0.784069    85A      0.809305    86A      0.824591  
      87A      0.854392    88A      0.882445    89A      0.941957  
      90A      0.974060    91A      0.986407    92A      1.018481  
      93A      1.059041    94A      1.078468    95A      1.131593  
      96A      1.149548    97A      1.236998    98A      1.271401  
      99A      1.274242   100A      1.299241   101A      1.323073  
     102A      1.336634   103A      1.353130   104A      1.362682  
     105A      1.432923   106A      1.453508   107A      1.543920  
     108A      1.581888   109A      1.626127   110A      1.650450  
     111A      1.697028   112A      1.727411   113A      1.745099  
     114A      1.781972   115A      1.792438   116A      1.813070  
     117A      1.890297   118A      1.940733   119A      1.960789  
     120A      1.968587   121A      1.993610   122A      2.013982  
     123A      2.019899   124A      2.024841   125A      2.106858  
     126A      2.129673   127A      2.151494   128A      2.180406  
     129A      2.228886   130A      2.304948   131A      2.352375  
     132A      2.387948   133A      2.441848   134A      2.454115  
     135A      2.474925   136A      2.497437   137A      2.536914  
     138A      2.581031   139A      2.591332   140A      2.621508  
     141A      2.731335   142A      2.811769   143A      2.985430  
     144A      3.246660   145A      3.616050   146A      3.679503  
     147A      3.904498   148A      3.939433   149A      3.959494  
     150A      4.038179   151A      4.166477   152A      4.250333  
     153A      4.541232  

    Final Occupation by Irrep:
              A 
    DOCC [    32 ]

  Energy converged.

  @DF-RKS Final Energy:  -381.44135416391669

   => Energetics <=

    Nuclear Repulsion Energy =            415.2620632193818437
    One-Electron Energy =               -1325.8834778649838881
    Two-Electron Energy =                 573.5652584026719296
    DFT Exchange-Correlation Energy =     -44.3733413409865491
    Empirical Dispersion Energy =          -0.0118565800000000
    VV10 Nonlocal Energy =                  0.0000000000000000
    Total Energy =                       -381.4413541639166851



Properties will be evaluated at   0.000000,   0.000000,   0.000000 [a0]

Properties computed using the SCF density matrix

  Nuclear Dipole Moment: [e a0]
     X:    -0.0882      Y:     0.8959      Z:    -0.2212

  Electronic Dipole Moment: [e a0]
     X:     0.3348      Y:    -0.7808      Z:    -1.5852

  Dipole Moment: [e a0]
     X:     0.2467      Y:     0.1150      Z:    -1.8064     Total:     1.8268

  Dipole Moment: [D]
     X:     0.6270      Y:     0.2924      Z:    -4.5914     Total:     4.6432


*** tstop() called on oliva.prib.upf.edu at Sat Sep 29 20:25:47 2018
Module time:
	user time   =      97.39 seconds =       1.62 minutes
	system time =       0.84 seconds =       0.01 minutes
	total time  =         28 seconds =       0.47 minutes
Total time:
	user time   =     238.46 seconds =       3.97 minutes
	system time =       2.28 seconds =       0.04 minutes
	total time  =         68 seconds =       1.13 minutes

*** tstart() called on oliva.prib.upf.edu
*** at Sat Sep 29 20:25:47 2018


         ------------------------------------------------------------
                                   SCF GRAD                          
                          Rob Parrish, Justin Turney,                
                       Andy Simmonett, and Alex Sokolov              
         ------------------------------------------------------------

  ==> Geometry <==

    Molecular point group: c1
    Full point group: C1

    Geometry (in Angstrom), charge = 1, multiplicity = 1:

       Center              X                  Y                   Z               Mass       
    ------------   -----------------  -----------------  -----------------  -----------------
         C           -0.016685600414     0.036597658671    -0.177866402340    12.000000000000
         C            0.082798410100     1.248966356509     0.546538918897    12.000000000000
         C            0.091797727326     1.225181163805     1.935774116346    12.000000000000
         C            0.017071594766    -0.000621572498     2.610095614565    12.000000000000
         C           -0.081711862973    -1.204409451483     1.898026371287    12.000000000000
         C           -0.114966824423    -1.192127814424     0.508554614862    12.000000000000
         C           -0.026310981102     0.027397709663    -1.636986079117    12.000000000000
         H            0.097908728492     2.203046356415     0.025293814384     1.007825032070
         H            0.145430626729     2.155499335274     2.494093287418     1.007825032070
         H            0.026307670081    -0.017232705418     3.695891602939     1.007825032070
         H           -0.136954283022    -2.150883731234     2.427917508232     1.007825032070
         H           -0.179928397935    -2.126048867219    -0.046612450153     1.007825032070
         N           -0.639137467448    -0.969679890016    -2.365983644100    14.003074004780
         N            0.659156400099     0.945550758930    -2.293607330255    14.003074004780
         H            0.627966770728     0.985906359710    -3.310019233929     1.007825032070
         H            1.288922771978     1.583105730967    -1.809849240890     1.007825032070
         H           -0.100962863369    -1.730344557182    -2.774960992329     1.007825032070
         H           -1.667434419611    -1.105970840469    -2.306482475817     1.007825032070

  Nuclear repulsion =  415.262063219381844

  ==> Basis Set <==

  Basis Set: 6-31G*
    Blend: 6-31G*
    Number of shells: 72
    Number of basis function: 153
    Number of Cartesian functions: 153
    Spherical Harmonics?: false
    Max angular momentum: 2

  ==> DFJKGrad: Density-Fitted SCF Gradients <==

    Gradient:                    1
    J tasked:                  Yes
    K tasked:                  Yes
    wK tasked:                  No
    OpenMP threads:              4
    Integrals threads:           4
    Memory (MB):              2002
    Schwarz Cutoff:          0E+00
    Fitting Condition:       1E-12

   => Auxiliary Basis Set <=

  Basis Set: (6-31G* AUX)
    Blend: CC-PVDZ-JKFIT
    Number of shells: 297
    Number of basis function: 954
    Number of Cartesian functions: 954
    Spherical Harmonics?: false
    Max angular momentum: 3

  ==> DFT Potential <==

   => Composite Functional: B3LYP-D3ZERO <= 

    B3LYP-d3zero Hyb-GGA Exchange-Correlation Functional

    P. J. Stephens, F. J. Devlin, C. F. Chabalowski, and M. J. Frisch, J. Phys. Chem. 98, 11623 (1994)

    Deriv               =              1
    GGA                 =           TRUE
    Meta                =          FALSE

    Exchange Hybrid     =           TRUE
    MP2 Hybrid          =          FALSE

   => Exchange Functionals <=

    0.0800   Slater exchange
    0.7200         Becke 88

   => Exact (HF) Exchange <=

    0.2000               HF 

   => Correlation Functionals <=

    0.1900   Vosko, Wilk & Nusair (VWN5_RPA)
    0.8100   Lee, Yang & Parr

   => Molecular Quadrature <=

    Radial Scheme       =       TREUTLER
    Pruning Scheme      =           FLAT
    Nuclear Scheme      =       TREUTLER

    BS radius alpha     =              1
    Pruning alpha       =              1
    Radial Points       =             75
    Spherical Points    =            302
    Total Points        =         397037
    Total Blocks        =           3007
    Max Points          =            256
    Max Functions       =            149


  -Total Gradient:
     Atom            X                  Y                   Z
    ------   -----------------  -----------------  -----------------
       1        0.010501884702    -0.005524146477     0.004651846728
       2       -0.000293406805     0.001386518016    -0.001231329301
       3       -0.001036805615    -0.000426049484     0.001704954424
       4        0.000381450180     0.002066127591     0.000827319439
       5       -0.000240135486    -0.000644804562    -0.001085569044
       6        0.001058849136     0.001184074186    -0.000716978468
       7       -0.006048787739     0.007076616950    -0.009274650865
       8        0.000653706455     0.000255202815    -0.000239174375
       9        0.000027974158     0.000839243986     0.000314737022
      10        0.000022011001     0.000120059160     0.000086280315
      11       -0.000210684612    -0.000855346240    -0.000127627608
      12        0.000635686658    -0.002766072564    -0.000755634985
      13        0.019098945139    -0.001687312613     0.004843446998
      14       -0.004528412920     0.002716399448     0.004411334412
      15        0.000902892778     0.000443932706    -0.001693590183
      16        0.001434015377     0.001978658156     0.001935151482
      17        0.001587786668    -0.009192557100     0.005815580816
      18       -0.023951065327     0.003012859880    -0.009477335908


*** tstop() called on oliva.prib.upf.edu at Sat Sep 29 20:25:54 2018
Module time:
	user time   =      25.87 seconds =       0.43 minutes
	system time =       0.37 seconds =       0.01 minutes
	total time  =          7 seconds =       0.12 minutes
Total time:
	user time   =     264.39 seconds =       4.41 minutes
	system time =       2.66 seconds =       0.04 minutes
	total time  =         75 seconds =       1.25 minutes

			-----------------------------------------
			 OPTKING 2.0: for geometry optimizations 
			  - R.A. King,  Bethel University        
			-----------------------------------------
	At level 1: Red. Int., RFO, no backsteps, dynamic trust

	Previous internal coordinate definitions found.
	---Fragment 1 Geometry and Gradient---
	 C          -0.0315312151        0.0691595520       -0.3361187887
	 C           0.1564663193        2.3602043630        1.0328088777
	 C           0.1734725643        2.3152568628        3.6580829350
	 C           0.0322606388       -0.0011746018        4.9323658922
	 C          -0.1544130428       -2.2760040152        3.5867500347
	 C          -0.2172558125       -2.2527950847        0.9610289457
	 C          -0.0497205486        0.0517741679       -3.0934553729
	 H           0.1850206829        4.1631542717        0.0477983820
	 H           0.2748240559        4.0733034233        4.7131532631
	 H           0.0497142916       -0.0325650938        6.9842229464
	 H          -0.2588060876       -4.0645811957        4.5880991638
	 H          -0.3400153956       -4.0176501042       -0.0880847652
	 N          -1.2077947747       -1.8324294287       -4.4710611222
	 N           1.2456250749        1.7868319791       -4.3342897106
	 H           1.1866852172        1.8630930125       -6.2550298467
	 H           2.4357110455        2.9916362709       -3.4201194071
	 H          -0.1907921614       -3.2698773286       -5.2439163049
	 H          -3.1509943976       -2.0899819994       -4.3586202096
	             0.0105018847       -0.0055241465        0.0046518467
	            -0.0002934068        0.0013865180       -0.0012313293
	            -0.0010368056       -0.0004260495        0.0017049544
	             0.0003814502        0.0020661276        0.0008273194
	            -0.0002401355       -0.0006448046       -0.0010855690
	             0.0010588491        0.0011840742       -0.0007169785
	            -0.0060487877        0.0070766170       -0.0092746509
	             0.0006537065        0.0002552028       -0.0002391744
	             0.0000279742        0.0008392440        0.0003147370
	             0.0000220110        0.0001200592        0.0000862803
	            -0.0002106846       -0.0008553462       -0.0001276276
	             0.0006356867       -0.0027660726       -0.0007556350
	             0.0190989451       -0.0016873126        0.0048434470
	            -0.0045284129        0.0027163994        0.0044113344
	             0.0009028928        0.0004439327       -0.0016935902
	             0.0014340154        0.0019786582        0.0019351515
	             0.0015877867       -0.0091925571        0.0058155808
	            -0.0239510653        0.0030128599       -0.0094773359

	---Fragment 1 Intrafragment Coordinates---
	 - Coordinate -           - BOHR/RAD -       - ANG/DEG -
	 R(1,2)           =         2.675480	       1.415803
	 R(1,6)           =         2.666188	       1.410886
	 R(1,7)           =         2.757451	       1.459180
	 R(2,3)           =         2.625714	       1.389468
	 R(2,8)           =         2.054675	       1.087287
	 R(3,4)           =         2.647564	       1.401030
	 R(3,9)           =         2.052845	       1.086319
	 R(4,5)           =         2.649600	       1.402108
	 R(4,10)          =         2.052171	       1.085962
	 R(5,6)           =         2.626576	       1.389924
	 R(5,11)          =         2.052463	       1.086117
	 R(6,12)          =         2.056799	       1.088411
	 R(7,13)          =         2.605601	       1.378825
	 R(7,14)          =         2.495599	       1.320614
	 R(13,17)         =         1.922981	       1.017598
	 R(13,18)         =         1.963416	       1.038995
	 R(14,15)         =         1.923157	       1.017691
	 R(14,16)         =         1.924465	       1.018383
	 B(1,2,3)         =         2.091358	     119.826005
	 B(1,2,8)         =         2.102602	     120.470224
	 B(1,6,5)         =         2.085628	     119.497668
	 B(1,6,12)        =         2.098179	     120.216802
	 B(1,7,13)        =         2.136700	     122.423869
	 B(1,7,14)        =         2.082176	     119.299900
	 B(2,1,6)         =         2.096379	     120.113682
	 B(2,1,7)         =         2.114721	     121.164573
	 B(2,3,4)         =         2.089616	     119.726157
	 B(2,3,9)         =         2.093851	     119.968836
	 B(3,2,8)         =         2.087769	     119.620329
	 B(3,4,5)         =         2.106563	     120.697166
	 B(3,4,10)        =         2.087664	     119.614362
	 B(4,3,9)         =         2.099657	     120.301483
	 B(4,5,6)         =         2.096464	     120.118521
	 B(4,5,11)        =         2.099001	     120.263872
	 B(5,4,10)        =         2.088913	     119.685911
	 B(5,6,12)        =         2.098732	     120.248486
	 B(6,1,7)         =         2.072075	     118.721140
	 B(6,5,11)        =         2.087712	     119.617090
	 B(7,13,17)       =         2.115289	     121.197118
	 B(7,13,18)       =         2.099552	     120.295459
	 B(7,14,15)       =         2.103943	     120.547062
	 B(7,14,16)       =         2.117707	     121.335650
	 B(13,7,14)       =         2.060738	     118.071599
	 B(15,14,16)      =         2.058452	     117.940591
	 B(17,13,18)      =         2.035752	     116.640011
	 D(1,2,3,4)       =         0.012196	       0.698803
	 D(1,2,3,9)       =        -3.117514	    -178.620412
	 D(1,6,5,4)       =         0.026091	       1.494917
	 D(1,6,5,11)      =        -3.120051	    -178.765737
	*D(1,7,13,17)     =        -1.745329	     -99.999977
	 D(1,7,13,18)     =         1.115648	      63.921935
	 D(1,7,14,15)     =        -3.087238	    -176.885688
	 D(1,7,14,16)     =         0.140414	       8.045102
	 D(2,1,6,5)       =        -0.026171	      -1.499478
	 D(2,1,6,12)      =        -3.129226	    -179.291466
	 D(2,1,7,13)      =        -2.670184	    -152.990246
	 D(2,1,7,14)      =         0.563929	      32.310778
	 D(2,3,4,5)       =        -0.012386	      -0.709643
	 D(2,3,4,10)      =         3.139401	     179.874433
	 D(3,2,1,6)       =         0.006976	       0.399711
	 D(3,2,1,7)       =        -3.139619	    -179.886900
	 D(3,4,5,6)       =        -0.007008	      -0.401540
	 D(3,4,5,11)      =         3.139163	     179.860815
	 D(4,3,2,8)       =         3.096098	     177.393372
	 D(4,5,6,12)      =         3.129134	     179.286194
	 D(5,4,3,9)       =         3.117285	     178.607273
	 D(5,6,1,7)       =         3.120303	     178.780177
	 D(6,1,2,8)       =        -3.076428	    -176.266343
	 D(6,1,7,13)      =         0.466475	      26.727044
	 D(6,1,7,14)      =        -2.582597	    -147.971932
	 D(6,5,4,10)      =         3.124383	     179.013969
	 D(7,1,2,8)       =         0.060162	       3.447046
	 D(7,1,6,12)      =         0.017247	       0.988189
	 D(8,2,3,9)       =        -0.033612	      -1.925843
	 D(9,3,4,10)      =        -0.014114	      -0.808651
	 D(10,4,5,11)     =        -0.012631	      -0.723676
	 D(11,5,6,12)     =        -0.017008	      -0.974461
	 D(13,7,14,15)    =         0.142853	       8.184889
	 D(13,7,14,16)    =        -2.912681	    -166.884320
	 D(14,7,13,17)    =         1.304825	      74.760993
	 D(14,7,13,18)    =        -2.117383	    -121.317094

	Current energy   :      -381.4413541639

	Energy change for the previous step:
		Projected    :        -0.0137504420
		Actual       :        -0.0097645511

	Performing BFGS update.
	Previous computed or guess Hessian on step 1.
	Steps to be used in Hessian update: 1
	Taking RFO optimization step.
	Going to follow RFO solution 1.
	Using RFO vector 1.

	Determining step-restricting scale parameter for RS-RFO.
	Maximum step size allowed    0.50000

	 Iter      |step|        alpha        rfo_root  
	------------------------------------------------
	    0     0.64055       1.00000           1
	    1     0.53502       1.64306           1
	    2     0.50317       1.92396           1
	    3     0.50003       1.95461           1
	    4     0.50000       1.95491           1
	------------------------------------------------
	Norm of target step-size    0.50000
	Projected energy change by RFO approximation:        -0.0038748486

	Back-transformation to cartesian coordinates...
	Could not converge backtransformation.
	Using first guess instead.

	Back-transformation to cartesian coordinates to adjust frozen coordinates...
	Successfully converged to displaced geometry.

	--- Internal Coordinate Step in ANG or DEG, aJ/ANG or AJ/DEG ---
	 ---------------------------------------------------------------------------
	   Coordinate                Previous        Force       Change         New 
	   ----------                --------       ------       ------       ------
	    1 R(1,2)          =      1.415803    -0.012906     0.001379     1.417182
	    2 R(1,6)          =      1.410886     0.000713     0.002015     1.412901
	    3 R(1,7)          =      1.459180    -0.028704    -0.007790     1.451390
	    4 R(2,3)          =      1.389468    -0.012058    -0.002156     1.387312
	    5 R(2,8)          =      1.087287    -0.002867     0.000075     1.087363
	    6 R(3,4)          =      1.401030     0.000864     0.001527     1.402557
	    7 R(3,9)          =      1.086319    -0.007273    -0.000354     1.085965
	    8 R(4,5)          =      1.402108    -0.023083    -0.001142     1.400965
	    9 R(4,10)         =      1.085962    -0.000702     0.000098     1.086060
	   10 R(5,6)          =      1.389924    -0.001954    -0.000473     1.389451
	   11 R(5,11)         =      1.086117    -0.005714    -0.000289     1.085827
	   12 R(6,12)         =      1.088411    -0.022409    -0.002214     1.086198
	   13 R(7,13)         =      1.378825    -0.053647     0.012090     1.390915
	   14 R(7,14)         =      1.320614    -0.001016    -0.002764     1.317850
	   15 R(13,17)        =      1.017598    -0.044264    -0.002439     1.015159
	   16 R(13,18)        =      1.038995    -0.187567     0.025745     1.064740
	   17 R(14,15)        =      1.017691    -0.013848     0.000558     1.018249
	   18 R(14,16)        =      1.018383    -0.025093    -0.000446     1.017937
	   19 B(1,2,3)        =    119.826005     0.000013     0.094589   119.920594
	   20 B(1,2,8)        =    120.470224    -0.000003     0.010933   120.481157
	   21 B(1,6,5)        =    119.497668     0.000082     0.201549   119.699217
	   22 B(1,6,12)       =    120.216802    -0.000098    -0.460512   119.756290
	   23 B(1,7,13)       =    122.423869     0.000141     1.141904   123.565773
	   24 B(1,7,14)       =    119.299900     0.000591     1.645662   120.945562
	   25 B(2,1,6)        =    120.113682    -0.000089    -0.264301   119.849381
	   26 B(2,1,7)        =    121.164573     0.000088     0.631900   121.796473
	   27 B(2,3,4)        =    119.726157     0.000048     0.022067   119.748224
	   28 B(2,3,9)        =    119.968836    -0.000011     0.059353   120.028189
	   29 B(3,2,8)        =    119.620329    -0.000010    -0.089989   119.530340
	   30 B(3,4,5)        =    120.697166    -0.000014     0.050449   120.747615
	   31 B(3,4,10)       =    119.614362     0.000016    -0.003934   119.610428
	   32 B(4,3,9)        =    120.301483    -0.000037    -0.085484   120.215999
	   33 B(4,5,6)        =    120.118521    -0.000042    -0.122453   119.996069
	   34 B(4,5,11)       =    120.263872    -0.000021    -0.077418   120.186454
	   35 B(5,4,10)       =    119.685911    -0.000003    -0.048625   119.637286
	   36 B(5,6,12)       =    120.248486     0.000016     0.265731   120.514217
	   37 B(6,1,7)        =    118.721140     0.000001    -0.367007   118.354133
	   38 B(6,5,11)       =    119.617090     0.000063     0.199759   119.816849
	   39 B(7,13,17)      =    121.197118     0.000042    -0.387319   120.809799
	   40 B(7,13,18)      =    120.295459    -0.000288    -4.389795   115.905664
	   41 B(7,14,15)      =    120.547062    -0.000111    -1.221952   119.325110
	   42 B(7,14,16)      =    121.335650     0.000092     0.861829   122.197479
	   43 B(13,7,14)      =    118.071599    -0.000735    -2.927648   115.143951
	   44 B(15,14,16)     =    117.940591     0.000019     0.362412   118.303003
	   45 B(17,13,18)     =    116.640011     0.000058    -1.688617   114.951394
	   46 D(1,2,3,4)      =      0.698803    -0.000007    -0.661902     0.036901
	   47 D(1,2,3,9)      =   -178.620412    -0.000004    -0.342906  -178.963318
	   48 D(1,6,5,4)      =      1.494917     0.000001     0.271696     1.766613
	   49 D(1,6,5,11)     =   -178.765737     0.000002     0.244541  -178.521197
	   50 *D(1,7,13,17)   =    -99.999977     0.000000    -0.000000   -99.999977
	   51 D(1,7,13,18)    =     63.921935    -0.000180   -17.235144    46.686791
	   52 D(1,7,14,15)    =   -176.885688     0.000003    -0.106454  -176.992142
	   53 D(1,7,14,16)    =      8.045102     0.000002    -0.154067     7.891035
	   54 D(2,1,6,5)      =     -1.499478    -0.000007    -0.912348    -2.411826
	   55 D(2,1,6,12)     =   -179.291466    -0.000009    -1.129551  -180.421017
	   56 D(2,1,7,13)     =   -152.990246    -0.000035    -4.512907  -157.503153
	   57 D(2,1,7,14)     =     32.310778    -0.000015    -2.740804    29.569974
	   58 D(2,3,4,5)      =     -0.709643     0.000001     0.016044    -0.693599
	   59 D(2,3,4,10)     =    179.874433     0.000002     0.221073   180.095506
	   60 D(3,2,1,6)      =      0.399711     0.000010     1.108770     1.508482
	   61 D(3,2,1,7)      =   -179.886900     0.000013     1.438710  -178.448190
	   62 D(3,4,5,6)      =     -0.401540     0.000002     0.183069    -0.218471
	   63 D(3,4,5,11)     =    179.860815     0.000001     0.209598   180.070413
	   64 D(4,3,2,8)      =    177.393372    -0.000004    -0.338365   177.055006
	   65 D(4,5,6,12)     =    179.286194     0.000002     0.474258   179.760452
	   66 D(5,4,3,9)      =    178.607273    -0.000002    -0.302557   178.304716
	   67 D(5,6,1,7)      =    178.780177    -0.000010    -1.233849   177.546328
	   68 D(6,1,2,8)      =   -176.266343     0.000007     0.785460  -175.480883
	   69 D(6,1,7,13)     =     26.727044    -0.000032    -4.187493    22.539551
	   70 D(6,1,7,14)     =   -147.971932    -0.000012    -2.415391  -150.387322
	   71 D(6,5,4,10)     =    179.013969     0.000001    -0.021755   178.992214
	   72 D(7,1,2,8)      =      3.447046     0.000010     1.115400     4.562445
	   73 D(7,1,6,12)     =      0.988189    -0.000012    -1.451052    -0.462863
	   74 D(8,2,3,9)      =     -1.925843    -0.000000    -0.019369    -1.945212
	   75 D(9,3,4,10)     =     -0.808651    -0.000001    -0.097528    -0.906179
	   76 D(10,4,5,11)    =     -0.723676    -0.000000     0.004774    -0.718902
	   77 D(11,5,6,12)    =     -0.974461     0.000003     0.447103    -0.527358
	   78 D(13,7,14,15)   =      8.184889     0.000012     1.331051     9.515940
	   79 D(13,7,14,16)   =   -166.884320     0.000011     1.283438  -165.600882
	   80 D(14,7,13,17)   =     74.760993    -0.000004    -1.460525    73.300468
	   81 D(14,7,13,18)   =   -121.317094    -0.000184   -18.695669  -140.012763
	 ---------------------------------------------------------------------------
	Successfully symmetrized geometry.

  ==> Convergence Check <==

  Measures of convergence in internal coordinates in au.
  Criteria marked as inactive (o), active & met (*), and active & unmet ( ).
  ---------------------------------------------------------------------------------------------
   Step     Total Energy     Delta E     MAX Force     RMS Force      MAX Disp      RMS Disp   
  ---------------------------------------------------------------------------------------------
    Convergence Criteria    1.00e-06 *    3.00e-04 *             o    1.20e-03 *             o
  ---------------------------------------------------------------------------------------------
      2    -381.44135416   -9.76e-03      2.28e-02      3.60e-03 o    3.26e-01      5.36e-02 o  ~
  ---------------------------------------------------------------------------------------------

	Writing optimization data to binary file.
	Structure for next step:
	Cartesian Geometry (in Angstrom)
	    C    -0.0340165181   0.0611439738  -0.1830870982
	    C     0.0990795176   1.2617811057   0.5579675360
	    C     0.1235556038   1.2201105095   1.9444378660
	    C     0.0170284124  -0.0122177269   2.6056373591
	    C    -0.1286004808  -1.2030231774   1.8821190677
	    C    -0.1734356150  -1.1712255054   0.4937558477
	    C    -0.0310508386   0.0539557759  -1.6344567510
	    H     0.1334391300   2.2225689879   0.0499681190
	    H     0.2085352215   2.1405816759   2.5143778266
	    H     0.0348780877  -0.0420890006   3.6911397291
	    H    -0.2114084589  -2.1519396607   2.4033881727
	    H    -0.2822257145  -2.0897504337  -0.0757190816
	    N    -0.5898414848  -0.9643572518  -2.3995945393
	    N     0.6344781048   0.9651457998  -2.3152886610
	    H     0.5823125558   0.9646919069  -3.3322007183
	    H     1.2604030510   1.6293233169  -1.8644201217
	    H    -0.0063874490  -1.6875144389  -2.8084621247
	    H    -1.5634751248  -1.2832538567  -2.1097444282
			--------------------------
			 OPTKING Finished Execution 
			--------------------------

    Structure for next step:
    Molecular point group: c1
    Full point group: C1

    Geometry (in Angstrom), charge = 1, multiplicity = 1:

    C           -0.034016518120     0.061143973828    -0.183087098212
    C            0.099079517603     1.261781105737     0.557967536041
    C            0.123555603774     1.220110509516     1.944437865974
    C            0.017028412381    -0.012217726901     2.605637359146
    C           -0.128600480815    -1.203023177440     1.882119067671
    C           -0.173435615041    -1.171225505444     0.493755847718
    C           -0.031050838615     0.053955775897    -1.634456751009
    H            0.133439129991     2.222568987854     0.049968119036
    H            0.208535221456     2.140581675931     2.514377826573
    H            0.034878087660    -0.042089000618     3.691139729129
    H           -0.211408458890    -2.151939660745     2.403388172734
    H           -0.282225714503    -2.089750433729    -0.075719081610
    N           -0.589841484766    -0.964357251809    -2.399594539286
    N            0.634478104792     0.965145799786    -2.315288660995
    H            0.582312555839     0.964691906897    -3.332200718263
    H            1.260403051023     1.629323316886    -1.864420121730
    H           -0.006387449011    -1.687514438937    -2.808462124746
    H           -1.563475124759    -1.283253856709    -2.109744428171

gradient() will perform analytic gradient computation.

[...]
       2        0.000038626060    -0.000014598537    -0.000059073715
       3       -0.000034432336     0.000028897507     0.000036777463
       4        0.000015968909    -0.000019859829     0.000008224357
       5       -0.000022952916     0.000005120177     0.000001766788
       6        0.000053786627    -0.000025911237    -0.000018148294
       7       -0.006461752850     0.003943259180     0.013991160866
       8       -0.000000221268     0.000020059492     0.000007040458
       9        0.000006167057     0.000002388596    -0.000010287384
      10        0.000005547263     0.000001020452    -0.000012910446
      11       -0.000009174935    -0.000011408195     0.000009541575
      12        0.000001390799    -0.000013787808    -0.000006591951
      13       -0.001803836871     0.012053864550    -0.012780498309
      14        0.000099176935     0.000004670002     0.000035364092
      15       -0.000006978716    -0.000010931059     0.000004483280
      16       -0.000068486883    -0.000002200508    -0.000026764265
      17        0.003466443869    -0.011238606630     0.006319097002
      18       -0.000005632696     0.000022005903    -0.000012296857


*** tstop() called on oliva.prib.upf.edu at Sat Sep 29 20:50:06 2018
Module time:
	user time   =      27.16 seconds =       0.45 minutes
	system time =       0.28 seconds =       0.00 minutes
	total time  =          7 seconds =       0.12 minutes
Total time:
	user time   =    5479.30 seconds =      91.32 minutes
	system time =      52.46 seconds =       0.87 minutes
	total time  =       1527 seconds =      25.45 minutes

			-----------------------------------------
			 OPTKING 2.0: for geometry optimizations 
			  - R.A. King,  Bethel University        
			-----------------------------------------
	At level 4: XYZ, RFO, backsteps, larger trust.

	Previous internal coordinate definitions found.
	---Fragment 1 Geometry and Gradient---
	 C          -0.1636160357        0.2073047492       -0.1322493222
	 C           1.5161265018        1.7308821963        1.2772447454
	 C           3.2035192399        0.6182318045        2.9496059093
	 C           3.2297521615       -2.0120744707        3.2414451349
	 C           1.5567968054       -3.5342156608        1.8723886734
	 C          -0.1498984636       -2.4381640043        0.2045956457
	 C          -1.8819836597        1.3302028770       -1.9574086656
	 H           1.4311448664        3.7777641247        1.1346076613
	 H           4.4772636277        1.7899263769        4.0491722577
	 H           4.5514371668       -2.8764140655        4.5513941416
	 H           1.5931484116       -5.5715031797        2.1016110090
	 H          -1.4033769345       -3.6335223702       -0.8946159063
	 N          -4.1192364762        0.2364226123       -2.6958846114
	 N          -1.2511216704        3.4031411054       -3.2038117217
	 H          -2.5289161666        4.2607558464       -4.3494630674
	 H           0.4994164861        4.1674278001       -3.0747715406
	 H          -4.0833352966       -0.6937079862       -4.3802281844
	 H          -4.8333754673       -0.9519923803       -1.3647522359
	             0.0047140014       -0.0047479799       -0.0075108772
	             0.0000386261       -0.0000145985       -0.0000590737
	            -0.0000344323        0.0000288975        0.0000367775
	             0.0000159689       -0.0000198598        0.0000082244
	            -0.0000229529        0.0000051202        0.0000017668
	             0.0000537866       -0.0000259112       -0.0000181483
	            -0.0064617528        0.0039432592        0.0139911609
	            -0.0000002213        0.0000200595        0.0000070405
	             0.0000061671        0.0000023886       -0.0000102874
	             0.0000055473        0.0000010205       -0.0000129104
	            -0.0000091749       -0.0000114082        0.0000095416
	             0.0000013908       -0.0000137878       -0.0000065920
	            -0.0018038369        0.0120538646       -0.0127804983
	             0.0000991769        0.0000046700        0.0000353641
	            -0.0000069787       -0.0000109311        0.0000044833
	            -0.0000684869       -0.0000022005       -0.0000267643
	             0.0034664439       -0.0112386066        0.0063190970
	            -0.0000056327        0.0000220059       -0.0000122969

	---Fragment 1 Intrafragment Coordinates---
	 - Coordinate -           - BOHR/RAD -       - ANG/DEG -
	 R(1,X)           =        -0.163616	      -0.086582
	 R(1,Y)           =         0.207305	       0.109701
	 R(1,Z)           =        -0.132249	      -0.069983
	 R(2,X)           =         1.516127	       0.802300
	 R(2,Y)           =         1.730882	       0.915943
	 R(2,Z)           =         1.277245	       0.675889
	 R(3,X)           =         3.203519	       1.695229
	 R(3,Y)           =         0.618232	       0.327154
	 R(3,Z)           =         2.949606	       1.560864
	 R(4,X)           =         3.229752	       1.709111
	 R(4,Y)           =        -2.012074	      -1.064744
	 R(4,Z)           =         3.241445	       1.715299
	 R(5,X)           =         1.556797	       0.823821
	 R(5,Y)           =        -3.534216	      -1.870226
	 R(5,Z)           =         1.872389	       0.990825
	 R(6,X)           =        -0.149898	      -0.079323
	 R(6,Y)           =        -2.438164	      -1.290221
	 R(6,Z)           =         0.204596	       0.108267
	 R(7,X)           =        -1.881984	      -0.995903
	 R(7,Y)           =         1.330203	       0.703913
	 R(7,Z)           =        -1.957409	      -1.035816
	 R(8,X)           =         1.431145	       0.757329
	 R(8,Y)           =         3.777764	       1.999107
	 R(8,Z)           =         1.134608	       0.600409
	 R(9,X)           =         4.477264	       2.369266
	 R(9,Y)           =         1.789926	       0.947188
	 R(9,Z)           =         4.049172	       2.142730
	 R(10,X)          =         4.551437	       2.408517
	 R(10,Y)          =        -2.876414	      -1.522133
	 R(10,Z)          =         4.551394	       2.408494
	 R(11,X)          =         1.593148	       0.843058
	 R(11,Y)          =        -5.571503	      -2.948313
	 R(11,Z)          =         2.101611	       1.112125
	 R(12,X)          =        -1.403377	      -0.742635
	 R(12,Y)          =        -3.633522	      -1.922777
	 R(12,Z)          =        -0.894616	      -0.473410
	 R(13,X)          =        -4.119236	      -2.179806
	 R(13,Y)          =         0.236423	       0.125109
	 R(13,Z)          =        -2.695885	      -1.426601
	 R(14,X)          =        -1.251122	      -0.662065
	 R(14,Y)          =         3.403141	       1.800865
	 R(14,Z)          =        -3.203812	      -1.695384
	 R(15,X)          =        -2.528916	      -1.338245
	 R(15,Y)          =         4.260756	       2.254695
	 R(15,Z)          =        -4.349463	      -2.301637
	 R(16,X)          =         0.499416	       0.264280
	 R(16,Y)          =         4.167428	       2.205308
	 R(16,Z)          =        -3.074772	      -1.627099
	 R(17,X)          =        -4.083335	      -2.160808
	 R(17,Y)          =        -0.693708	      -0.367094
	 R(17,Z)          =        -4.380228	      -2.317917
	 R(18,X)          =        -4.833375	      -2.557712
	 R(18,Y)          =        -0.951992	      -0.503773
	 R(18,Z)          =        -1.364752	      -0.722196
	*D(1,7,13,17)     =        -1.745329	     -99.999977

	Current energy   :      -381.4528304785

	Energy change for the previous step:
		Projected    :         0.0000284343
		Actual       :        -0.0000004171

	Performing BFGS update.
	Previous computed or guess Hessian on step 1.
	Steps to be used in Hessian update: 4 3
	Taking RFO optimization step.
	Going to follow RFO solution 1.
	Rejecting RFO root 1 because normalization gives large value.
	Rejecting RFO root 2 because normalization gives large value.
	Rejecting RFO root 3 because normalization gives large value.
	Rejecting RFO root 4 because normalization gives large value.
	Using RFO vector 5.
	Norm of target step-size    0.00688
	Projected energy change by RFO approximation:        -0.0000008511

	Back-transformation to cartesian coordinates...
	Successfully converged to displaced geometry.

	Back-transformation to cartesian coordinates to adjust frozen coordinates...
	Successfully converged to displaced geometry.

	--- Internal Coordinate Step in ANG or DEG, aJ/ANG or AJ/DEG ---
	 ---------------------------------------------------------------------------
	   Coordinate                Previous        Force       Change         New 
	   ----------                --------       ------       ------       ------
	    1 R(1,X)          =     -0.086582     0.000882    -0.000046    -0.086628
	    2 R(1,Y)          =      0.109701    -0.000445     0.000126     0.109827
	    3 R(1,Z)          =     -0.069983     0.000145     0.000046    -0.069937
	    4 R(2,X)          =      0.802300    -0.000318    -0.000611     0.801689
	    5 R(2,Y)          =      0.915943     0.000120     0.000051     0.915995
	    6 R(2,Z)          =      0.675889     0.000487     0.000823     0.676712
	    7 R(3,X)          =      1.695229     0.000284    -0.000534     1.694696
	    8 R(3,Y)          =      0.327154    -0.000238    -0.000106     0.327048
	    9 R(3,Z)          =      1.560864    -0.000303     0.000654     1.561518
	   10 R(4,X)          =      1.709111    -0.000132    -0.000224     1.708888
	   11 R(4,Y)          =     -1.064744     0.000164    -0.000145    -1.064889
	   12 R(4,Z)          =      1.715299    -0.000068     0.000092     1.715391
	   13 R(5,X)          =      0.823821     0.000189     0.000183     0.824004
	   14 R(5,Y)          =     -1.870226    -0.000042    -0.000061    -1.870288
	   15 R(5,Z)          =      0.990825    -0.000015    -0.000476     0.990350
	   16 R(6,X)          =     -0.079323    -0.000443     0.000014    -0.079309
	   17 R(6,Y)          =     -1.290221     0.000213     0.000112    -1.290109
	   18 R(6,Z)          =      0.108267     0.000150    -0.000214     0.108053
	   19 R(7,X)          =     -0.995903    -0.000687    -0.000205    -0.996108
	   20 R(7,Y)          =      0.703913     0.000324     0.000180     0.704093
	   21 R(7,Z)          =     -1.035816    -0.000505     0.000066    -1.035750
	   22 R(8,X)          =      0.757329     0.000002    -0.001113     0.756216
	   23 R(8,Y)          =      1.999107    -0.000165     0.000060     1.999167
	   24 R(8,Z)          =      0.600409    -0.000058     0.001481     0.601890
	   25 R(9,X)          =      2.369266    -0.000051    -0.001309     2.367957
	   26 R(9,Y)          =      0.947188    -0.000020    -0.000140     0.947049
	   27 R(9,Z)          =      2.142730     0.000085     0.001603     2.144333
	   28 R(10,X)         =      2.408517    -0.000046    -0.000601     2.407916
	   29 R(10,Y)         =     -1.522133    -0.000008    -0.000220    -1.522353
	   30 R(10,Z)         =      2.408494     0.000106     0.000447     2.408941
	   31 R(11,X)         =      0.843058     0.000076     0.000615     0.843673
	   32 R(11,Y)         =     -2.948313     0.000094    -0.000116    -2.948429
	   33 R(11,Z)         =      1.112125    -0.000079    -0.001089     1.111036
	   34 R(12,X)         =     -0.742635    -0.000011     0.000339    -0.742296
	   35 R(12,Y)         =     -1.922777     0.000114     0.000205    -1.922573
	   36 R(12,Z)         =     -0.473410     0.000054    -0.000660    -0.474070
	   37 R(13,X)         =     -2.179806     0.000812    -0.000123    -2.179929
	   38 R(13,Y)         =      0.125109     0.000235    -0.000050     0.125059
	   39 R(13,Z)         =     -1.426601     0.000421     0.000046    -1.426555
	   40 R(14,X)         =     -0.662065    -0.000817    -0.000219    -0.662284
	   41 R(14,Y)         =      1.800865    -0.000038     0.000242     1.801107
	   42 R(14,Z)         =     -1.695384    -0.000291     0.000092    -1.695292
	   43 R(15,X)         =     -1.338245     0.000057    -0.000152    -1.338396
	   44 R(15,Y)         =      2.254695     0.000090     0.000341     2.255035
	   45 R(15,Z)         =     -2.301637    -0.000037     0.000076    -2.301561
	   46 R(16,X)         =      0.264280     0.000564     0.000016     0.264296
	   47 R(16,Y)         =      2.205308     0.000018     0.000085     2.205393
	   48 R(16,Z)         =     -1.627099     0.000221     0.000093    -1.627006
	   49 R(17,X)         =     -2.160808    -0.000306    -0.000283    -2.161091
	   50 R(17,Y)         =     -0.367094    -0.000201    -0.000042    -0.367137
	   51 R(17,Z)         =     -2.317917    -0.000217    -0.000053    -2.317970
	   52 R(18,X)         =     -2.557712     0.000046     0.000100    -2.557612
	   53 R(18,Y)         =     -0.503773    -0.000181    -0.000251    -0.504024
	   54 R(18,Z)         =     -0.722196     0.000101     0.000042    -0.722154
	   55 *D(1,7,13,17)   =    -99.999977    -0.000000    -0.000000   -99.999977
	 ---------------------------------------------------------------------------
	Successfully symmetrized geometry.

  ==> Convergence Check <==

  Measures of convergence in internal coordinates in au.
  Criteria marked as inactive (o), active & met (*), and active & unmet ( ).
  ---------------------------------------------------------------------------------------------
   Step     Total Energy     Delta E     MAX Force     RMS Force      MAX Disp      RMS Disp   
  ---------------------------------------------------------------------------------------------
    Convergence Criteria    1.00e-06 *    3.00e-04 *             o    1.20e-03 *             o
  ---------------------------------------------------------------------------------------------
      5    -381.45283048   -4.17e-07 *    1.07e-04 *    3.70e-05 o    3.03e-03      9.28e-04 o  ~
  ---------------------------------------------------------------------------------------------


  **** Optimization is complete! (in 5 steps) ****

  ==> Optimization Summary <==

  Measures of convergence in internal coordinates in au.
  --------------------------------------------------------------------------------------------------------------- ~
   Step         Total Energy             Delta E       MAX Force       RMS Force        MAX Disp        RMS Disp  ~
  --------------------------------------------------------------------------------------------------------------- ~
      1    -381.452810005496   -381.452810005496      0.00065033      0.00018454      0.10786926      0.04045326  ~
      2    -381.452824593175     -0.000014587678      0.00064252      0.00021344      0.10953027      0.04045199  ~
      3    -381.452826920290     -0.000002327116      0.00034256      0.00013369      0.07820334      0.04045199  ~
      4    -381.452830061369     -0.000003141079      0.00024528      0.00007203      0.00691901      0.00260662  ~
      5    -381.452830478502     -0.000000417133      0.00010706      0.00003698      0.00302995      0.00092759  ~
  --------------------------------------------------------------------------------------------------------------- ~

	Writing optimization data to binary file.
	Final energy is   -381.4528304785020
	Final (previous) structure:
	Cartesian Geometry (in Angstrom)
	    C    -0.0865818771   0.1097009485  -0.0699833272
	    C     0.8022995901   0.9159434090   0.6758888091
	    C     1.6952293691   0.3271541806   1.5608642215
	    C     1.7091112333  -1.0647439519   1.7152988883
	    C     0.8238213878  -1.8702263780   0.9908254116
	    C    -0.0793228506  -1.2902208219   0.1082673527
	    C    -0.9959028597   0.7039130453  -1.0358160537
	    H     0.7573292455   1.9991066742   0.6004085150
	    H     2.3692658687   0.9471882437   2.1427296724
	    H     2.4085168150  -1.5221327659   2.4084940470
	    H     0.8430578293  -2.9483125003   1.1121246473
	    H    -0.7426350888  -1.9227772252  -0.4734103481
	    N    -2.1798060600   0.1251094580  -1.4266006934
	    N    -0.6620650731   1.8008647106  -1.6953841437
	    H    -1.3382447978   2.2546948853  -2.3016367249
	    H     0.2642798220   2.2053078102  -1.6270990209
	    H    -2.1608079740  -0.3670944557  -2.3179169236
	    H    -2.5577121378  -0.5037726704  -0.7221957786
	Saving final (previous) structure.
	Removing binary optimization data file.
			--------------------------
			 OPTKING Finished Execution 
			--------------------------

    Final optimized geometry and variables:
    Molecular point group: c1
    Full point group: C1

    Geometry (in Angstrom), charge = 1, multiplicity = 1:

    C           -0.086581877075     0.109700948507    -0.069983327177
    C            0.802299590109     0.915943409036     0.675888809083
    C            1.695229369054     0.327154180585     1.560864221535
    C            1.709111233260    -1.064743951885     1.715298888273
    C            0.823821387810    -1.870226377962     0.990825411590
    C           -0.079322850566    -1.290220821881     0.108267352661
    C           -0.995902859677     0.703913045315    -1.035816053721
    H            0.757329245481     1.999106674239     0.600408515042
    H            2.369265868654     0.947188243692     2.142729672446
    H            2.408516814978    -1.522132765929     2.408494047033
    H            0.843057829295    -2.948312500266     1.112124647293
    H           -0.742635088824    -1.922777225199    -0.473410348079
    N           -2.179806059991     0.125109458046    -1.426600693353
    N           -0.662065073142     1.800864710604    -1.695384143744
    H           -1.338244797781     2.254694885283    -2.301636724866
    H            0.264279822036     2.205307810239    -1.627099020891
    H           -2.160807973981    -0.367094455689    -2.317916923629
    H           -2.557712137838    -0.503772670427    -0.722195778594

	Removing binary optimization data file.
	Cleaning optimization helper files.


Properties will be evaluated at   0.000000,   0.000000,   0.000000 [a0]
OEProp: No title given, name of density matrix used for the following properties is 'SCF density'
  Nuclear Dipole Moment: [e a0]
     X:     5.9751      Y:     1.1587      Z:     1.2088

  Electronic Dipole Moment: [e a0]
     X:    -6.5138      Y:    -0.5657      Z:    -2.5161

  Dipole Moment: [e a0]
     X:    -0.5387      Y:     0.5930      Z:    -1.3073     Total:     1.5333

  Dipole Moment: [D]
     X:    -1.3693      Y:     1.5072      Z:    -3.3228     Total:     3.8972

  Quadrupole Moment: [D A]
    XX:   -38.8082     YY:   -32.7112     ZZ:   -34.4213
    XY:     1.0746     XZ:    13.4154     YZ:    -8.3894

  Traceless Quadrupole Moment: [D A]
    XX:    -3.4946     YY:     2.6024     ZZ:     0.8923
    XY:     1.0746     XZ:    13.4154     YZ:    -8.3894

  Mulliken Charges: (a.u.)
   Center  Symbol    Alpha    Beta     Spin     Total
       1     C     2.93884  2.93884  0.00000  0.12232
       2     C     3.08303  3.08303  0.00000 -0.16606
       3     C     3.06173  3.06173  0.00000 -0.12347
       4     C     3.04952  3.04952  0.00000 -0.09904
       5     C     3.06184  3.06184  0.00000 -0.12367
       6     C     3.07891  3.07891  0.00000 -0.15781
       7     C     2.77015  2.77015  0.00000  0.45970
       8     H     0.41256  0.41256  0.00000  0.17489
       9     H     0.40293  0.40293  0.00000  0.19414
      10     H     0.40078  0.40078  0.00000  0.19844
      11     H     0.40310  0.40310  0.00000  0.19380
      12     H     0.41842  0.41842  0.00000  0.16315
      13     N     3.86575  3.86575  0.00000 -0.73150
      14     N     3.83734  3.83734  0.00000 -0.67469
      15     H     0.29752  0.29752  0.00000  0.40495
      16     H     0.30077  0.30077  0.00000  0.39847
      17     H     0.30444  0.30444  0.00000  0.39112
      18     H     0.31237  0.31237  0.00000  0.37527

   Total alpha = 32.00000, Total beta = 32.00000, Total charge =  1.00000


    Psi4 stopped on: Saturday, 29 September 2018 08:50PM
    Psi4 wall time for execution: 0:25:26.66

*** Psi4 exiting successfully. Buy a developer a beer!
