
    -----------------------------------------------------------------------
          Psi4: An Open-Source Ab Initio Electronic Structure Package
                               Psi4 1.2.1 release

                         Git: Rev {HEAD} 406f4de 


    R. M. Parrish, L. A. Burns, D. G. A. Smith, A. C. Simmonett,
    A. E. DePrince III, E. G. Hohenstein, U. Bozkaya, A. Yu. Sokolov,
    R. Di Remigio, R. M. Richard, J. F. Gonthier, A. M. James,
    H. R. McAlexander, A. Kumar, M. Saitow, X. Wang, B. P. Pritchard,
    P. Verma, H. F. Schaefer III, K. Patkowski, R. A. King, E. F. Valeev,
    F. A. Evangelista, J. M. Turney, T. D. Crawford, and C. D. Sherrill,
    J. Chem. Theory Comput. 13(7) pp 3185--3197 (2017).
    (doi: 10.1021/acs.jctc.7b00174)


                         Additional Contributions by
    P. Kraus, H. Kruse, M. H. Lechner, M. C. Schieber, and R. A. Shaw

    -----------------------------------------------------------------------


    Psi4 started on: Saturday, 29 September 2018 04:49PM

    Process ID: 4513
    Host:       loro.prib.upf.edu
    PSIDATADIR: /shared/joao/test_parameterize/miniconda3/share/psi4
    Memory:     500.0 MiB
    Threads:    1
    
  ==> Input File <==

--------------------------------------------------------------------------
set_num_threads(1)
set_memory('5348 MB')

set { scf_mem_safety_factor 0.7 }

set { reference rks }
set { basis cc-pVDZ }

molecule MOL {
    0 1
    noreorient
    nocom
    symmetry c1
    O    1.141000   0.017000   0.083000
    C    2.558000   0.086000  -0.005000
    C    3.192000  -0.789000   1.067000
    O    2.342611  -1.890814   1.363503
    H    0.789000   0.590000  -0.620000
    H    2.874000   1.128000   0.115000
    H    2.871000  -0.243000  -1.001000
    H    3.362273  -0.211125   1.980786
    H    4.162568  -1.167290   0.726747
    H    2.793533  -2.412849   2.049823
}

set optking { frozen_dihedral = (" 1 2 3 4 ") }

energy, wfn = energy('B3LYP-D3', return_wfn=True)

import os
os.chdir(os.environ['HTMD_PSI4_WORKDIR'])

oeprop(wfn, 'DIPOLE', 'QUADRUPOLE', 'MULLIKEN_CHARGES')

with open('psi4out.xyz', 'w') as f:
    f.write('10 ' )
    f.write('%.12f\n' % energy)
    f.write(MOL.save_string_xyz())
--------------------------------------------------------------------------
  Threads set to 1 by Python driver.

  Memory set to   4.981 GiB by Python driver.

*** tstart() called on loro.prib.upf.edu
*** at Sat Sep 29 16:49:34 2018

   => Loading Basis Set <=

    Name: CC-PVDZ
    Role: ORBITAL
    Keyword: BASIS
    atoms 1, 4 entry O          line   198 file /shared/joao/test_parameterize/miniconda3/share/psi4/basis/cc-pvdz.gbs 
    atoms 2-3  entry C          line   138 file /shared/joao/test_parameterize/miniconda3/share/psi4/basis/cc-pvdz.gbs 
    atoms 5-10 entry H          line    22 file /shared/joao/test_parameterize/miniconda3/share/psi4/basis/cc-pvdz.gbs 


         ---------------------------------------------------------
                                   SCF
            by Justin Turney, Rob Parrish, Andy Simmonett
                             and Daniel Smith
                              RKS Reference
                        1 Threads,   5100 MiB Core
         ---------------------------------------------------------

  ==> Geometry <==

    Molecular point group: c1
    Full point group: C1

    Geometry (in Angstrom), charge = 0, multiplicity = 1:

       Center              X                  Y                   Z               Mass       
    ------------   -----------------  -----------------  -----------------  -----------------
         O            1.141000000000     0.017000000000     0.083000000000    15.994914619560
         C            2.558000000000     0.086000000000    -0.005000000000    12.000000000000
         C            3.192000000000    -0.789000000000     1.067000000000    12.000000000000
         O            2.342611000000    -1.890814000000     1.363503000000    15.994914619560
         H            0.789000000000     0.590000000000    -0.620000000000     1.007825032070
         H            2.874000000000     1.128000000000     0.115000000000     1.007825032070
         H            2.871000000000    -0.243000000000    -1.001000000000     1.007825032070
         H            3.362273000000    -0.211125000000     1.980786000000     1.007825032070
         H            4.162568000000    -1.167290000000     0.726747000000     1.007825032070
         H            2.793533000000    -2.412849000000     2.049823000000     1.007825032070

  Running in c1 symmetry.

  Rotational constants: A =      0.30672  B =      0.03830  C =      0.03466 [cm^-1]
  Rotational constants: A =   9195.21808  B =   1148.12827  C =   1039.16460 [MHz]
  Nuclear repulsion =  132.833710357847139

  Charge       = 0
  Multiplicity = 1
  Electrons    = 34
  Nalpha       = 17
  Nbeta        = 17

  ==> Algorithm <==

  SCF Algorithm Type is DF.
  DIIS enabled.
  MOM disabled.
  Fractional occupation disabled.
  Guess Type is SAD.
  Energy threshold   = 1.00e-06
  Density threshold  = 1.00e-06
  Integral threshold = 0.00e+00

  ==> Primary Basis <==

  Basis Set: CC-PVDZ
    Blend: CC-PVDZ
    Number of shells: 42
    Number of basis function: 86
    Number of Cartesian functions: 90
    Spherical Harmonics?: true
    Max angular momentum: 2

  ==> DFT Potential <==

   => Composite Functional: B3LYP-D3ZERO <= 

    B3LYP-d3zero Hyb-GGA Exchange-Correlation Functional

    P. J. Stephens, F. J. Devlin, C. F. Chabalowski, and M. J. Frisch, J. Phys. Chem. 98, 11623 (1994)

    Deriv               =              1
    GGA                 =           TRUE
    Meta                =          FALSE

    Exchange Hybrid     =           TRUE
    MP2 Hybrid          =          FALSE

   => Exchange Functionals <=

    0.0800   Slater exchange
    0.7200         Becke 88

   => Exact (HF) Exchange <=

    0.2000               HF 

   => Correlation Functionals <=

    0.1900   Vosko, Wilk & Nusair (VWN5_RPA)
    0.8100   Lee, Yang & Parr

   => Molecular Quadrature <=

    Radial Scheme       =       TREUTLER
    Pruning Scheme      =           FLAT
    Nuclear Scheme      =       TREUTLER

    BS radius alpha     =              1
    Pruning alpha       =              1
    Radial Points       =             75
    Spherical Points    =            302
    Total Points        =         222568
    Total Blocks        =           1725
    Max Points          =            256
    Max Functions       =             86

   => -D3ZERO: Empirical Dispersion <=

    Grimme's -D3 (zero-damping) Dispersion Correction
    Grimme S.; Antony J.; Ehrlich S.; Krieg H. (2010), J. Chem. Phys., 132: 154104

        S6 =   1.000000E+00
        S8 =   1.703000E+00
       SR6 =   1.261000E+00
       SR8 =   1.000000E+00
    ALPHA6 =   1.400000E+01

   => Loading Basis Set <=

    Name: (CC-PVDZ AUX)
    Role: JKFIT
    Keyword: DF_BASIS_SCF
    atoms 1, 4 entry O          line   221 file /shared/joao/test_parameterize/miniconda3/share/psi4/basis/cc-pvdz-jkfit.gbs 
    atoms 2-3  entry C          line   121 file /shared/joao/test_parameterize/miniconda3/share/psi4/basis/cc-pvdz-jkfit.gbs 
    atoms 5-10 entry H          line    51 file /shared/joao/test_parameterize/miniconda3/share/psi4/basis/cc-pvdz-jkfit.gbs 

  ==> Pre-Iterations <==

   -------------------------------------------------------
    Irrep   Nso     Nmo     Nalpha   Nbeta   Ndocc  Nsocc
   -------------------------------------------------------
     A         86      86       0       0       0       0
   -------------------------------------------------------
    Total      86      86      17      17      17       0
   -------------------------------------------------------

  ==> Integral Setup <==

  DFHelper Memory: AOs need 0.030 [GiB]; user supplied 3.486 [GiB]. Using in-core AOs.

  ==> MemDFJK: Density-Fitted J/K Matrices <==

    J tasked:                   Yes
    K tasked:                   Yes
    wK tasked:                   No
    OpenMP threads:               1
    Memory (MB):               3570
    Algorithm:                 Core
    Schwarz Cutoff:           1E-12
    Mask sparsity (%):       0.0000
    Fitting Condition:        1E-12

   => Auxiliary Basis Set <=

  Basis Set: (CC-PVDZ AUX)
    Blend: CC-PVDZ-JKFIT
    Number of shells: 150
    Number of basis function: 418
    Number of Cartesian functions: 474
    Spherical Harmonics?: true
    Max angular momentum: 3

  Minimum eigenvalue in the overlap matrix is 4.9956524656E-03.
  Using Symmetric Orthogonalization.

  SCF Guess: Superposition of Atomic Densities via on-the-fly atomic UHF.

  ==> Iterations <==

                           Total Energy        Delta E     RMS |[F,P]|

   @DF-RKS iter   0:  -230.88563927852300   -2.30886e+02   3.97634e-02 
   @DF-RKS iter   1:  -230.13903864692202    7.46601e-01   5.99674e-03 
   @DF-RKS iter   2:  -230.03061687663384    1.08422e-01   8.79242e-03 DIIS
   @DF-RKS iter   3:  -230.24743622232231   -2.16819e-01   6.54510e-04 DIIS
   @DF-RKS iter   4:  -230.24851073660804   -1.07451e-03   3.17764e-04 DIIS
   @DF-RKS iter   5:  -230.24886054580048   -3.49809e-04   5.82606e-05 DIIS
   @DF-RKS iter   6:  -230.24887196628177   -1.14205e-05   6.43644e-06 DIIS
   @DF-RKS iter   7:  -230.24887207073846   -1.04457e-07   3.51498e-06 DIIS
   @DF-RKS iter   8:  -230.24887210569165   -3.49532e-08   8.38573e-07 DIIS

  ==> Post-Iterations <==

    Orbital Energies [Eh]
    ---------------------

    Doubly Occupied:                                                      

       1A    -19.123012     2A    -19.122967     3A    -10.226542  
       4A    -10.226357     5A     -1.016439     6A     -0.995320  
       7A     -0.734001     8A     -0.600120     9A     -0.525330  
      10A     -0.486441    11A     -0.452608    12A     -0.413822  
      13A     -0.396545    14A     -0.331801    15A     -0.321737  
      16A     -0.263669    17A     -0.249050  

    Virtual:                                                              

      18A      0.041068    19A      0.074909    20A      0.091102  
      21A      0.104601    22A      0.137037    23A      0.167958  
      24A      0.173350    25A      0.237478    26A      0.264356  
      27A      0.450966    28A      0.460966    29A      0.496258  
      30A      0.527557    31A      0.551005    32A      0.553785  
      33A      0.617791    34A      0.627894    35A      0.643430  
      36A      0.644711    37A      0.685751    38A      0.697445  
      39A      0.832996    40A      0.875640    41A      0.917870  
      42A      0.988417    43A      1.009886    44A      1.050924  
      45A      1.056552    46A      1.168500    47A      1.219449  
      48A      1.240125    49A      1.260268    50A      1.354089  
      51A      1.358245    52A      1.413550    53A      1.482236  
      54A      1.539928    55A      1.591916    56A      1.609151  
      57A      1.614670    58A      1.615606    59A      1.622004  
      60A      1.725843    61A      1.745989    62A      1.756452  
      63A      1.850599    64A      1.887131    65A      1.976191  
      66A      1.979572    67A      2.020796    68A      2.023477  
      69A      2.111035    70A      2.166021    71A      2.192732  
      72A      2.314396    73A      2.408379    74A      2.410397  
      75A      2.517561    76A      2.531097    77A      2.907827  
      78A      2.974537    79A      2.987908    80A      3.019692  
      81A      3.054277    82A      3.174241    83A      3.191741  
      84A      3.219445    85A      3.677383    86A      3.728938  

    Final Occupation by Irrep:
              A 
    DOCC [    17 ]

  Energy converged.

  @DF-RKS Final Energy:  -230.24887210569165

   => Energetics <=

    Nuclear Repulsion Energy =            132.8337103578471385
    One-Electron Energy =                -577.5618492969354065
    Two-Electron Energy =                 239.0217500674820030
    DFT Exchange-Correlation Energy =     -24.5383827240854195
    Empirical Dispersion Energy =          -0.0041005100000000
    VV10 Nonlocal Energy =                  0.0000000000000000
    Total Energy =                       -230.2488721056916461



Properties will be evaluated at   0.000000,   0.000000,   0.000000 [a0]

Properties computed using the SCF density matrix

  Nuclear Dipole Moment: [e a0]
     X:   149.7065      Y:   -40.6759      Z:    40.0535

  Electronic Dipole Moment: [e a0]
     X:  -148.9630      Y:    41.0607      Z:   -40.1799

  Dipole Moment: [e a0]
     X:     0.7435      Y:     0.3848      Z:    -0.1264     Total:     0.8467

  Dipole Moment: [D]
     X:     1.8898      Y:     0.9780      Z:    -0.3214     Total:     2.1520


*** tstop() called on loro.prib.upf.edu at Sat Sep 29 16:49:50 2018
Module time:
	user time   =      12.81 seconds =       0.21 minutes
	system time =       0.25 seconds =       0.00 minutes
	total time  =         16 seconds =       0.27 minutes
Total time:
	user time   =      12.81 seconds =       0.21 minutes
	system time =       0.25 seconds =       0.00 minutes
	total time  =         16 seconds =       0.27 minutes


Properties will be evaluated at   0.000000,   0.000000,   0.000000 [a0]
OEProp: No title given, name of density matrix used for the following properties is 'SCF density'
  Nuclear Dipole Moment: [e a0]
     X:   149.7065      Y:   -40.6759      Z:    40.0535

  Electronic Dipole Moment: [e a0]
     X:  -148.9630      Y:    41.0607      Z:   -40.1799

  Dipole Moment: [e a0]
     X:     0.7435      Y:     0.3848      Z:    -0.1264     Total:     0.8467

  Dipole Moment: [D]
     X:     1.8898      Y:     0.9780      Z:    -0.3214     Total:     2.1520

  Quadrupole Moment: [D A]
    XX:   -15.5484     YY:   -23.3286     ZZ:   -21.1269
    XY:    -1.8114     XZ:     3.4657     YZ:    -3.2016

  Traceless Quadrupole Moment: [D A]
    XX:     4.4529     YY:    -3.3273     ZZ:    -1.1256
    XY:    -1.8114     XZ:     3.4657     YZ:    -3.2016

  Mulliken Charges: (a.u.)
   Center  Symbol    Alpha    Beta     Spin     Total
       1     O     4.13051  4.13051  0.00000 -0.26101
       2     C     2.93472  2.93472  0.00000  0.13057
       3     C     2.93487  2.93487  0.00000  0.13027
       4     O     4.13073  4.13073  0.00000 -0.26146
       5     H     0.43113  0.43113  0.00000  0.13775
       6     H     0.50274  0.50274  0.00000 -0.00548
       7     H     0.50086  0.50086  0.00000 -0.00173
       8     H     0.50074  0.50074  0.00000 -0.00149
       9     H     0.50263  0.50263  0.00000 -0.00526
      10     H     0.43108  0.43108  0.00000  0.13785

   Total alpha = 17.00000, Total beta = 17.00000, Total charge =  0.00000


    Psi4 stopped on: Saturday, 29 September 2018 04:49PM
    Psi4 wall time for execution: 0:00:15.90

*** Psi4 exiting successfully. Buy a developer a beer!
