
    -----------------------------------------------------------------------
          Psi4: An Open-Source Ab Initio Electronic Structure Package
                               Psi4 1.2.1 release

                         Git: Rev {HEAD} 406f4de 


    R. M. Parrish, L. A. Burns, D. G. A. Smith, A. C. Simmonett,
    A. E. DePrince III, E. G. Hohenstein, U. Bozkaya, A. Yu. Sokolov,
    R. Di Remigio, R. M. Richard, J. F. Gonthier, A. M. James,
    H. R. McAlexander, A. Kumar, M. Saitow, X. Wang, B. P. Pritchard,
    P. Verma, H. F. Schaefer III, K. Patkowski, R. A. King, E. F. Valeev,
    F. A. Evangelista, J. M. Turney, T. D. Crawford, and C. D. Sherrill,
    J. Chem. Theory Comput. 13(7) pp 3185--3197 (2017).
    (doi: 10.1021/acs.jctc.7b00174)


                         Additional Contributions by
    P. Kraus, H. Kruse, M. H. Lechner, M. C. Schieber, and R. A. Shaw

    -----------------------------------------------------------------------


    Psi4 started on: Saturday, 29 September 2018 08:27PM

    Process ID: 28859
    Host:       arancio.prib.upf.edu
    PSIDATADIR: /shared/joao/test_parameterize/miniconda3/share/psi4
    Memory:     500.0 MiB
    Threads:    1
    
  ==> Input File <==

--------------------------------------------------------------------------
set_num_threads(4)
set_memory('3000 MB')

set { scf_mem_safety_factor 0.7 }

set { reference rks }
set { basis 6-31G* }

molecule MOL {
    1 1
    noreorient
    nocom
    symmetry c1
    C   -0.000000  -0.000000  -0.177864
    C    0.036678   1.219374   0.524165
    C    0.031765   1.213120   1.915444
    C    0.000000   0.000000   2.610107
    C   -0.031765  -1.213120   1.915444
    C   -0.036678  -1.219375   0.524165
    C   -0.000000   0.000000  -1.644734
    H    0.018170   2.164705  -0.010854
    H    0.042402   2.152895   2.457886
    H    0.000000   0.000000   3.695756
    H   -0.042402  -2.152895   2.457886
    H   -0.018170  -2.164705  -0.010853
    N   -0.712590  -0.905950  -2.308461
    N    0.712590   0.905950  -2.308460
    H    0.673432   1.006470  -3.315997
    H    1.377190   1.485970  -1.813316
    H   -0.746805  -1.861331  -1.977763
    H   -1.288839  -0.674037  -3.109035
}

set optking { frozen_dihedral = (" 1 7 13 17 ") }

set optking { dynamic_level = 1 
 geom_maxiter = 250
 print_trajectory_xyz_file = True }

energy, wfn = optimize('B3LYP-D3', return_wfn=True)

import os
os.chdir(os.environ['HTMD_PSI4_WORKDIR'])

oeprop(wfn, 'DIPOLE', 'QUADRUPOLE', 'MULLIKEN_CHARGES')

with open('psi4out.xyz', 'w') as f:
    f.write('18 ' )
    f.write('%.12f\n' % energy)
    f.write(MOL.save_string_xyz())
--------------------------------------------------------------------------
  Threads set to 4 by Python driver.

  Memory set to   2.794 GiB by Python driver.
gradient() will perform analytic gradient computation.

*** tstart() called on arancio.prib.upf.edu
*** at Sat Sep 29 20:27:30 2018

   => Loading Basis Set <=

    Name: 6-31G*
    Role: ORBITAL
    Keyword: BASIS
    atoms 1-7         entry C          line   111 file /shared/joao/test_parameterize/miniconda3/share/psi4/basis/6-31gs.gbs 
    atoms 8-12, 15-18 entry H          line    44 file /shared/joao/test_parameterize/miniconda3/share/psi4/basis/6-31gs.gbs 
    atoms 13-14       entry N          line   128 file /shared/joao/test_parameterize/miniconda3/share/psi4/basis/6-31gs.gbs 


         ---------------------------------------------------------
                                   SCF
            by Justin Turney, Rob Parrish, Andy Simmonett
                             and Daniel Smith
                              RKS Reference
                        4 Threads,   2861 MiB Core
         ---------------------------------------------------------

  ==> Geometry <==

    Molecular point group: c1
    Full point group: C1

    Geometry (in Angstrom), charge = 1, multiplicity = 1:

       Center              X                  Y                   Z               Mass       
    ------------   -----------------  -----------------  -----------------  -----------------
         C            0.000000000000     0.000000000000    -0.177864000000    12.000000000000
         C            0.036678000000     1.219374000000     0.524165000000    12.000000000000
         C            0.031765000000     1.213120000000     1.915444000000    12.000000000000
         C            0.000000000000     0.000000000000     2.610107000000    12.000000000000
         C           -0.031765000000    -1.213120000000     1.915444000000    12.000000000000
         C           -0.036678000000    -1.219375000000     0.524165000000    12.000000000000
         C            0.000000000000     0.000000000000    -1.644734000000    12.000000000000
         H            0.018170000000     2.164705000000    -0.010854000000     1.007825032070
         H            0.042402000000     2.152895000000     2.457886000000     1.007825032070
         H            0.000000000000     0.000000000000     3.695756000000     1.007825032070
         H           -0.042402000000    -2.152895000000     2.457886000000     1.007825032070
         H           -0.018170000000    -2.164705000000    -0.010853000000     1.007825032070
         N           -0.712590000000    -0.905950000000    -2.308461000000    14.003074004780
         N            0.712590000000     0.905950000000    -2.308460000000    14.003074004780
         H            0.673432000000     1.006470000000    -3.315997000000     1.007825032070
         H            1.377190000000     1.485970000000    -1.813316000000     1.007825032070
         H           -0.746805000000    -1.861331000000    -1.977763000000     1.007825032070
         H           -1.288839000000    -0.674037000000    -3.109035000000     1.007825032070

  Running in c1 symmetry.

  Rotational constants: A =      0.12140  B =      0.03963  C =      0.03131 [cm^-1]
  Rotational constants: A =   3639.50510  B =   1188.04235  C =    938.50958 [MHz]
  Nuclear repulsion =  416.874532896362098

  Charge       = 1
  Multiplicity = 1
  Electrons    = 64
  Nalpha       = 32
  Nbeta        = 32

  ==> Algorithm <==

  SCF Algorithm Type is DF.
  DIIS enabled.
  MOM disabled.
  Fractional occupation disabled.
  Guess Type is SAD.
  Energy threshold   = 1.00e-08
  Density threshold  = 1.00e-08
  Integral threshold = 0.00e+00

  ==> Primary Basis <==

  Basis Set: 6-31G*
    Blend: 6-31G*
    Number of shells: 72
    Number of basis function: 153
    Number of Cartesian functions: 153
    Spherical Harmonics?: false
    Max angular momentum: 2

  ==> DFT Potential <==

   => Composite Functional: B3LYP-D3ZERO <= 

    B3LYP-d3zero Hyb-GGA Exchange-Correlation Functional

    P. J. Stephens, F. J. Devlin, C. F. Chabalowski, and M. J. Frisch, J. Phys. Chem. 98, 11623 (1994)

    Deriv               =              1
    GGA                 =           TRUE
    Meta                =          FALSE

    Exchange Hybrid     =           TRUE
    MP2 Hybrid          =          FALSE

   => Exchange Functionals <=

    0.0800   Slater exchange
    0.7200         Becke 88

   => Exact (HF) Exchange <=

    0.2000               HF 

   => Correlation Functionals <=

    0.1900   Vosko, Wilk & Nusair (VWN5_RPA)
    0.8100   Lee, Yang & Parr

   => Molecular Quadrature <=

    Radial Scheme       =       TREUTLER
    Pruning Scheme      =           FLAT
    Nuclear Scheme      =       TREUTLER

    BS radius alpha     =              1
    Pruning alpha       =              1
    Radial Points       =             75
    Spherical Points    =            302
    Total Points        =         396943
    Total Blocks        =           3013
    Max Points          =            256
    Max Functions       =            149

   => -D3ZERO: Empirical Dispersion <=

    Grimme's -D3 (zero-damping) Dispersion Correction
    Grimme S.; Antony J.; Ehrlich S.; Krieg H. (2010), J. Chem. Phys., 132: 154104

        S6 =   1.000000E+00
        S8 =   1.703000E+00
       SR6 =   1.261000E+00
       SR8 =   1.000000E+00
    ALPHA6 =   1.400000E+01

   => Loading Basis Set <=

    Name: (6-31G* AUX)
    Role: JKFIT
    Keyword: DF_BASIS_SCF
    atoms 1-7         entry C          line   121 file /shared/joao/test_parameterize/miniconda3/share/psi4/basis/cc-pvdz-jkfit.gbs 
    atoms 8-12, 15-18 entry H          line    51 file /shared/joao/test_parameterize/miniconda3/share/psi4/basis/cc-pvdz-jkfit.gbs 
    atoms 13-14       entry N          line   171 file /shared/joao/test_parameterize/miniconda3/share/psi4/basis/cc-pvdz-jkfit.gbs 

  ==> Pre-Iterations <==

   -------------------------------------------------------
    Irrep   Nso     Nmo     Nalpha   Nbeta   Ndocc  Nsocc
   -------------------------------------------------------
     A        153     153       0       0       0       0
   -------------------------------------------------------
    Total     153     153      32      32      32       0
   -------------------------------------------------------

  ==> Integral Setup <==

  ==> DiskDFJK: Density-Fitted J/K Matrices <==

    J tasked:                  Yes
    K tasked:                  Yes
    wK tasked:                  No
    OpenMP threads:              4
    Integrals threads:           4
    Memory (MB):              2002
    Algorithm:                Core
    Integral Cache:           NONE
    Schwarz Cutoff:          1E-12
    Fitting Condition:       1E-12

   => Auxiliary Basis Set <=

  Basis Set: (6-31G* AUX)
    Blend: CC-PVDZ-JKFIT
    Number of shells: 297
    Number of basis function: 954
    Number of Cartesian functions: 954
    Spherical Harmonics?: false
    Max angular momentum: 3

  Minimum eigenvalue in the overlap matrix is 4.8583298384E-04.
  Using Symmetric Orthogonalization.

  SCF Guess: Superposition of Atomic Densities via on-the-fly atomic UHF.

  ==> Iterations <==

                           Total Energy        Delta E     RMS |[F,P]|

   @DF-RKS iter   0:  -379.62121129058499   -3.79621e+02   6.73266e-02 
   @DF-RKS iter   1:  -381.01180039696197   -1.39059e+00   1.19258e-02 
   @DF-RKS iter   2:  -380.90376890059457    1.08031e-01   1.33525e-02 DIIS
   @DF-RKS iter   3:  -381.43757279916480   -5.33804e-01   1.90471e-03 DIIS
   @DF-RKS iter   4:  -381.44586180280476   -8.28900e-03   8.20408e-04 DIIS
   @DF-RKS iter   5:  -381.44751232424176   -1.65052e-03   2.63836e-04 DIIS
   @DF-RKS iter   6:  -381.44768015070156   -1.67826e-04   8.36704e-05 DIIS
   @DF-RKS iter   7:  -381.44769848112850   -1.83304e-05   1.44872e-05 DIIS
   @DF-RKS iter   8:  -381.44769901163824   -5.30510e-07   6.41959e-06 DIIS
   @DF-RKS iter   9:  -381.44769913402052   -1.22382e-07   2.05660e-06 DIIS
   @DF-RKS iter  10:  -381.44769914760400   -1.35835e-08   7.14477e-07 DIIS
   @DF-RKS iter  11:  -381.44769914916100   -1.55700e-09   7.50633e-08 DIIS
   @DF-RKS iter  12:  -381.44769914917526   -1.42677e-11   4.06284e-08 DIIS
   @DF-RKS iter  13:  -381.44769914917987   -4.60432e-12   2.39667e-08 DIIS
   @DF-RKS iter  14:  -381.44769914918140   -1.53477e-12   4.55022e-09 DIIS

  ==> Post-Iterations <==

    Orbital Energies [Eh]
    ---------------------

    Doubly Occupied:                                                      

       1A    -14.575296     2A    -14.550384     3A    -10.500497  
       4A    -10.373927     5A    -10.357657     6A    -10.357245  
       7A    -10.342869     8A    -10.341157     9A    -10.340714  
      10A     -1.182456    11A     -1.089786    12A     -1.014626  
      13A     -0.926248    14A     -0.903060    15A     -0.844855  
      16A     -0.782518    17A     -0.773969    18A     -0.740926  
      19A     -0.731781    20A     -0.695043    21A     -0.673486  
      22A     -0.630962    23A     -0.608413    24A     -0.589689  
      25A     -0.577544    26A     -0.568540    27A     -0.516153  
      28A     -0.507924    29A     -0.499064    30A     -0.462579  
      31A     -0.408825    32A     -0.405562  

    Virtual:                                                              

      33A     -0.232808    34A     -0.156149    35A     -0.142828  
      36A     -0.107776    37A     -0.076381    38A     -0.050895  
      39A     -0.040431    40A     -0.027703    41A      0.006647  
      42A      0.018620    43A      0.029397    44A      0.059916  
      45A      0.074219    46A      0.088002    47A      0.125090  
      48A      0.144671    49A      0.156383    50A      0.168274  
      51A      0.209138    52A      0.239138    53A      0.300269  
      54A      0.349964    55A      0.357261    56A      0.380387  
      57A      0.391688    58A      0.398579    59A      0.417714  
      60A      0.421880    61A      0.439334    62A      0.450174  
      63A      0.456757    64A      0.470621    65A      0.473749  
      66A      0.475975    67A      0.487481    68A      0.506260  
      69A      0.508200    70A      0.539198    71A      0.554730  
      72A      0.586345    73A      0.612567    74A      0.651326  
      75A      0.659543    76A      0.678460    77A      0.689214  
      78A      0.704716    79A      0.715627    80A      0.723188  
      81A      0.757872    82A      0.766756    83A      0.777410  
      84A      0.798018    85A      0.812056    86A      0.833523  
      87A      0.850651    88A      0.901087    89A      0.956388  
      90A      0.966841    91A      0.980612    92A      1.016973  
      93A      1.027589    94A      1.079998    95A      1.140413  
      96A      1.156398    97A      1.260428    98A      1.276163  
      99A      1.278315   100A      1.305608   101A      1.325807  
     102A      1.341392   103A      1.360331   104A      1.367505  
     105A      1.400292   106A      1.455118   107A      1.541719  
     108A      1.602413   109A      1.632309   110A      1.660697  
     111A      1.686762   112A      1.735470   113A      1.752762  
     114A      1.803371   115A      1.813872   116A      1.833046  
     117A      1.893406   118A      1.920754   119A      1.949508  
     120A      1.981170   121A      1.994769   122A      2.009373  
     123A      2.015650   124A      2.055614   125A      2.123765  
     126A      2.127002   127A      2.152613   128A      2.190735  
     129A      2.203152   130A      2.309079   131A      2.346663  
     132A      2.405291   133A      2.447044   134A      2.452492  
     135A      2.488432   136A      2.519527   137A      2.544841  
     138A      2.589632   139A      2.599482   140A      2.627631  
     141A      2.732069   142A      2.856890   143A      2.981815  
     144A      3.257911   145A      3.624649   146A      3.670847  
     147A      3.914249   148A      3.946933   149A      3.963692  
     150A      4.045209   151A      4.173408   152A      4.252611  
     153A      4.545358  

    Final Occupation by Irrep:
              A 
    DOCC [    32 ]

  Energy converged.

  @DF-RKS Final Energy:  -381.44769914918140

   => Energetics <=

    Nuclear Repulsion Energy =            416.8745328963620977
    One-Electron Energy =               -1328.9475759952413227
    Two-Electron Energy =                 575.0453877773663862
    DFT Exchange-Correlation Energy =     -44.4081471876685896
    Empirical Dispersion Energy =          -0.0118966400000000
    VV10 Nonlocal Energy =                  0.0000000000000000
    Total Energy =                       -381.4476991491814033



Properties will be evaluated at   0.000000,   0.000000,   0.000000 [a0]

Properties computed using the SCF density matrix

  Nuclear Dipole Moment: [e a0]
     X:     0.0283      Y:    -0.0811      Z:     0.1051

  Electronic Dipole Moment: [e a0]
     X:     0.0356      Y:     0.1792      Z:    -2.3117

  Dipole Moment: [e a0]
     X:     0.0639      Y:     0.0980      Z:    -2.2066     Total:     2.2097

  Dipole Moment: [D]
     X:     0.1624      Y:     0.2492      Z:    -5.6086     Total:     5.6165


*** tstop() called on arancio.prib.upf.edu at Sat Sep 29 20:27:56 2018
Module time:
	user time   =      94.42 seconds =       1.57 minutes
	system time =       0.50 seconds =       0.01 minutes
	total time  =         26 seconds =       0.43 minutes
Total time:
	user time   =      94.42 seconds =       1.57 minutes
	system time =       0.50 seconds =       0.01 minutes
	total time  =         26 seconds =       0.43 minutes

*** tstart() called on arancio.prib.upf.edu
*** at Sat Sep 29 20:27:56 2018


         ------------------------------------------------------------
                                   SCF GRAD                          
                          Rob Parrish, Justin Turney,                
                       Andy Simmonett, and Alex Sokolov              
         ------------------------------------------------------------

  ==> Geometry <==

    Molecular point group: c1
    Full point group: C1

    Geometry (in Angstrom), charge = 1, multiplicity = 1:

       Center              X                  Y                   Z               Mass       
    ------------   -----------------  -----------------  -----------------  -----------------
         C            0.000000000000     0.000000000000    -0.177864000000    12.000000000000
         C            0.036678000000     1.219374000000     0.524165000000    12.000000000000
         C            0.031765000000     1.213120000000     1.915444000000    12.000000000000
         C            0.000000000000     0.000000000000     2.610107000000    12.000000000000
         C           -0.031765000000    -1.213120000000     1.915444000000    12.000000000000
         C           -0.036678000000    -1.219375000000     0.524165000000    12.000000000000
         C            0.000000000000     0.000000000000    -1.644734000000    12.000000000000
         H            0.018170000000     2.164705000000    -0.010854000000     1.007825032070
         H            0.042402000000     2.152895000000     2.457886000000     1.007825032070
         H            0.000000000000     0.000000000000     3.695756000000     1.007825032070
         H           -0.042402000000    -2.152895000000     2.457886000000     1.007825032070
         H           -0.018170000000    -2.164705000000    -0.010853000000     1.007825032070
         N           -0.712590000000    -0.905950000000    -2.308461000000    14.003074004780
         N            0.712590000000     0.905950000000    -2.308460000000    14.003074004780
         H            0.673432000000     1.006470000000    -3.315997000000     1.007825032070
         H            1.377190000000     1.485970000000    -1.813316000000     1.007825032070
         H           -0.746805000000    -1.861331000000    -1.977763000000     1.007825032070
         H           -1.288839000000    -0.674037000000    -3.109035000000     1.007825032070

  Nuclear repulsion =  416.874532896362098

  ==> Basis Set <==

  Basis Set: 6-31G*
    Blend: 6-31G*
    Number of shells: 72
    Number of basis function: 153
    Number of Cartesian functions: 153
    Spherical Harmonics?: false
    Max angular momentum: 2

  ==> DFJKGrad: Density-Fitted SCF Gradients <==

    Gradient:                    1
    J tasked:                  Yes
    K tasked:                  Yes
    wK tasked:                  No
    OpenMP threads:              4
    Integrals threads:           4
    Memory (MB):              2002
    Schwarz Cutoff:          0E+00
    Fitting Condition:       1E-12

   => Auxiliary Basis Set <=

  Basis Set: (6-31G* AUX)
    Blend: CC-PVDZ-JKFIT
    Number of shells: 297
    Number of basis function: 954
    Number of Cartesian functions: 954
    Spherical Harmonics?: false
    Max angular momentum: 3

  ==> DFT Potential <==

   => Composite Functional: B3LYP-D3ZERO <= 

    B3LYP-d3zero Hyb-GGA Exchange-Correlation Functional

    P. J. Stephens, F. J. Devlin, C. F. Chabalowski, and M. J. Frisch, J. Phys. Chem. 98, 11623 (1994)

    Deriv               =              1
    GGA                 =           TRUE
    Meta                =          FALSE

    Exchange Hybrid     =           TRUE
    MP2 Hybrid          =          FALSE

   => Exchange Functionals <=

    0.0800   Slater exchange
    0.7200         Becke 88

   => Exact (HF) Exchange <=

    0.2000               HF 

   => Correlation Functionals <=

    0.1900   Vosko, Wilk & Nusair (VWN5_RPA)
    0.8100   Lee, Yang & Parr

   => Molecular Quadrature <=

    Radial Scheme       =       TREUTLER
    Pruning Scheme      =           FLAT
    Nuclear Scheme      =       TREUTLER

    BS radius alpha     =              1
    Pruning alpha       =              1
    Radial Points       =             75
    Spherical Points    =            302
    Total Points        =         396943
    Total Blocks        =           3013
    Max Points          =            256
    Max Functions       =            149


  -Total Gradient:
     Atom            X                  Y                   Z
    ------   -----------------  -----------------  -----------------
       1       -0.010756265100     0.005640516445    -0.000987728534
       2       -0.002033931514    -0.000241571671     0.001054553712
       3        0.001176989171     0.001028854942    -0.000872233569
       4       -0.000173245025    -0.001250045605    -0.000104276077
       5       -0.000275388525     0.001345078829     0.001619494209
       6        0.000380511116    -0.002286111275    -0.002353098275
       7       -0.013907834081    -0.009512150590    -0.006680985681
       8       -0.000315260622    -0.000003232946    -0.000131011145
       9        0.000218629392    -0.000058241967     0.000095662057
      10        0.000017062447     0.000042942646     0.000052004366
      11        0.000020793041    -0.000020868310    -0.000058364794
      12        0.000510382333     0.000917097699    -0.001608046620
      13        0.010324447667     0.010274925478     0.013978670671
      14        0.009409510004    -0.003198762512    -0.003972882439
      15       -0.001039919463     0.003005686032     0.000998064237
      16        0.003825722429    -0.004886912525    -0.001144001344
      17        0.012353967376    -0.003557016984    -0.006675847014
      18       -0.009741562874     0.002754463282     0.006778717998


*** tstop() called on arancio.prib.upf.edu at Sat Sep 29 20:28:03 2018
Module time:
	user time   =      27.37 seconds =       0.46 minutes
	system time =       0.27 seconds =       0.00 minutes
	total time  =          7 seconds =       0.12 minutes
Total time:
	user time   =     121.85 seconds =       2.03 minutes
	system time =       0.77 seconds =       0.01 minutes
	total time  =         33 seconds =       0.55 minutes

			-----------------------------------------
			 OPTKING 2.0: for geometry optimizations 
			  - R.A. King,  Bethel University        
			-----------------------------------------
	At level 1: Red. Int., RFO, no backsteps, dynamic trust

	Internal coordinates to be generated automatically.
	Detected frag 1 with atoms:  1 2 3 4 5 6 7 8 9 10 11 12 13 14 15 16 17 18
	---Fragment 1 Bond Connectivity---
	 1 : 2 6 7
	 2 : 1 3 8
	 3 : 2 4 9
	 4 : 3 5 10
	 5 : 4 6 11
	 6 : 1 5 12
	 7 : 1 13 14
	 8 : 2
	 9 : 3
	 10 : 4
	 11 : 5
	 12 : 6
	 13 : 7 17 18
	 14 : 7 15 16
	 15 : 14
	 16 : 14
	 17 : 13
	 18 : 13

	Assuming in current code that numbering for constraints corresponds to unified fragment.
	Frozen dihedral atom list: 
	     1     7    13    17
	---Fragment 1 Geometry and Gradient---
	 C           0.0000000000        0.0000000000       -0.3361142489
	 C           0.0693113751        2.3042829136        0.9905282984
	 C           0.0600271506        2.2924645663        3.6196645829
	 C           0.0000000000        0.0000000000        4.9323874075
	 C          -0.0600271506       -2.2924645663        3.6196645829
	 C          -0.0693113751       -2.3042848033        0.9905282984
	 C           0.0000000000        0.0000000000       -3.1080968214
	 H           0.0343363238        4.0906996085       -0.0205110874
	 H           0.0801281675        4.0683819429        4.6447314059
	 H           0.0000000000        0.0000000000        6.9839666940
	 H          -0.0801281675       -4.0683819429        4.6447314059
	 H          -0.0343363238       -4.0906996085       -0.0205091977
	 N          -1.3465999450       -1.7119973901       -4.3623590784
	 N           1.3465999450        1.7119973901       -4.3623571887
	 H           1.2726020491        1.9019526610       -6.2663261875
	 H           2.6025119329        2.8080763417       -3.4266706324
	 H          -1.4112569247       -3.5174058327       -3.7374304258
	 H          -2.4355527394       -1.2737453334       -5.8752246876
	            -0.0107562651        0.0056405164       -0.0009877285
	            -0.0020339315       -0.0002415717        0.0010545537
	             0.0011769892        0.0010288549       -0.0008722336
	            -0.0001732450       -0.0012500456       -0.0001042761
	            -0.0002753885        0.0013450788        0.0016194942
	             0.0003805111       -0.0022861113       -0.0023530983
	            -0.0139078341       -0.0095121506       -0.0066809857
	            -0.0003152606       -0.0000032329       -0.0001310111
	             0.0002186294       -0.0000582420        0.0000956621
	             0.0000170624        0.0000429426        0.0000520044
	             0.0000207930       -0.0000208683       -0.0000583648
	             0.0005103823        0.0009170977       -0.0016080466
	             0.0103244477        0.0102749255        0.0139786707
	             0.0094095100       -0.0031987625       -0.0039728824
	            -0.0010399195        0.0030056860        0.0009980642
	             0.0038257224       -0.0048869125       -0.0011440013
	             0.0123539674       -0.0035570170       -0.0066758470
	            -0.0097415629        0.0027544633        0.0067787180

	Previous optimization step data not found.  Starting new optimization.

	---Fragment 1 Intrafragment Coordinates---
	 - Coordinate -           - BOHR/RAD -       - ANG/DEG -
	 R(1,2)           =         2.659794	       1.407502
	 R(1,6)           =         2.659796	       1.407503
	 R(1,7)           =         2.771983	       1.466870
	 R(2,3)           =         2.629179	       1.391302
	 R(2,8)           =         2.052976	       1.086388
	 R(3,4)           =         2.642393	       1.398294
	 R(3,9)           =         2.050622	       1.085142
	 R(4,5)           =         2.642393	       1.398294
	 R(4,10)          =         2.051579	       1.085649
	 R(5,6)           =         2.629179	       1.391302
	 R(5,11)          =         2.050622	       1.085142
	 R(6,12)          =         2.052973	       1.086386
	 R(7,13)          =         2.513452	       1.330061
	 R(7,14)          =         2.513451	       1.330061
	 R(13,17)         =         1.911600	       1.011575
	 R(13,18)         =         1.914849	       1.013294
	 R(14,15)         =         1.914852	       1.013296
	 R(14,16)         =         1.911600	       1.011575
	 B(1,2,3)         =         2.088380	     119.655376
	 B(1,2,8)         =         2.103396	     120.515689
	 B(1,6,5)         =         2.088379	     119.655315
	 B(1,6,12)        =         2.103396	     120.515729
	 B(1,7,13)        =         2.093264	     119.935172
	 B(1,7,14)        =         2.093263	     119.935135
	 B(2,1,6)         =         2.097220	     120.161857
	 B(2,1,7)         =         2.092983	     119.919082
	 B(2,3,4)         =         2.095279	     120.050636
	 B(2,3,9)         =         2.089719	     119.732108
	 B(3,2,8)         =         2.090149	     119.756722
	 B(3,4,5)         =         2.101793	     120.423859
	 B(3,4,10)        =         2.090696	     119.788070
	 B(4,3,9)         =         2.098135	     120.214297
	 B(4,5,6)         =         2.095280	     120.050677
	 B(4,5,11)        =         2.098135	     120.214297
	 B(5,4,10)        =         2.090696	     119.788070
	 B(5,6,12)        =         2.090149	     119.756743
	 B(6,1,7)         =         2.092982	     119.919061
	 B(6,5,11)        =         2.089719	     119.732067
	 B(7,13,17)       =         2.092411	     119.886320
	 B(7,13,18)       =         2.144860	     122.891411
	 B(7,14,15)       =         2.144860	     122.891405
	 B(7,14,16)       =         2.092412	     119.886393
	 B(13,7,14)       =         2.096659	     120.129694
	 B(15,14,16)      =         2.043399	     117.078146
	 B(17,13,18)      =         2.043400	     117.078207
	 D(1,2,3,4)       =         0.007799	       0.446825
	 D(1,2,3,9)       =        -3.122896	    -178.928735
	 D(1,6,5,4)       =         0.007799	       0.446822
	 D(1,6,5,11)      =        -3.122896	    -178.928737
	*D(1,7,13,17)     =        -0.698131	     -39.999988
	 D(1,7,13,18)     =         2.365044	     135.507020
	 D(1,7,14,15)     =        -3.032165	    -173.730230
	 D(1,7,14,16)     =         0.187844	      10.762681
	 D(2,1,6,5)       =        -0.003906	      -0.223802
	 D(2,1,6,12)      =        -3.091437	    -177.126283
	 D(2,1,7,13)      =        -2.505167	    -143.535494
	 D(2,1,7,14)      =         0.636426	      36.464506
	 D(2,3,4,5)       =        -0.003942	      -0.225875
	 D(2,3,4,10)      =         3.137650	     179.774125
	 D(3,2,1,6)       =        -0.003906	      -0.223806
	 D(3,2,1,7)       =         3.137687	     179.776196
	 D(3,4,5,6)       =        -0.003942	      -0.225874
	 D(3,4,5,11)      =         3.126699	     179.146646
	 D(4,3,2,8)       =         3.095744	     177.373058
	 D(4,5,6,12)      =         3.095744	     177.373055
	 D(5,4,3,9)       =         3.126699	     179.146646
	 D(5,6,1,7)       =         3.137687	     179.776197
	 D(6,1,2,8)       =        -3.091437	    -177.126287
	 D(6,1,7,13)      =         0.636426	      36.464508
	 D(6,1,7,14)      =        -2.505167	    -143.535492
	 D(6,5,4,10)      =         3.137650	     179.774126
	 D(7,1,2,8)       =         0.050156	       2.873714
	 D(7,1,6,12)      =         0.050156	       2.873716
	 D(8,2,3,9)       =        -0.034950	      -2.002503
	 D(9,3,4,10)      =        -0.014894	      -0.853354
	 D(10,4,5,11)     =        -0.014894	      -0.853354
	 D(11,5,6,12)     =        -0.034950	      -2.002504
	 D(13,7,14,15)    =         0.109428	       6.269770
	 D(13,7,14,16)    =        -2.953748	    -169.237319
	 D(14,7,13,17)    =         2.443461	     140.000012
	 D(14,7,13,18)    =        -0.776549	     -44.492980

	Current energy   :      -381.4476991492

	Generating empirical Hessian (Schlegel '84) for each fragment.
	Taking RFO optimization step.
	Going to follow RFO solution 1.
	Using RFO vector 1.

	Determining step-restricting scale parameter for RS-RFO.
	Maximum step size allowed    0.50000

	 Iter      |step|        alpha        rfo_root  
	------------------------------------------------
	    0     0.59300       1.00000           1
	    1     0.51866       1.53880           1
	    2     0.50102       1.70670           1
	    3     0.50000       1.71697           1
	------------------------------------------------
	Norm of target step-size    0.50000
	Projected energy change by RFO approximation:        -0.0071726708

	Back-transformation to cartesian coordinates...
	Could not converge backtransformation.
	Using first guess instead.

	Back-transformation to cartesian coordinates to adjust frozen coordinates...
	Successfully converged to displaced geometry.

	--- Internal Coordinate Step in ANG or DEG, aJ/ANG or AJ/DEG ---
	 ---------------------------------------------------------------------------
	   Coordinate                Previous        Force       Change         New 
	   ----------                --------       ------       ------       ------
	    1 R(1,2)          =      1.407502     0.001341     0.000609     1.408111
	    2 R(1,6)          =      1.407503     0.010406     0.002146     1.409650
	    3 R(1,7)          =      1.466870     0.027074     0.004584     1.471454
	    4 R(2,3)          =      1.391302     0.004160     0.001032     1.392334
	    5 R(2,8)          =      1.086388    -0.000550     0.000364     1.086752
	    6 R(3,4)          =      1.398294    -0.009170    -0.000688     1.397606
	    7 R(3,9)          =      1.085142     0.000001     0.000261     1.085403
	    8 R(4,5)          =      1.398294     0.001931     0.000509     1.398803
	    9 R(4,10)         =      1.085649    -0.000434     0.000225     1.085874
	   10 R(5,6)          =      1.391302    -0.010249    -0.001081     1.390221
	   11 R(5,11)         =      1.085142     0.000091     0.000502     1.085644
	   12 R(6,12)         =      1.086386    -0.000019     0.000780     1.087166
	   13 R(7,13)         =      1.330061     0.168179     0.019410     1.349471
	   14 R(7,14)         =      1.330061    -0.042268     0.000168     1.330229
	   15 R(13,17)        =      1.011575    -0.006248     0.001574     1.013150
	   16 R(13,18)        =      1.013294    -0.006709     0.013879     1.027173
	   17 R(14,15)        =      1.013296     0.005396     0.000861     1.014157
	   18 R(14,16)        =      1.011575     0.006978     0.009924     1.021499
	   19 B(1,2,3)        =    119.655376     0.000038     0.097428   119.752804
	   20 B(1,2,8)        =    120.515689    -0.000010    -0.023920   120.491770
	   21 B(1,6,5)        =    119.655315     0.000072     0.221356   119.876670
	   22 B(1,6,12)       =    120.515729     0.000109     0.522180   121.037909
	   23 B(1,7,13)       =    119.935172     0.000683     1.853475   121.788647
	   24 B(1,7,14)       =    119.935135    -0.000403    -1.239723   118.695411
	   25 B(2,1,6)        =    120.161857    -0.000119    -0.316135   119.845722
	   26 B(2,1,7)        =    119.919082    -0.000287    -0.811174   119.107908
	   27 B(2,3,4)        =    120.050636     0.000024     0.081915   120.132551
	   28 B(2,3,9)        =    119.732108    -0.000021    -0.083410   119.648698
	   29 B(3,2,8)        =    119.756722    -0.000029    -0.104522   119.652200
	   30 B(3,4,5)        =    120.423859    -0.000023    -0.092638   120.331222
	   31 B(3,4,10)       =    119.788070     0.000015     0.070345   119.858415
	   32 B(4,3,9)        =    120.214297    -0.000003     0.003500   120.217796
	   33 B(4,5,6)        =    120.050677     0.000008    -0.003358   120.047319
	   34 B(4,5,11)       =    120.214297    -0.000009    -0.015550   120.198746
	   35 B(5,4,10)       =    119.788070     0.000008     0.022188   119.810258
	   36 B(5,6,12)       =    119.756743    -0.000180    -0.724026   119.032716
	   37 B(6,1,7)        =    119.919061     0.000406     1.125892   121.044953
	   38 B(6,5,11)       =    119.732067     0.000001     0.021618   119.753685
	   39 B(7,13,17)      =    119.886320     0.000123     0.731077   120.617397
	   40 B(7,13,18)      =    122.891411    -0.000002    -0.469196   122.422215
	   41 B(7,14,15)      =    122.891405    -0.000168    -0.680009   122.211396
	   42 B(7,14,16)      =    119.886393     0.000114     0.869068   120.755461
	   43 B(13,7,14)      =    120.129694    -0.000280    -1.115614   119.014079
	   44 B(15,14,16)     =    117.078146     0.000067    -0.046336   117.031810
	   45 B(17,13,18)     =    117.078207    -0.000086    -0.321113   116.757094
	   46 D(1,2,3,4)      =      0.446825     0.000010     0.843097     1.289922
	   47 D(1,2,3,9)      =   -178.928735     0.000006     0.573223  -178.355512
	   48 D(1,6,5,4)      =      0.446822     0.000004     0.328936     0.775758
	   49 D(1,6,5,11)     =   -178.928737    -0.000001    -0.114130  -179.042867
	   50 *D(1,7,13,17)   =    -39.999988     0.000000    -0.000000   -39.999988
	   51 D(1,7,13,18)    =    135.507020     0.000125     9.843669   145.350689
	   52 D(1,7,14,15)    =   -173.730230     0.000005     0.722937  -173.007292
	   53 D(1,7,14,16)    =     10.762681    -0.000044    -3.337369     7.425312
	   54 D(2,1,6,5)      =     -0.223802     0.000002     0.156498    -0.067303
	   55 D(2,1,6,12)     =   -177.126283    -0.000002    -0.275133  -177.401416
	   56 D(2,1,7,13)     =   -143.535494     0.000026     1.860166  -141.675328
	   57 D(2,1,7,14)     =     36.464506    -0.000065    -6.349682    30.114824
	   58 D(2,3,4,5)      =     -0.225875    -0.000004    -0.359565    -0.585440
	   59 D(2,3,4,10)     =    179.774125    -0.000003    -0.241298   179.532826
	   60 D(3,2,1,6)      =     -0.223806    -0.000008    -0.742285    -0.966091
	   61 D(3,2,1,7)      =    179.776196    -0.000012    -1.170715   178.605481
	   62 D(3,4,5,6)      =     -0.225874    -0.000002    -0.230923    -0.456797
	   63 D(3,4,5,11)     =    179.146646     0.000003     0.214367   179.361014
	   64 D(4,3,2,8)      =    177.373058     0.000003     0.241632   177.614689
	   65 D(4,5,6,12)     =    177.373055     0.000010     0.790261   178.163316
	   66 D(5,4,3,9)      =    179.146646    -0.000001    -0.088686   179.057960
	   67 D(5,6,1,7)      =    179.776197     0.000006     0.593400   180.369597
	   68 D(6,1,2,8)      =   -177.126287    -0.000002    -0.133211  -177.259498
	   69 D(6,1,7,13)     =     36.464508     0.000022     1.426433    37.890940
	   70 D(6,1,7,14)     =   -143.535492    -0.000069    -6.783416  -150.318908
	   71 D(6,5,4,10)     =    179.774126    -0.000004    -0.349132   179.424993
	   72 D(7,1,2,8)      =      2.873714    -0.000006    -0.561641     2.312073
	   73 D(7,1,6,12)     =      2.873716     0.000002     0.161769     3.035485
	   74 D(8,2,3,9)      =     -2.002503    -0.000000    -0.028242    -2.030745
	   75 D(9,3,4,10)     =     -0.853354     0.000000     0.029580    -0.823774
	   76 D(10,4,5,11)    =     -0.853354     0.000001     0.096158    -0.757196
	   77 D(11,5,6,12)    =     -2.002504     0.000005     0.347194    -1.655310
	   78 D(13,7,14,15)   =      6.269770    -0.000086    -7.255351    -0.985581
	   79 D(13,7,14,16)   =   -169.237319    -0.000136   -11.315657  -180.552976
	   80 D(14,7,13,17)   =    140.000012     0.000091     8.235221   148.235233
	   81 D(14,7,13,18)   =    -44.492980     0.000217    18.078890   -26.414090
	 ---------------------------------------------------------------------------
	Successfully symmetrized geometry.

  ==> Convergence Check <==

  Measures of convergence in internal coordinates in au.
  Criteria marked as inactive (o), active & met (*), and active & unmet ( ).
  --------------------------------------------------------------------------------------------- ~
   Step     Total Energy     Delta E     MAX Force     RMS Force      MAX Disp      RMS Disp    ~
  --------------------------------------------------------------------------------------------- ~
    Convergence Criteria    1.00e-06 *    3.00e-04 *             o    1.20e-03 *             o  ~
  --------------------------------------------------------------------------------------------- ~
      1    -381.44769915   -3.81e+02      2.04e-02      3.53e-03 o    3.16e-01      5.49e-02 o  ~
  ---------------------------------------------------------------------------------------------

	Writing optimization data to binary file.
	Structure for next step:
	Cartesian Geometry (in Angstrom)
	    C     0.0319612788  -0.0424099296  -0.1688736425
	    C     0.0908392833   1.1884276573   0.5125580586
	    C     0.0630513604   1.2096332473   1.9044527580
	    C     0.0042184730   0.0125350459   2.6233384341
	    C    -0.0394817847  -1.2135363212   1.9514092342
	    C    -0.0341205209  -1.2462282167   0.5615828684
	    C     0.0310694767  -0.0466175744  -1.6403215457
	    H     0.0972949648   2.1245543537  -0.0393974506
	    H     0.0814880314   2.1605559950   2.4274307461
	    H    -0.0095885672   0.0339657178   3.7089133737
	    H    -0.0746973560  -2.1425464414   2.5120538143
	    H    -0.0380511247  -2.2089101022   0.0564508527
	    N    -0.7226226957  -0.9136966126  -2.3482728460
	    N     0.6634376662   0.9319455627  -2.2822193468
	    H     0.6104458805   1.0405458828  -3.2891514659
	    H     1.2341917329   1.6080525305  -1.7717491762
	    H    -0.8188628656  -1.8770120413  -2.0495531673
	    H    -1.1555952333  -0.6621877535  -3.2451354991
			--------------------------
			 OPTKING Finished Execution 
			--------------------------

    Structure for next step:
    Molecular point group: c1
    Full point group: C1

    Geometry (in Angstrom), charge = 1, multiplicity = 1:

    C            0.031961278831    -0.042409929587    -0.168873642472
    C            0.090839283302     1.188427657270     0.512558058645
    C            0.063051360437     1.209633247299     1.904452757962
    C            0.004218473042     0.012535045889     2.623338434147
    C           -0.039481784710    -1.213536321211     1.951409234213
    C           -0.034120520905    -1.246228216715     0.561582868410
    C            0.031069476742    -0.046617574358    -1.640321545717
    H            0.097294964756     2.124554353654    -0.039397450582
    H            0.081488031369     2.160555994953     2.427430746123
    H           -0.009588567190     0.033965717770     3.708913373702
    H           -0.074697356033    -2.142546441384     2.512053814262
    H           -0.038051124658    -2.208910102238     0.056450852656
    N           -0.722622695736    -0.913696612588    -2.348272846013
    N            0.663437666248     0.931945562726    -2.282219346795
    H            0.610445880537     1.040545882767    -3.289151465943
    H            1.234191732909     1.608052530495    -1.771749176216
    H           -0.818862865623    -1.877012041258    -2.049553167272
    H           -1.155595233317    -0.662187753484    -3.245135499108

gradient() will perform analytic gradient computation.

*** tstart() called on arancio.prib.upf.edu
*** at Sat Sep 29 20:28:04 2018

   => Loading Basis Set <=

    Name: 6-31G*
    Role: ORBITAL
    Keyword: BASIS
    atoms 1-7         entry C          line   111 file /shared/joao/test_parameterize/miniconda3/share/psi4/basis/6-31gs.gbs 
    atoms 8-12, 15-18 entry H          line    44 file /shared/joao/test_parameterize/miniconda3/share/psi4/basis/6-31gs.gbs 
    atoms 13-14       entry N          line   128 file /shared/joao/test_parameterize/miniconda3/share/psi4/basis/6-31gs.gbs 


         ---------------------------------------------------------
                                   SCF
            by Justin Turney, Rob Parrish, Andy Simmonett
                             and Daniel Smith
                              RKS Reference
                        4 Threads,   2861 MiB Core
         ---------------------------------------------------------

  ==> Geometry <==

    Molecular point group: c1
    Full point group: C1

    Geometry (in Angstrom), charge = 1, multiplicity = 1:

       Center              X                  Y                   Z               Mass       
    ------------   -----------------  -----------------  -----------------  -----------------
         C            0.031961278831    -0.042409929587    -0.168873642472    12.000000000000
         C            0.090839283302     1.188427657270     0.512558058645    12.000000000000
         C            0.063051360437     1.209633247299     1.904452757962    12.000000000000
         C            0.004218473042     0.012535045889     2.623338434147    12.000000000000
         C           -0.039481784710    -1.213536321211     1.951409234213    12.000000000000
         C           -0.034120520905    -1.246228216715     0.561582868410    12.000000000000
         C            0.031069476742    -0.046617574358    -1.640321545717    12.000000000000
         H            0.097294964756     2.124554353654    -0.039397450582     1.007825032070
         H            0.081488031369     2.160555994953     2.427430746123     1.007825032070
         H           -0.009588567190     0.033965717770     3.708913373702     1.007825032070
         H           -0.074697356033    -2.142546441384     2.512053814262     1.007825032070
         H           -0.038051124658    -2.208910102238     0.056450852656     1.007825032070
         N           -0.722622695736    -0.913696612588    -2.348272846013    14.003074004780
         N            0.663437666248     0.931945562726    -2.282219346795    14.003074004780
         H            0.610445880537     1.040545882767    -3.289151465943     1.007825032070
         H            1.234191732909     1.608052530495    -1.771749176216     1.007825032070
         H           -0.818862865623    -1.877012041258    -2.049553167272     1.007825032070
         H           -1.155595233317    -0.662187753484    -3.245135499108     1.007825032070

  Running in c1 symmetry.

  Rotational constants: A =      0.12145  B =      0.03941  C =      0.03097 [cm^-1]
  Rotational constants: A =   3641.08492  B =   1181.52689  C =    928.39709 [MHz]
  Nuclear repulsion =  415.805846710265826

  Charge       = 1
  Multiplicity = 1
  Electrons    = 64
  Nalpha       = 32
  Nbeta        = 32

  ==> Algorithm <==

  SCF Algorithm Type is DF.
  DIIS enabled.
  MOM disabled.
  Fractional occupation disabled.
  Guess Type is READ.
  Energy threshold   = 1.00e-08
  Density threshold  = 1.00e-08
  Integral threshold = 0.00e+00

  ==> Primary Basis <==

  Basis Set: 6-31G*
    Blend: 6-31G*
    Number of shells: 72
    Number of basis function: 153
    Number of Cartesian functions: 153
    Spherical Harmonics?: false
    Max angular momentum: 2

  ==> DFT Potential <==

   => Composite Functional: B3LYP-D3ZERO <= 

    B3LYP-d3zero Hyb-GGA Exchange-Correlation Functional

    P. J. Stephens, F. J. Devlin, C. F. Chabalowski, and M. J. Frisch, J. Phys. Chem. 98, 11623 (1994)

    Deriv               =              1
    GGA                 =           TRUE
    Meta                =          FALSE

    Exchange Hybrid     =           TRUE
    MP2 Hybrid          =          FALSE

   => Exchange Functionals <=

    0.0800   Slater exchange
    0.7200         Becke 88

   => Exact (HF) Exchange <=

    0.2000               HF 

   => Correlation Functionals <=

    0.1900   Vosko, Wilk & Nusair (VWN5_RPA)
    0.8100   Lee, Yang & Parr

   => Molecular Quadrature <=

    Radial Scheme       =       TREUTLER
    Pruning Scheme      =           FLAT
    Nuclear Scheme      =       TREUTLER

    BS radius alpha     =              1
    Pruning alpha       =              1
    Radial Points       =             75
    Spherical Points    =            302
    Total Points        =         396859
    Total Blocks        =           3030
    Max Points          =            256
    Max Functions       =            149

   => -D3ZERO: Empirical Dispersion <=

    Grimme's -D3 (zero-damping) Dispersion Correction
    Grimme S.; Antony J.; Ehrlich S.; Krieg H. (2010), J. Chem. Phys., 132: 154104

        S6 =   1.000000E+00
        S8 =   1.703000E+00
       SR6 =   1.261000E+00
       SR8 =   1.000000E+00
    ALPHA6 =   1.400000E+01

   => Loading Basis Set <=

    Name: (6-31G* AUX)
    Role: JKFIT
    Keyword: DF_BASIS_SCF
    atoms 1-7         entry C          line   121 file /shared/joao/test_parameterize/miniconda3/share/psi4/basis/cc-pvdz-jkfit.gbs 
    atoms 8-12, 15-18 entry H          line    51 file /shared/joao/test_parameterize/miniconda3/share/psi4/basis/cc-pvdz-jkfit.gbs 
    atoms 13-14       entry N          line   171 file /shared/joao/test_parameterize/miniconda3/share/psi4/basis/cc-pvdz-jkfit.gbs 

  Reading orbitals from file 180, no projection.

  ==> Pre-Iterations <==

   -------------------------------------------------------
    Irrep   Nso     Nmo     Nalpha   Nbeta   Ndocc  Nsocc
   -------------------------------------------------------
     A        153     153       0       0       0       0
   -------------------------------------------------------
    Total     153     153      32      32      32       0
   -------------------------------------------------------

  ==> Integral Setup <==

  ==> DiskDFJK: Density-Fitted J/K Matrices <==

    J tasked:                  Yes
    K tasked:                  Yes
    wK tasked:                  No
    OpenMP threads:              4
    Integrals threads:           4
    Memory (MB):              2002
    Algorithm:                Core
    Integral Cache:           NONE
    Schwarz Cutoff:          1E-12
    Fitting Condition:       1E-12

   => Auxiliary Basis Set <=

  Basis Set: (6-31G* AUX)
    Blend: CC-PVDZ-JKFIT
    Number of shells: 297
    Number of basis function: 954
    Number of Cartesian functions: 954
    Spherical Harmonics?: false
    Max angular momentum: 3

  Minimum eigenvalue in the overlap matrix is 4.8648258339E-04.
  Using Symmetric Orthogonalization.

  SCF Guess: Orbitals guess was supplied from a previous computation.

  ==> Iterations <==

                           Total Energy        Delta E     RMS |[F,P]|

   @DF-RKS iter   0:  -381.41019674377941   -3.81410e+02   2.29423e-03 
   @DF-RKS iter   1:  -381.45425646359342   -4.40597e-02   3.61931e-04 
   @DF-RKS iter   2:  -381.45389053149717    3.65932e-04   5.23317e-04 DIIS
   @DF-RKS iter   3:  -381.45469381131932   -8.03280e-04   9.08754e-05 DIIS
   @DF-RKS iter   4:  -381.45471270980778   -1.88985e-05   3.79474e-05 DIIS
   @DF-RKS iter   5:  -381.45471658680754   -3.87700e-06   1.26942e-05 DIIS
   @DF-RKS iter   6:  -381.45471707799919   -4.91192e-07   4.62810e-06 DIIS
   @DF-RKS iter   7:  -381.45471713485290   -5.68537e-08   1.11696e-06 DIIS
   @DF-RKS iter   8:  -381.45471713863174   -3.77884e-09   3.44090e-07 DIIS
   @DF-RKS iter   9:  -381.45471713892499   -2.93255e-10   1.14173e-07 DIIS
   @DF-RKS iter  10:  -381.45471713896001   -3.50155e-11   4.39505e-08 DIIS
   @DF-RKS iter  11:  -381.45471713896586   -5.85487e-12   1.57233e-08 DIIS
   @DF-RKS iter  12:  -381.45471713896688   -1.02318e-12   3.08947e-09 DIIS

  ==> Post-Iterations <==

    Orbital Energies [Eh]
    ---------------------

    Doubly Occupied:                                                      

       1A    -14.574405     2A    -14.559002     3A    -10.501764  
       4A    -10.375681     5A    -10.358178     6A    -10.357055  
       7A    -10.342684     8A    -10.340943     9A    -10.340508  
      10A     -1.179620    11A     -1.085724    12A     -1.014231  
      13A     -0.926085    14A     -0.902745    15A     -0.844480  
      16A     -0.782101    17A     -0.772285    18A     -0.737884  
      19A     -0.731864    20A     -0.690745    21A     -0.670272  
      22A     -0.629981    23A     -0.609505    24A     -0.588768  
      25A     -0.577444    26A     -0.572634    27A     -0.515582  
      28A     -0.507881    29A     -0.498824    30A     -0.466116  
      31A     -0.409108    32A     -0.405419  

    Virtual:                                                              

      33A     -0.227945    34A     -0.155996    35A     -0.139743  
      36A     -0.112376    37A     -0.077246    38A     -0.062404  
      39A     -0.039563    40A     -0.030371    41A      0.007540  
      42A      0.021464    43A      0.027167    44A      0.062389  
      45A      0.067428    46A      0.084061    47A      0.121011  
      48A      0.140799    49A      0.156323    50A      0.170682  
      51A      0.205992    52A      0.235835    53A      0.299677  
      54A      0.351180    55A      0.354638    56A      0.379318  
      57A      0.390043    58A      0.398800    59A      0.416987  
      60A      0.421131    61A      0.439221    62A      0.450354  
      63A      0.457659    64A      0.469778    65A      0.472490  
      66A      0.473705    67A      0.486031    68A      0.501071  
      69A      0.505912    70A      0.547372    71A      0.549401  
      72A      0.588228    73A      0.611793    74A      0.649698  
      75A      0.653724    76A      0.676453    77A      0.687368  
      78A      0.704507    79A      0.715779    80A      0.727439  
      81A      0.757191    82A      0.770774    83A      0.775586  
      84A      0.795768    85A      0.817461    86A      0.837647  
      87A      0.851089    88A      0.924203    89A      0.958643  
      90A      0.974939    91A      0.986636    92A      1.024408  
      93A      1.031233    94A      1.074410    95A      1.131978  
      96A      1.154333    97A      1.252899    98A      1.275126  
      99A      1.275290   100A      1.311404   101A      1.325615  
     102A      1.332275   103A      1.345692   104A      1.361078  
     105A      1.412464   106A      1.451725   107A      1.523925  
     108A      1.607903   109A      1.627520   110A      1.655167  
     111A      1.699260   112A      1.734230   113A      1.743426  
     114A      1.797646   115A      1.807645   116A      1.826433  
     117A      1.892120   118A      1.920510   119A      1.935265  
     120A      1.976006   121A      1.991767   122A      2.004441  
     123A      2.019213   124A      2.051733   125A      2.119591  
     126A      2.126421   127A      2.152807   128A      2.193362  
     129A      2.198439   130A      2.290393   131A      2.320114  
     132A      2.378894   133A      2.442763   134A      2.451736  
     135A      2.485665   136A      2.522056   137A      2.538839  
     138A      2.589657   139A      2.603424   140A      2.625990  
     141A      2.732134   142A      2.847545   143A      2.978127  
     144A      3.255275   145A      3.624796   146A      3.649817  
     147A      3.911327   148A      3.946890   149A      3.962955  
     150A      4.044769   151A      4.172458   152A      4.251973  
     153A      4.543509  

    Final Occupation by Irrep:
              A 
    DOCC [    32 ]

  Energy converged.

  @DF-RKS Final Energy:  -381.45471713896688

   => Energetics <=

    Nuclear Repulsion Energy =            415.8058467102658255
    One-Electron Energy =               -1326.8484757825813176
    Two-Electron Energy =                 573.9851400802815533
    DFT Exchange-Correlation Energy =     -44.3854484669328144
    Empirical Dispersion Energy =          -0.0117796800000000
    VV10 Nonlocal Energy =                  0.0000000000000000
    Total Energy =                       -381.4547171389668279



Properties will be evaluated at   0.000000,   0.000000,   0.000000 [a0]

Properties computed using the SCF density matrix

  Nuclear Dipole Moment: [e a0]
     X:     0.7513      Y:    -1.1800      Z:     0.6827

  Electronic Dipole Moment: [e a0]
     X:    -0.7170      Y:     1.2576      Z:    -2.9417

  Dipole Moment: [e a0]
     X:     0.0343      Y:     0.0776      Z:    -2.2590     Total:     2.2606

  Dipole Moment: [D]
     X:     0.0872      Y:     0.1972      Z:    -5.7418     Total:     5.7458


*** tstop() called on arancio.prib.upf.edu at Sat Sep 29 20:28:26 2018
Module time:
	user time   =      81.45 seconds =       1.36 minutes
	system time =       0.38 seconds =       0.01 minutes
	total time  =         22 seconds =       0.37 minutes
Total time:
	user time   =     204.26 seconds =       3.40 minutes
	system time =       1.21 seconds =       0.02 minutes
	total time  =         56 seconds =       0.93 minutes

*** tstart() called on arancio.prib.upf.edu
*** at Sat Sep 29 20:28:26 2018


         ------------------------------------------------------------
                                   SCF GRAD                          
                          Rob Parrish, Justin Turney,                
                       Andy Simmonett, and Alex Sokolov              
         ------------------------------------------------------------

  ==> Geometry <==

    Molecular point group: c1
    Full point group: C1

    Geometry (in Angstrom), charge = 1, multiplicity = 1:

       Center              X                  Y                   Z               Mass       
    ------------   -----------------  -----------------  -----------------  -----------------
         C            0.031961278831    -0.042409929587    -0.168873642472    12.000000000000
         C            0.090839283302     1.188427657270     0.512558058645    12.000000000000
         C            0.063051360437     1.209633247299     1.904452757962    12.000000000000
         C            0.004218473042     0.012535045889     2.623338434147    12.000000000000
         C           -0.039481784710    -1.213536321211     1.951409234213    12.000000000000
         C           -0.034120520905    -1.246228216715     0.561582868410    12.000000000000
         C            0.031069476742    -0.046617574358    -1.640321545717    12.000000000000
         H            0.097294964756     2.124554353654    -0.039397450582     1.007825032070
         H            0.081488031369     2.160555994953     2.427430746123     1.007825032070
         H           -0.009588567190     0.033965717770     3.708913373702     1.007825032070
         H           -0.074697356033    -2.142546441384     2.512053814262     1.007825032070
         H           -0.038051124658    -2.208910102238     0.056450852656     1.007825032070
         N           -0.722622695736    -0.913696612588    -2.348272846013    14.003074004780
         N            0.663437666248     0.931945562726    -2.282219346795    14.003074004780
         H            0.610445880537     1.040545882767    -3.289151465943     1.007825032070
         H            1.234191732909     1.608052530495    -1.771749176216     1.007825032070
         H           -0.818862865623    -1.877012041258    -2.049553167272     1.007825032070
         H           -1.155595233317    -0.662187753484    -3.245135499108     1.007825032070

  Nuclear repulsion =  415.805846710265826

  ==> Basis Set <==

  Basis Set: 6-31G*
    Blend: 6-31G*
    Number of shells: 72
    Number of basis function: 153
    Number of Cartesian functions: 153
    Spherical Harmonics?: false
    Max angular momentum: 2

  ==> DFJKGrad: Density-Fitted SCF Gradients <==

    Gradient:                    1
    J tasked:                  Yes
    K tasked:                  Yes
    wK tasked:                  No
    OpenMP threads:              4
    Integrals threads:           4
    Memory (MB):              2002
    Schwarz Cutoff:          0E+00
    Fitting Condition:       1E-12

   => Auxiliary Basis Set <=

  Basis Set: (6-31G* AUX)
    Blend: CC-PVDZ-JKFIT
    Number of shells: 297
    Number of basis function: 954
    Number of Cartesian functions: 954
    Spherical Harmonics?: false
    Max angular momentum: 3

  ==> DFT Potential <==

   => Composite Functional: B3LYP-D3ZERO <= 

    B3LYP-d3zero Hyb-GGA Exchange-Correlation Functional

    P. J. Stephens, F. J. Devlin, C. F. Chabalowski, and M. J. Frisch, J. Phys. Chem. 98, 11623 (1994)

    Deriv               =              1
    GGA                 =           TRUE
    Meta                =          FALSE

    Exchange Hybrid     =           TRUE
    MP2 Hybrid          =          FALSE

   => Exchange Functionals <=

    0.0800   Slater exchange
    0.7200         Becke 88

   => Exact (HF) Exchange <=

    0.2000               HF 

   => Correlation Functionals <=

    0.1900   Vosko, Wilk & Nusair (VWN5_RPA)
    0.8100   Lee, Yang & Parr

   => Molecular Quadrature <=

    Radial Scheme       =       TREUTLER
    Pruning Scheme      =           FLAT
    Nuclear Scheme      =       TREUTLER

    BS radius alpha     =              1
    Pruning alpha       =              1
    Radial Points       =             75
    Spherical Points    =            302
    Total Points        =         396859
    Total Blocks        =           3030
    Max Points          =            256
    Max Functions       =            149


  -Total Gradient:
     Atom            X                  Y                   Z
    ------   -----------------  -----------------  -----------------
       1       -0.008759027173     0.010509775089    -0.000357916290
       2       -0.000241740955     0.000605147995    -0.000303422987
       3        0.000023482680     0.000118639089     0.000228746726
       4       -0.000041797801    -0.000212426464     0.000003345424
       5        0.000185276521     0.000010911086    -0.000063253032
       6        0.000190118168    -0.001430668268     0.001340802516
       7        0.009408527731    -0.008521631872     0.004660525527
       8        0.000530290484    -0.000163368927    -0.001656930868
       9        0.000048711939     0.000094014485     0.000194282840
      10        0.000016256313    -0.000066220608     0.000222185833
      11       -0.000040246297    -0.000308314453     0.000233722139
      12        0.000421608296    -0.000428238144     0.000255861450
      13       -0.002925715504    -0.002872951034     0.005663389588
      14        0.001298809598    -0.004167572450    -0.002837186453
      15       -0.001484085431     0.000946568505    -0.000216610480
      16        0.006000146827     0.004945482655     0.004145825524
      17        0.009084232273    -0.004467419836    -0.005246857086
      18       -0.013707138766     0.005408351764    -0.006271072373


*** tstop() called on arancio.prib.upf.edu at Sat Sep 29 20:28:33 2018
Module time:
	user time   =      27.33 seconds =       0.46 minutes
	system time =       0.29 seconds =       0.00 minutes
	total time  =          7 seconds =       0.12 minutes
Total time:
	user time   =     231.65 seconds =       3.86 minutes
	system time =       1.51 seconds =       0.03 minutes
	total time  =         63 seconds =       1.05 minutes

			-----------------------------------------
			 OPTKING 2.0: for geometry optimizations 
			  - R.A. King,  Bethel University        
			-----------------------------------------
	At level 1: Red. Int., RFO, no backsteps, dynamic trust

	Previous internal coordinate definitions found.
	---Fragment 1 Geometry and Gradient---
	 C           0.0603980638       -0.0801431522       -0.3191249353
	 C           0.1716613675        2.2458028010        0.9685943580
	 C           0.1191498035        2.2858755586        3.5988941456
	 C           0.0079717587        0.0236878038        4.9573911944
	 C          -0.0746097603       -2.2932512994        3.6876290258
	 C          -0.0644784400       -2.3550300287        1.0612378222
	 C           0.0587128021       -0.0880944485       -3.0997584913
	 H           0.1838608375        4.0148258828       -0.0744503919
	 H           0.1539900624        4.0828591252        4.5871793167
	 H          -0.0181197660        0.0641859045        7.0088305269
	 H          -0.1411575458       -4.0488260012        4.7470937400
	 H          -0.0719062047       -4.1742351454        0.1066766515
	 N          -1.3655589923       -1.7266363663       -4.4375925643
	 N           1.2537154954        1.7611218843       -4.3127695406
	 H           1.1535755332        1.9663467471       -6.2155954802
	 H           2.3322843707        3.0387788899       -3.3481207192
	 H          -1.5474265564       -3.5470387061       -3.8730941809
	 H          -2.1837585114       -1.2513535026       -6.1324173574
	            -0.0087590272        0.0105097751       -0.0003579163
	            -0.0002417410        0.0006051480       -0.0003034230
	             0.0000234827        0.0001186391        0.0002287467
	            -0.0000417978       -0.0002124265        0.0000033454
	             0.0001852765        0.0000109111       -0.0000632530
	             0.0001901182       -0.0014306683        0.0013408025
	             0.0094085277       -0.0085216319        0.0046605255
	             0.0005302905       -0.0001633689       -0.0016569309
	             0.0000487119        0.0000940145        0.0001942828
	             0.0000162563       -0.0000662206        0.0002221858
	            -0.0000402463       -0.0003083145        0.0002337221
	             0.0004216083       -0.0004282381        0.0002558615
	            -0.0029257155       -0.0028729510        0.0056633896
	             0.0012988096       -0.0041675725       -0.0028371865
	            -0.0014840854        0.0009465685       -0.0002166105
	             0.0060001468        0.0049454827        0.0041458255
	             0.0090842323       -0.0044674198       -0.0052468571
	            -0.0137071388        0.0054083518       -0.0062710724

	---Fragment 1 Intrafragment Coordinates---
	 - Coordinate -           - BOHR/RAD -       - ANG/DEG -
	 R(1,2)           =         2.660944	       1.408111
	 R(1,6)           =         2.663852	       1.409650
	 R(1,7)           =         2.780645	       1.471454
	 R(2,3)           =         2.631129	       1.392334
	 R(2,8)           =         2.053664	       1.086752
	 R(3,4)           =         2.641092	       1.397606
	 R(3,9)           =         2.051115	       1.085403
	 R(4,5)           =         2.643354	       1.398803
	 R(4,10)          =         2.052005	       1.085874
	 R(5,6)           =         2.627137	       1.390221
	 R(5,11)          =         2.051569	       1.085644
	 R(6,12)          =         2.054446	       1.087166
	 R(7,13)          =         2.550131	       1.349471
	 R(7,14)          =         2.513768	       1.330229
	 R(13,17)         =         1.914575	       1.013150
	 R(13,18)         =         1.941076	       1.027173
	 R(14,15)         =         1.916479	       1.014157
	 R(14,16)         =         1.930354	       1.021499
	 B(1,2,3)         =         2.090081	     119.752804
	 B(1,2,8)         =         2.102978	     120.491770
	 B(1,6,5)         =         2.092243	     119.876670
	 B(1,6,12)        =         2.112510	     121.037909
	 B(1,7,13)        =         2.125613	     121.788647
	 B(1,7,14)        =         2.071626	     118.695411
	 B(2,1,6)         =         2.091702	     119.845722
	 B(2,1,7)         =         2.078825	     119.107908
	 B(2,3,4)         =         2.096709	     120.132551
	 B(2,3,9)         =         2.088264	     119.648698
	 B(3,2,8)         =         2.088325	     119.652200
	 B(3,4,5)         =         2.100176	     120.331222
	 B(3,4,10)        =         2.091924	     119.858415
	 B(4,3,9)         =         2.098196	     120.217796
	 B(4,5,6)         =         2.095221	     120.047319
	 B(4,5,11)        =         2.097864	     120.198746
	 B(5,4,10)        =         2.091083	     119.810258
	 B(5,6,12)        =         2.077513	     119.032716
	 B(6,1,7)         =         2.112633	     121.044953
	 B(6,5,11)        =         2.090096	     119.753685
	 B(7,13,17)       =         2.105171	     120.617397
	 B(7,13,18)       =         2.136671	     122.422215
	 B(7,14,15)       =         2.132991	     122.211396
	 B(7,14,16)       =         2.107580	     120.755461
	 B(13,7,14)       =         2.077188	     119.014079
	 B(15,14,16)      =         2.042590	     117.031810
	 B(17,13,18)      =         2.037796	     116.757094
	 D(1,2,3,4)       =         0.022513	       1.289922
	 D(1,2,3,9)       =        -3.112891	    -178.355512
	 D(1,6,5,4)       =         0.013540	       0.775758
	 D(1,6,5,11)      =        -3.124888	    -179.042867
	*D(1,7,13,17)     =        -0.698131	     -39.999988
	 D(1,7,13,18)     =         2.536848	     145.350689
	 D(1,7,14,15)     =        -3.019547	    -173.007292
	 D(1,7,14,16)     =         0.129596	       7.425312
	 D(2,1,6,5)       =        -0.001175	      -0.067303
	 D(2,1,6,12)      =        -3.096239	    -177.401416
	 D(2,1,7,13)      =        -2.472701	    -141.675328
	 D(2,1,7,14)      =         0.525603	      30.114824
	 D(2,3,4,5)       =        -0.010218	      -0.585440
	 D(2,3,4,10)      =         3.133439	     179.532826
	 D(3,2,1,6)       =        -0.016861	      -0.966091
	 D(3,2,1,7)       =         3.117254	     178.605481
	 D(3,4,5,6)       =        -0.007973	      -0.456797
	 D(3,4,5,11)      =         3.130440	     179.361014
	 D(4,3,2,8)       =         3.099961	     177.614689
	 D(4,5,6,12)      =         3.109536	     178.163316
	 D(5,4,3,9)       =         3.125151	     179.057960
	 D(5,6,1,7)       =        -3.135142	    -179.630403
	 D(6,1,2,8)       =        -3.093762	    -177.259498
	 D(6,1,7,13)      =         0.661322	      37.890940
	 D(6,1,7,14)      =        -2.623560	    -150.318908
	 D(6,5,4,10)      =         3.131557	     179.424993
	 D(7,1,2,8)       =         0.040353	       2.312073
	 D(7,1,6,12)      =         0.052979	       3.035485
	 D(8,2,3,9)       =        -0.035443	      -2.030745
	 D(9,3,4,10)      =        -0.014378	      -0.823774
	 D(10,4,5,11)     =        -0.013216	      -0.757196
	 D(11,5,6,12)     =        -0.028891	      -1.655310
	 D(13,7,14,15)    =        -0.017202	      -0.985581
	 D(13,7,14,16)    =         3.131941	     179.447024
	 D(14,7,13,17)    =         2.587193	     148.235233
	 D(14,7,13,18)    =        -0.461013	     -26.414090

	Current energy   :      -381.4547171390

	Energy change for the previous step:
		Projected    :        -0.0071726708
		Actual       :        -0.0070179898
	Energy ratio indicates good step: Trust radius increased to 1.000e+00.


	Performing BFGS update.
	Previous computed or guess Hessian on step 1.
	Steps to be used in Hessian update: 1
	Taking RFO optimization step.
	Going to follow RFO solution 1.
	Using RFO vector 1.
	Norm of target step-size    0.57531
	Projected energy change by RFO approximation:        -0.0032843848

	Back-transformation to cartesian coordinates...
	Could not converge backtransformation.
	Using first guess instead.

	Back-transformation to cartesian coordinates to adjust frozen coordinates...
	Successfully converged to displaced geometry.

	--- Internal Coordinate Step in ANG or DEG, aJ/ANG or AJ/DEG ---
	 ---------------------------------------------------------------------------
	   Coordinate                Previous        Force       Change         New 
	   ----------                --------       ------       ------       ------
	    1 R(1,2)          =      1.408111     0.005662     0.001467     1.409579
	    2 R(1,6)          =      1.409650    -0.019279    -0.002091     1.407559
	    3 R(1,7)          =      1.471454    -0.000993     0.001923     1.473377
	    4 R(2,3)          =      1.392334    -0.005237    -0.000199     1.392135
	    5 R(2,8)          =      1.086752    -0.005799    -0.000734     1.086018
	    6 R(3,4)          =      1.397606    -0.006090    -0.001043     1.396563
	    7 R(3,9)          =      1.085403    -0.001458    -0.000083     1.085320
	    8 R(4,5)          =      1.398803    -0.003271    -0.000002     1.398801
	    9 R(4,10)         =      1.085874    -0.001820    -0.000190     1.085684
	   10 R(5,6)          =      1.390221    -0.001472    -0.000594     1.389627
	   11 R(5,11)         =      1.085644    -0.003180    -0.000175     1.085469
	   12 R(6,12)         =      1.087166    -0.002131     0.000499     1.087665
	   13 R(7,13)         =      1.349471    -0.070277     0.000018     1.349489
	   14 R(7,14)         =      1.330229    -0.028869    -0.001778     1.328451
	   15 R(13,17)        =      1.013150    -0.015144    -0.001330     1.011819
	   16 R(13,18)        =      1.027173    -0.103624     0.039169     1.066342
	   17 R(14,15)        =      1.014157    -0.003246     0.001439     1.015596
	   18 R(14,16)        =      1.021499    -0.071651    -0.003340     1.018159
	   19 B(1,2,3)        =    119.752804     0.000007     0.065226   119.818031
	   20 B(1,2,8)        =    120.491770     0.000113     0.594145   121.085914
	   21 B(1,6,5)        =    119.876670     0.000045     0.240465   120.117135
	   22 B(1,6,12)       =    121.037909    -0.000054    -0.024817   121.013092
	   23 B(1,7,13)       =    121.788647    -0.000341    -0.386996   121.401650
	   24 B(1,7,14)       =    118.695411     0.000515     1.365304   120.060715
	   25 B(2,1,6)        =    119.845722    -0.000034    -0.254804   119.590918
	   26 B(2,1,7)        =    119.107908     0.000301     0.727458   119.835366
	   27 B(2,3,4)        =    120.132551     0.000009     0.087612   120.220164
	   28 B(2,3,9)        =    119.648698    -0.000014    -0.116311   119.532387
	   29 B(3,2,8)        =    119.652200    -0.000121    -0.704649   118.947551
	   30 B(3,4,5)        =    120.331222    -0.000026    -0.128013   120.203209
	   31 B(3,4,10)       =    119.858415     0.000008     0.045685   119.904100
	   32 B(4,3,9)        =    120.217796     0.000005     0.026967   120.244763
	   33 B(4,5,6)        =    120.047319     0.000000    -0.011756   120.035563
	   34 B(4,5,11)       =    120.198746     0.000003     0.024590   120.223337
	   35 B(5,4,10)       =    119.810258     0.000019     0.080188   119.890446
	   36 B(5,6,12)       =    119.032716     0.000010    -0.195312   118.837404
	   37 B(6,1,7)        =    121.044953    -0.000266    -0.496884   120.548069
	   38 B(6,5,11)       =    119.753685    -0.000003    -0.012588   119.741097
	   39 B(7,13,17)      =    120.617397     0.000070     0.269996   120.887393
	   40 B(7,13,18)      =    122.422215    -0.000123    -3.327863   119.094352
	   41 B(7,14,15)      =    122.211396     0.000016    -0.263307   121.948089
	   42 B(7,14,16)      =    120.755461    -0.000011     0.336012   121.091473
	   43 B(13,7,14)      =    119.014079    -0.000173    -1.097030   117.917050
	   44 B(15,14,16)     =    117.031810    -0.000004    -0.071578   116.960232
	   45 B(17,13,18)     =    116.757094     0.000004    -1.691220   115.065874
	   46 D(1,2,3,4)      =      1.289922    -0.000001    -0.059207     1.230715
	   47 D(1,2,3,9)      =   -178.355512     0.000000     0.180924  -178.174588
	   48 D(1,6,5,4)      =      0.775758     0.000001     0.212943     0.988701
	   49 D(1,6,5,11)     =   -179.042867    -0.000000     0.010033  -179.032834
	   50 *D(1,7,13,17)   =    -39.999988     0.000000    -0.000000   -39.999988
	   51 D(1,7,13,18)    =    145.350689     0.000146    20.774927   166.125616
	   52 D(1,7,14,15)    =   -173.007292    -0.000021    -3.497125  -176.504418
	   53 D(1,7,14,16)    =      7.425312    -0.000018    -3.759364     3.665948
	   54 D(2,1,6,5)      =     -0.067303    -0.000003    -0.593376    -0.660679
	   55 D(2,1,6,12)     =   -177.401416    -0.000007    -1.165808  -178.567223
	   56 D(2,1,7,13)     =   -141.675328     0.000001     0.256327  -141.419000
	   57 D(2,1,7,14)     =     30.114824    -0.000001    -0.753347    29.361477
	   58 D(2,3,4,5)      =     -0.585440    -0.000001    -0.323582    -0.909022
	   59 D(2,3,4,10)     =    179.532826     0.000001     0.103725   179.636551
	   60 D(3,2,1,6)      =     -0.966091     0.000004     0.516663    -0.449428
	   61 D(3,2,1,7)      =    178.605481    -0.000005    -0.886660   177.718821
	   62 D(3,4,5,6)      =     -0.456797     0.000002     0.248382    -0.208415
	   63 D(3,4,5,11)     =    179.361014     0.000002     0.452211   179.813225
	   64 D(4,3,2,8)      =    177.614689    -0.000004    -0.764597   176.850092
	   65 D(4,5,6,12)     =    178.163316     0.000004     0.777217   178.940533
	   66 D(5,4,3,9)      =    179.057960    -0.000003    -0.565944   178.492016
	   67 D(5,6,1,7)      =   -179.630403     0.000004     0.814784  -178.815618
	   68 D(6,1,2,8)      =   -177.259498     0.000009     1.286382  -175.973116
	   69 D(6,1,7,13)     =     37.890940    -0.000007    -1.159501    36.731439
	   70 D(6,1,7,14)     =   -150.318908    -0.000009    -2.169175  -152.488083
	   71 D(6,5,4,10)     =    179.424993    -0.000001    -0.178908   179.246086
	   72 D(7,1,2,8)      =      2.312073     0.000001    -0.116941     2.195133
	   73 D(7,1,6,12)     =      3.035485     0.000001     0.242353     3.277838
	   74 D(8,2,3,9)      =     -2.030745    -0.000003    -0.524467    -2.555212
	   75 D(9,3,4,10)     =     -0.823774    -0.000001    -0.138637    -0.962411
	   76 D(10,4,5,11)    =     -0.757196     0.000000     0.024922    -0.732274
	   77 D(11,5,6,12)    =     -1.655310     0.000003     0.574307    -1.081002
	   78 D(13,7,14,15)   =     -0.985581    -0.000027    -4.421805    -5.407385
	   79 D(13,7,14,16)   =    179.447024    -0.000023    -4.684043   174.762981
	   80 D(14,7,13,17)   =    148.235233    -0.000010     0.793526   149.028758
	   81 D(14,7,13,18)   =    -26.414090     0.000136    21.568453    -4.845637
	 ---------------------------------------------------------------------------
	Successfully symmetrized geometry.

  ==> Convergence Check <==

  Measures of convergence in internal coordinates in au.
  Criteria marked as inactive (o), active & met (*), and active & unmet ( ).
  ---------------------------------------------------------------------------------------------
   Step     Total Energy     Delta E     MAX Force     RMS Force      MAX Disp      RMS Disp   
  ---------------------------------------------------------------------------------------------
    Convergence Criteria    1.00e-06 *    3.00e-04 *             o    1.20e-03 *             o
  ---------------------------------------------------------------------------------------------
      2    -381.45471714   -7.02e-03      1.26e-02      2.67e-03 o    3.76e-01      6.19e-02 o  ~
  ---------------------------------------------------------------------------------------------

	Writing optimization data to binary file.
	Structure for next step:
	Cartesian Geometry (in Angstrom)
	    C     0.0392392683  -0.0277018406  -0.1576774831
	    C     0.1128981474   1.1962694841   0.5375781250
	    C     0.0885904349   1.2042958623   1.9294773435
	    C     0.0174281528   0.0030342683   2.6382041009
	    C    -0.0490335338  -1.2150034871   1.9536516353
	    C    -0.0487938307  -1.2328787968   0.5641396476
	    C     0.0141442302  -0.0335701038  -1.6308293552
	    H     0.1162319844   2.1435384391   0.0064430078
	    H     0.1155401719   2.1509830037   2.4595506150
	    H     0.0047255860   0.0149751016   3.7237480726
	    H    -0.1013009249  -2.1490404446   2.5041842789
	    H    -0.0834909904  -2.1916992034   0.0518160490
	    N    -0.7605671739  -0.8993271771  -2.3174211801
	    N     0.6163379139   0.9360677482  -2.3104962625
	    H     0.5729218583   0.9890393805  -3.3237801649
	    H     1.1472192491   1.6616566665  -1.8326529446
	    H    -0.8604541054  -1.8596303846  -2.0147358039
	    H    -0.9266584381  -0.7339375161  -3.3576836815
			--------------------------
			 OPTKING Finished Execution 
			--------------------------

    Structure for next step:
    Molecular point group: c1
    Full point group: C1

    Geometry (in Angstrom), charge = 1, multiplicity = 1:

    C            0.039239268285    -0.027701840637    -0.157677483084
    C            0.112898147379     1.196269484062     0.537578125022
    C            0.088590434859     1.204295862300     1.929477343540
    C            0.017428152839     0.003034268274     2.638204100919
    C           -0.049033533818    -1.215003487107     1.953651635314
    C           -0.048793830730    -1.232878796848     0.564139647636
    C            0.014144230248    -0.033570103752    -1.630829355171
    H            0.116231984429     2.143538439051     0.006443007792
    H            0.115540171894     2.150983003679     2.459550615010
    H            0.004725585980     0.014975101577     3.723748072591
    H           -0.101300924893    -2.149040444586     2.504184278861
    H           -0.083490990418    -2.191699203390     0.051816048952
    N           -0.760567173940    -0.899327177109    -2.317421180078
    N            0.616337913933     0.936067748216    -2.310496262501
    H            0.572921858323     0.989039380512    -3.323780164862
    H            1.147219249113     1.661656666470    -1.832652944596
    H           -0.860454105363    -1.859630384634    -2.014735803869
    H           -0.926658438120    -0.733937516080    -3.357683681476

gradient() will perform analytic gradient computation.

*** tstart() called on arancio.prib.upf.edu
*** at Sat Sep 29 20:28:33 2018

   => Loading Basis Set <=

    Name: 6-31G*
    Role: ORBITAL
    Keyword: BASIS
    atoms 1-7         entry C          line   111 file /shared/joao/test_parameterize/miniconda3/share/psi4/basis/6-31gs.gbs 
    atoms 8-12, 15-18 entry H          line    44 file /shared/joao/test_parameterize/miniconda3/share/psi4/basis/6-31gs.gbs 
    atoms 13-14       entry N          line   128 file /shared/joao/test_parameterize/miniconda3/share/psi4/basis/6-31gs.gbs 


[...]
	            -0.0000010929       -0.0000006921       -0.0000121468
	            -0.0155632061        0.0083068025        0.0092304913
	            -0.0000301808        0.0000697199       -0.0000334206
	            -0.0000011210        0.0000115345        0.0000030142
	             0.0000072975       -0.0000246344        0.0000006291
	             0.0090656308       -0.0037312900       -0.0067195938
	             0.0000261200        0.0000148941       -0.0000656044

	---Fragment 1 Intrafragment Coordinates---
	 - Coordinate -           - BOHR/RAD -       - ANG/DEG -
	 R(1,2)           =         2.659912	       1.407565
	 R(1,6)           =         2.658735	       1.406942
	 R(1,7)           =         2.776872	       1.469457
	 R(2,3)           =         2.629620	       1.391535
	 R(2,8)           =         2.052675	       1.086229
	 R(3,4)           =         2.641000	       1.397557
	 R(3,9)           =         2.050616	       1.085139
	 R(4,5)           =         2.642093	       1.398135
	 R(4,10)          =         2.051426	       1.085568
	 R(5,6)           =         2.627938	       1.390645
	 R(5,11)          =         2.050483	       1.085069
	 R(6,12)          =         2.054269	       1.087072
	 R(7,13)          =         2.539713	       1.343958
	 R(7,14)          =         2.507586	       1.326958
	 R(13,17)         =         1.917307	       1.014595
	 R(13,18)         =         1.921869	       1.017009
	 R(14,15)         =         1.915657	       1.013722
	 R(14,16)         =         1.912060	       1.011819
	 B(1,2,3)         =         2.089611	     119.725919
	 B(1,2,8)         =         2.108767	     120.823421
	 B(1,6,5)         =         2.093443	     119.945426
	 B(1,6,12)        =         2.110627	     120.930022
	 B(1,7,13)        =         2.094274	     119.993033
	 B(1,7,14)        =         2.088090	     119.638726
	 B(2,1,6)         =         2.092152	     119.871460
	 B(2,1,7)         =         2.092438	     119.887868
	 B(2,3,4)         =         2.097211	     120.161319
	 B(2,3,9)         =         2.087349	     119.596309
	 B(3,2,8)         =         2.082868	     119.339517
	 B(3,4,5)         =         2.099693	     120.303535
	 B(3,4,10)        =         2.091826	     119.852785
	 B(4,3,9)         =         2.098579	     120.239712
	 B(4,5,6)         =         2.094148	     119.985864
	 B(4,5,11)        =         2.098915	     120.258993
	 B(5,4,10)        =         2.091662	     119.843409
	 B(5,6,12)        =         2.078206	     119.072405
	 B(6,1,7)         =         2.098548	     120.237941
	 B(6,5,11)        =         2.090106	     119.754263
	 B(7,13,17)       =         2.059835	     118.019857
	 B(7,13,18)       =         2.059152	     117.980718
	 B(7,14,15)       =         2.146584	     122.990222
	 B(7,14,16)       =         2.097900	     120.200837
	 B(13,7,14)       =         2.087025	     119.577738
	 B(15,14,16)      =         2.038668	     116.807052
	 B(17,13,18)      =         1.943908	     111.377731
	 D(1,2,3,4)       =         0.015613	       0.894569
	 D(1,2,3,9)       =        -3.115650	    -178.513613
	 D(1,6,5,4)       =         0.009741	       0.558092
	 D(1,6,5,11)      =        -3.125913	    -179.101633
	*D(1,7,13,17)     =        -0.698131	     -39.999988
	 D(1,7,13,18)     =        -3.117433	    -178.615745
	 D(1,7,14,15)     =        -3.018082	    -172.923361
	 D(1,7,14,16)     =         0.132524	       7.593040
	 D(2,1,6,5)       =        -0.002512	      -0.143908
	 D(2,1,6,12)      =        -3.097842	    -177.493249
	 D(2,1,7,13)      =        -2.400027	    -137.511428
	 D(2,1,7,14)      =         0.563133	      32.265152
	 D(2,3,4,5)       =        -0.008440	      -0.483596
	 D(2,3,4,10)      =         3.136458	     179.705808
	 D(3,2,1,6)       =        -0.010175	      -0.582958
	 D(3,2,1,7)       =         3.120953	     178.817417
	 D(3,4,5,6)       =        -0.004346	      -0.249016
	 D(3,4,5,11)      =         3.131277	     179.408972
	 D(4,3,2,8)       =         3.090873	     177.093994
	 D(4,5,6,12)      =         3.105929	     177.956630
	 D(5,4,3,9)       =         3.122756	     178.920749
	 D(5,6,1,7)       =        -3.133602	    -179.542158
	 D(6,1,2,8)       =        -3.084430	    -176.724846
	 D(6,1,7,13)      =         0.731061	      41.886723
	 D(6,1,7,14)      =        -2.588964	    -148.336697
	 D(6,5,4,10)      =         3.133941	     179.561597
	 D(7,1,2,8)       =         0.046697	       2.675528
	 D(7,1,6,12)      =         0.054254	       3.108501
	 D(8,2,3,9)       =        -0.040390	      -2.314188
	 D(9,3,4,10)      =        -0.015531	      -0.889846
	 D(10,4,5,11)     =        -0.013621	      -0.780414
	 D(11,5,6,12)     =        -0.029725	      -1.703095
	 D(13,7,14,15)    =        -0.054175	      -3.104003
	 D(13,7,14,16)    =         3.096430	     177.412397
	 D(14,7,13,17)    =         2.621784	     150.217184
	 D(14,7,13,18)    =         0.202483	      11.601427

	Current energy   :      -381.4617351612

	Energy change for the previous step:
		Projected    :        -0.0000021214
		Actual       :        -0.0000004211
	Energy ratio indicates iffy step: Trust radius decreased to 1.562e-02.


	Performing BFGS update.
	Previous computed or guess Hessian on step 1.
	Steps to be used in Hessian update: 8 7
	Taking RFO optimization step.
	Going to follow RFO solution 1.
	Rejecting RFO root 1 because normalization gives large value.
	Rejecting RFO root 2 because normalization gives large value.
	Using RFO vector 3.
	Norm of target step-size    0.00166
	Projected energy change by RFO approximation:        -0.0000000359

	Back-transformation to cartesian coordinates...
	Successfully converged to displaced geometry.

	Back-transformation to cartesian coordinates to adjust frozen coordinates...
	Successfully converged to displaced geometry.

	--- Internal Coordinate Step in ANG or DEG, aJ/ANG or AJ/DEG ---
	 ---------------------------------------------------------------------------
	   Coordinate                Previous        Force       Change         New 
	   ----------                --------       ------       ------       ------
	    1 R(1,2)          =      1.407565    -0.000072    -0.000013     1.407552
	    2 R(1,6)          =      1.406942     0.000017    -0.000012     1.406930
	    3 R(1,7)          =      1.469457     0.000533     0.000118     1.469575
	    4 R(2,3)          =      1.391535     0.000072     0.000014     1.391549
	    5 R(2,8)          =      1.086229     0.000020    -0.000002     1.086226
	    6 R(3,4)          =      1.397557    -0.000049    -0.000013     1.397544
	    7 R(3,9)          =      1.085139     0.000026     0.000003     1.085142
	    8 R(4,5)          =      1.398135    -0.000053    -0.000010     1.398125
	    9 R(4,10)         =      1.085568     0.000005     0.000001     1.085569
	   10 R(5,6)          =      1.390645     0.000035     0.000006     1.390651
	   11 R(5,11)         =      1.085069     0.000002    -0.000001     1.085068
	   12 R(6,12)         =      1.087072    -0.000047    -0.000010     1.087062
	   13 R(7,13)         =      1.343958     0.000124    -0.000010     1.343948
	   14 R(7,14)         =      1.326958    -0.000345    -0.000043     1.326914
	   15 R(13,17)        =      1.014595     0.000014     0.000002     1.014598
	   16 R(13,18)        =      1.017009    -0.000537    -0.000053     1.016957
	   17 R(14,15)        =      1.013722     0.000018    -0.000001     1.013721
	   18 R(14,16)        =      1.011819     0.000093     0.000001     1.011820
	   19 B(1,2,3)        =    119.725919     0.000000    -0.001596   119.724324
	   20 B(1,2,8)        =    120.823421     0.000001     0.006482   120.829903
	   21 B(1,6,5)        =    119.945426     0.000000    -0.000335   119.945091
	   22 B(1,6,12)       =    120.930022     0.000001     0.000666   120.930688
	   23 B(1,7,13)       =    119.993033     0.000001     0.004434   119.997467
	   24 B(1,7,14)       =    119.638726    -0.000000    -0.004181   119.634545
	   25 B(2,1,6)        =    119.871460    -0.000000     0.001584   119.873045
	   26 B(2,1,7)        =    119.887868    -0.000000    -0.001046   119.886822
	   27 B(2,3,4)        =    120.161319    -0.000000     0.000049   120.161369
	   28 B(2,3,9)        =    119.596309     0.000000     0.000802   119.597111
	   29 B(3,2,8)        =    119.339517    -0.000002    -0.005970   119.333548
	   30 B(3,4,5)        =    120.303535     0.000000     0.000985   120.304520
	   31 B(3,4,10)       =    119.852785     0.000000    -0.000180   119.852605
	   32 B(4,3,9)        =    120.239712    -0.000000    -0.000863   120.238848
	   33 B(4,5,6)        =    119.985864    -0.000000    -0.000819   119.985045
	   34 B(4,5,11)       =    120.258993    -0.000000    -0.001325   120.257667
	   35 B(5,4,10)       =    119.843409    -0.000000    -0.000785   119.842625
	   36 B(5,6,12)       =    119.072405    -0.000001    -0.000139   119.072267
	   37 B(6,1,7)        =    120.237941     0.000000    -0.000466   120.237475
	   38 B(6,5,11)       =    119.754263     0.000000     0.002139   119.756402
	   39 B(7,13,17)      =    118.019857     0.000002     0.007071   118.026928
	   40 B(7,13,18)      =    117.980718     0.000002     0.004922   117.985640
	   41 B(7,14,15)      =    122.990222    -0.000001    -0.004963   122.985258
	   42 B(7,14,16)      =    120.200837     0.000001     0.005213   120.206050
	   43 B(13,7,14)      =    119.577738    -0.000000    -0.000337   119.577401
	   44 B(15,14,16)     =    116.807052    -0.000000    -0.000109   116.806943
	   45 B(17,13,18)     =    111.377731    -0.000003    -0.014514   111.363217
	   46 D(1,2,3,4)      =      0.894569     0.000000     0.011537     0.906106
	   47 D(1,2,3,9)      =   -178.513613     0.000000     0.012900  -178.500713
	   48 D(1,6,5,4)      =      0.558092    -0.000000    -0.001533     0.556558
	   49 D(1,6,5,11)     =   -179.101633    -0.000000    -0.000423  -179.102056
	   50 *D(1,7,13,17)   =    -39.999988    -0.000000    -0.000000   -39.999988
	   51 D(1,7,13,18)    =   -178.615745    -0.000000     0.009341  -178.606403
	   52 D(1,7,14,15)    =   -172.923361    -0.000000    -0.026350  -172.949711
	   53 D(1,7,14,16)    =      7.593040    -0.000001    -0.046074     7.546965
	   54 D(2,1,6,5)      =     -0.143908     0.000000     0.012785    -0.131123
	   55 D(2,1,6,12)     =   -177.493249     0.000000     0.007897  -177.485352
	   56 D(2,1,7,13)     =   -137.511428    -0.000000    -0.020346  -137.531774
	   57 D(2,1,7,14)     =     32.265152     0.000000    -0.020925    32.244227
	   58 D(2,3,4,5)      =     -0.483596     0.000000    -0.000293    -0.483889
	   59 D(2,3,4,10)     =    179.705808    -0.000000    -0.007300   179.698509
	   60 D(3,2,1,6)      =     -0.582958    -0.000000    -0.017767    -0.600725
	   61 D(3,2,1,7)      =    178.817417    -0.000000    -0.009805   178.807611
	   62 D(3,4,5,6)      =     -0.249016    -0.000000    -0.004763    -0.253779
	   63 D(3,4,5,11)     =    179.408972    -0.000000    -0.005867   179.403105
	   64 D(4,3,2,8)      =    177.093994    -0.000000    -0.006668   177.087325
	   65 D(4,5,6,12)     =    177.956630     0.000000     0.003286   177.959916
	   66 D(5,4,3,9)      =    178.920749    -0.000000    -0.001656   178.919094
	   67 D(5,6,1,7)      =   -179.542158     0.000000     0.004799  -179.537359
	   68 D(6,1,2,8)      =   -176.724846     0.000000     0.001204  -176.723642
	   69 D(6,1,7,13)     =     41.886723    -0.000000    -0.012342    41.874381
	   70 D(6,1,7,14)     =   -148.336697     0.000000    -0.012921  -148.349619
	   71 D(6,5,4,10)     =    179.561597     0.000000     0.002244   179.563841
	   72 D(7,1,2,8)      =      2.675528     0.000000     0.009166     2.684694
	   73 D(7,1,6,12)     =      3.108501    -0.000000    -0.000090     3.108411
	   74 D(8,2,3,9)      =     -2.314188    -0.000000    -0.005305    -2.319493
	   75 D(9,3,4,10)     =     -0.889846    -0.000000    -0.008662    -0.898508
	   76 D(10,4,5,11)    =     -0.780414     0.000000     0.001140    -0.779275
	   77 D(11,5,6,12)    =     -1.703095     0.000000     0.004396    -1.698698
	   78 D(13,7,14,15)   =     -3.104003     0.000000    -0.026432    -3.130436
	   79 D(13,7,14,16)   =    177.412397    -0.000000    -0.046157   177.366241
	   80 D(14,7,13,17)   =    150.217184    -0.000000     0.000973   150.218156
	   81 D(14,7,13,18)   =     11.601427    -0.000000     0.010314    11.611741
	 ---------------------------------------------------------------------------
	Successfully symmetrized geometry.

  ==> Convergence Check <==

  Measures of convergence in internal coordinates in au.
  Criteria marked as inactive (o), active & met (*), and active & unmet ( ).
  ---------------------------------------------------------------------------------------------
   Step     Total Energy     Delta E     MAX Force     RMS Force      MAX Disp      RMS Disp   
  ---------------------------------------------------------------------------------------------
    Convergence Criteria    1.00e-06 *    3.00e-04 *             o    1.20e-03 *             o
  ---------------------------------------------------------------------------------------------
      9    -381.46173516   -4.21e-07 *    6.52e-05 *    1.53e-05 o    8.06e-04 *    1.85e-04 o  ~
  ---------------------------------------------------------------------------------------------


  **** Optimization is complete! (in 9 steps) ****

  ==> Optimization Summary <==

  Measures of convergence in internal coordinates in au.
  --------------------------------------------------------------------------------------------------------------- ~
   Step         Total Energy             Delta E       MAX Force       RMS Force        MAX Disp        RMS Disp  ~
  --------------------------------------------------------------------------------------------------------------- ~
      1    -381.447699149181   -381.447699149181      0.02041328      0.00352921      0.31553616      0.05486055  ~
      2    -381.454717138967     -0.007017989785      0.01257763      0.00267243      0.37644052      0.06185420  ~
      3    -381.458016166575     -0.003299027608      0.03869077      0.00466507      0.23009053      0.03702651  ~
      4    -381.460711133377     -0.002694966802      0.02391677      0.00275282      0.07436731      0.01747098  ~
      5    -381.461594933614     -0.000883800238      0.00798110      0.00098953      0.02047510      0.00590315  ~
      6    -381.461713277558     -0.000118343944      0.00088674      0.00014921      0.02811189      0.00591078  ~
      7    -381.461731730846     -0.000018453287      0.00046883      0.00009531      0.01246171      0.00293153  ~
      8    -381.461734740047     -0.000003009202      0.00012614      0.00003643      0.00244148      0.00056980  ~
      9    -381.461735161178     -0.000000421130      0.00006516      0.00001529      0.00080559      0.00018453  ~
  --------------------------------------------------------------------------------------------------------------- ~

	Writing optimization data to binary file.
	Final energy is   -381.4617351611777
	Final (previous) structure:
	Cartesian Geometry (in Angstrom)
	    C     0.0132755533  -0.0165690213  -0.1691270735
	    C     0.0749615303   1.2040838088   0.5290422315
	    C     0.0695265157   1.2041068397   1.9205664919
	    C     0.0219560705  -0.0033971887   2.6225893877
	    C    -0.0306610219  -1.2186240702   1.9332148610
	    C    -0.0410527629  -1.2289684042   0.5426471388
	    C    -0.0074691879  -0.0194898089  -1.6384350145
	    H     0.0641515382   2.1508870311  -0.0032541656
	    H     0.0926967697   2.1473349715   2.4565803619
	    H     0.0227637915   0.0022768584   3.7081421605
	    H    -0.0579145997  -2.1560867868   2.4789214315
	    H    -0.0483112310  -2.1829735285   0.0215445593
	    N    -0.8387941048  -0.8449981541  -2.2969626666
	    N     0.6397306334   0.9274267933  -2.3057412459
	    H     0.5749641566   1.0364145203  -3.3115040977
	    H     1.2375939936   1.5787800601  -1.8137296397
	    H    -0.9597835030  -1.7859873388  -1.9373732008
	    H    -0.8126561418  -0.8371455816  -3.3136055197
	Saving final (previous) structure.
	Removing binary optimization data file.
			--------------------------
			 OPTKING Finished Execution 
			--------------------------

    Final optimized geometry and variables:
    Molecular point group: c1
    Full point group: C1

    Geometry (in Angstrom), charge = 1, multiplicity = 1:

    C            0.013275553345    -0.016569021339    -0.169127073519
    C            0.074961530327     1.204083808769     0.529042231454
    C            0.069526515712     1.204106839701     1.920566491924
    C            0.021956070533    -0.003397188659     2.622589387710
    C           -0.030661021865    -1.218624070195     1.933214860981
    C           -0.041052762863    -1.228968404249     0.542647138765
    C           -0.007469187941    -0.019489808903    -1.638435014512
    H            0.064151538201     2.150887031066    -0.003254165639
    H            0.092696769737     2.147334971477     2.456580361939
    H            0.022763791519     0.002276858409     3.708142160518
    H           -0.057914599652    -2.156086786793     2.478921431493
    H           -0.048311230983    -2.182973528497     0.021544559332
    N           -0.838794104805    -0.844998154061    -2.296962666640
    N            0.639730633449     0.927426793334    -2.305741245925
    H            0.574964156567     1.036414520289    -3.311504097699
    H            1.237593993554     1.578780060055    -1.813729639723
    H           -0.959783503007    -1.785987338766    -1.937373200756
    H           -0.812656141828    -0.837145581636    -3.313605519705

	Removing binary optimization data file.
	Cleaning optimization helper files.


Properties will be evaluated at   0.000000,   0.000000,   0.000000 [a0]
OEProp: No title given, name of density matrix used for the following properties is 'SCF density'
  Nuclear Dipole Moment: [e a0]
     X:    -1.2788      Y:     0.1084      Z:     0.9633

  Electronic Dipole Moment: [e a0]
     X:     1.5413      Y:    -0.1446      Z:    -3.2303

  Dipole Moment: [e a0]
     X:     0.2625      Y:    -0.0362      Z:    -2.2670     Total:     2.2824

  Dipole Moment: [D]
     X:     0.6671      Y:    -0.0919      Z:    -5.7621     Total:     5.8014

  Quadrupole Moment: [D A]
    XX:   -52.3118     YY:   -35.7876     ZZ:   -12.7724
    XY:     5.5391     XZ:    -0.6434     YZ:    -0.0619

  Traceless Quadrupole Moment: [D A]
    XX:   -18.6879     YY:    -2.1637     ZZ:    20.8515
    XY:     5.5391     XZ:    -0.6434     YZ:    -0.0619

  Mulliken Charges: (a.u.)
   Center  Symbol    Alpha    Beta     Spin     Total
       1     C     2.93723  2.93723  0.00000  0.12554
       2     C     3.08329  3.08329  0.00000 -0.16657
       3     C     3.06204  3.06204  0.00000 -0.12409
       4     C     3.05154  3.05154  0.00000 -0.10307
       5     C     3.06243  3.06243  0.00000 -0.12485
       6     C     3.08357  3.08357  0.00000 -0.16714
       7     C     2.74883  2.74883  0.00000  0.50235
       8     H     0.41575  0.41575  0.00000  0.16851
       9     H     0.40519  0.40519  0.00000  0.18962
      10     H     0.40362  0.40362  0.00000  0.19276
      11     H     0.40524  0.40524  0.00000  0.18952
      12     H     0.41961  0.41961  0.00000  0.16077
      13     N     3.84551  3.84551  0.00000 -0.69102
      14     N     3.85851  3.85851  0.00000 -0.71702
      15     H     0.30426  0.30426  0.00000  0.39149
      16     H     0.29844  0.29844  0.00000  0.40312
      17     H     0.30256  0.30256  0.00000  0.39488
      18     H     0.31240  0.31240  0.00000  0.37521

   Total alpha = 32.00000, Total beta = 32.00000, Total charge =  1.00000


    Psi4 stopped on: Saturday, 29 September 2018 08:31PM
    Psi4 wall time for execution: 0:04:05.89

*** Psi4 exiting successfully. Buy a developer a beer!
