
    -----------------------------------------------------------------------
          Psi4: An Open-Source Ab Initio Electronic Structure Package
                               Psi4 1.2.1 release

                         Git: Rev {HEAD} 406f4de 


    R. M. Parrish, L. A. Burns, D. G. A. Smith, A. C. Simmonett,
    A. E. DePrince III, E. G. Hohenstein, U. Bozkaya, A. Yu. Sokolov,
    R. Di Remigio, R. M. Richard, J. F. Gonthier, A. M. James,
    H. R. McAlexander, A. Kumar, M. Saitow, X. Wang, B. P. Pritchard,
    P. Verma, H. F. Schaefer III, K. Patkowski, R. A. King, E. F. Valeev,
    F. A. Evangelista, J. M. Turney, T. D. Crawford, and C. D. Sherrill,
    J. Chem. Theory Comput. 13(7) pp 3185--3197 (2017).
    (doi: 10.1021/acs.jctc.7b00174)


                         Additional Contributions by
    P. Kraus, H. Kruse, M. H. Lechner, M. C. Schieber, and R. A. Shaw

    -----------------------------------------------------------------------


    Psi4 started on: Saturday, 29 September 2018 05:08PM

    Process ID: 12739
    Host:       loro.prib.upf.edu
    PSIDATADIR: /shared/joao/test_parameterize/miniconda3/share/psi4
    Memory:     500.0 MiB
    Threads:    1
    
  ==> Input File <==

--------------------------------------------------------------------------
set_num_threads(1)
set_memory('5348 MB')

set { scf_mem_safety_factor 0.7 }

set { reference rks }
set { basis cc-pVDZ }

molecule MOL {
    0 1
    noreorient
    nocom
    symmetry c1
    O    1.050400   0.042900  -0.048100
    C    2.474100   0.047400  -0.029000
    C    3.002600  -1.068900  -0.932000
    N    2.547700  -2.389344  -0.499572
    H    0.760400   0.728400   0.578000
    H    2.809900  -0.097900   1.003200
    H    2.817400   1.026800  -0.378600
    H    4.098367  -1.043301  -0.951431
    H    2.673360  -0.888063  -1.961541
    H    2.954652  -2.605429   0.409922
    H    2.915383  -3.089979  -1.143132
}

set optking { frozen_dihedral = (" 1 2 3 4 ") }

energy, wfn = energy('B3LYP-D3', return_wfn=True)

import os
os.chdir(os.environ['HTMD_PSI4_WORKDIR'])

oeprop(wfn, 'DIPOLE', 'QUADRUPOLE', 'MULLIKEN_CHARGES')

with open('psi4out.xyz', 'w') as f:
    f.write('11 ' )
    f.write('%.12f\n' % energy)
    f.write(MOL.save_string_xyz())
--------------------------------------------------------------------------
  Threads set to 1 by Python driver.

  Memory set to   4.981 GiB by Python driver.

*** tstart() called on loro.prib.upf.edu
*** at Sat Sep 29 17:08:50 2018

   => Loading Basis Set <=

    Name: CC-PVDZ
    Role: ORBITAL
    Keyword: BASIS
    atoms 1    entry O          line   198 file /shared/joao/test_parameterize/miniconda3/share/psi4/basis/cc-pvdz.gbs 
    atoms 2-3  entry C          line   138 file /shared/joao/test_parameterize/miniconda3/share/psi4/basis/cc-pvdz.gbs 
    atoms 4    entry N          line   168 file /shared/joao/test_parameterize/miniconda3/share/psi4/basis/cc-pvdz.gbs 
    atoms 5-11 entry H          line    22 file /shared/joao/test_parameterize/miniconda3/share/psi4/basis/cc-pvdz.gbs 


         ---------------------------------------------------------
                                   SCF
            by Justin Turney, Rob Parrish, Andy Simmonett
                             and Daniel Smith
                              RKS Reference
                        1 Threads,   5100 MiB Core
         ---------------------------------------------------------

  ==> Geometry <==

    Molecular point group: c1
    Full point group: C1

    Geometry (in Angstrom), charge = 0, multiplicity = 1:

       Center              X                  Y                   Z               Mass       
    ------------   -----------------  -----------------  -----------------  -----------------
         O            1.050400000000     0.042900000000    -0.048100000000    15.994914619560
         C            2.474100000000     0.047400000000    -0.029000000000    12.000000000000
         C            3.002600000000    -1.068900000000    -0.932000000000    12.000000000000
         N            2.547700000000    -2.389344000000    -0.499572000000    14.003074004780
         H            0.760400000000     0.728400000000     0.578000000000     1.007825032070
         H            2.809900000000    -0.097900000000     1.003200000000     1.007825032070
         H            2.817400000000     1.026800000000    -0.378600000000     1.007825032070
         H            4.098367000000    -1.043301000000    -0.951431000000     1.007825032070
         H            2.673360000000    -0.888063000000    -1.961541000000     1.007825032070
         H            2.954652000000    -2.605429000000     0.409922000000     1.007825032070
         H            2.915383000000    -3.089979000000    -1.143132000000     1.007825032070

  Running in c1 symmetry.

  Rotational constants: A =      0.29984  B =      0.03863  C =      0.03552 [cm^-1]
  Rotational constants: A =   8988.96810  B =   1158.06295  C =   1064.79070 [MHz]
  Nuclear repulsion =  132.614953611485646

  Charge       = 0
  Multiplicity = 1
  Electrons    = 34
  Nalpha       = 17
  Nbeta        = 17

  ==> Algorithm <==

  SCF Algorithm Type is DF.
  DIIS enabled.
  MOM disabled.
  Fractional occupation disabled.
  Guess Type is SAD.
  Energy threshold   = 1.00e-06
  Density threshold  = 1.00e-06
  Integral threshold = 0.00e+00

  ==> Primary Basis <==

  Basis Set: CC-PVDZ
    Blend: CC-PVDZ
    Number of shells: 45
    Number of basis function: 91
    Number of Cartesian functions: 95
    Spherical Harmonics?: true
    Max angular momentum: 2

  ==> DFT Potential <==

   => Composite Functional: B3LYP-D3ZERO <= 

    B3LYP-d3zero Hyb-GGA Exchange-Correlation Functional

    P. J. Stephens, F. J. Devlin, C. F. Chabalowski, and M. J. Frisch, J. Phys. Chem. 98, 11623 (1994)

    Deriv               =              1
    GGA                 =           TRUE
    Meta                =          FALSE

    Exchange Hybrid     =           TRUE
    MP2 Hybrid          =          FALSE

   => Exchange Functionals <=

    0.0800   Slater exchange
    0.7200         Becke 88

   => Exact (HF) Exchange <=

    0.2000               HF 

   => Correlation Functionals <=

    0.1900   Vosko, Wilk & Nusair (VWN5_RPA)
    0.8100   Lee, Yang & Parr

   => Molecular Quadrature <=

    Radial Scheme       =       TREUTLER
    Pruning Scheme      =           FLAT
    Nuclear Scheme      =       TREUTLER

    BS radius alpha     =              1
    Pruning alpha       =              1
    Radial Points       =             75
    Spherical Points    =            302
    Total Points        =         245111
    Total Blocks        =           1903
    Max Points          =            256
    Max Functions       =             91

   => -D3ZERO: Empirical Dispersion <=

    Grimme's -D3 (zero-damping) Dispersion Correction
    Grimme S.; Antony J.; Ehrlich S.; Krieg H. (2010), J. Chem. Phys., 132: 154104

        S6 =   1.000000E+00
        S8 =   1.703000E+00
       SR6 =   1.261000E+00
       SR8 =   1.000000E+00
    ALPHA6 =   1.400000E+01

   => Loading Basis Set <=

    Name: (CC-PVDZ AUX)
    Role: JKFIT
    Keyword: DF_BASIS_SCF
    atoms 1    entry O          line   221 file /shared/joao/test_parameterize/miniconda3/share/psi4/basis/cc-pvdz-jkfit.gbs 
    atoms 2-3  entry C          line   121 file /shared/joao/test_parameterize/miniconda3/share/psi4/basis/cc-pvdz-jkfit.gbs 
    atoms 4    entry N          line   171 file /shared/joao/test_parameterize/miniconda3/share/psi4/basis/cc-pvdz-jkfit.gbs 
    atoms 5-11 entry H          line    51 file /shared/joao/test_parameterize/miniconda3/share/psi4/basis/cc-pvdz-jkfit.gbs 

  ==> Pre-Iterations <==

   -------------------------------------------------------
    Irrep   Nso     Nmo     Nalpha   Nbeta   Ndocc  Nsocc
   -------------------------------------------------------
     A         91      91       0       0       0       0
   -------------------------------------------------------
    Total      91      91      17      17      17       0
   -------------------------------------------------------

  ==> Integral Setup <==

  DFHelper Memory: AOs need 0.036 [GiB]; user supplied 3.486 [GiB]. Using in-core AOs.

  ==> MemDFJK: Density-Fitted J/K Matrices <==

    J tasked:                   Yes
    K tasked:                   Yes
    wK tasked:                   No
    OpenMP threads:               1
    Memory (MB):               3570
    Algorithm:                 Core
    Schwarz Cutoff:           1E-12
    Mask sparsity (%):       0.0000
    Fitting Condition:        1E-12

   => Auxiliary Basis Set <=

  Basis Set: (CC-PVDZ AUX)
    Blend: CC-PVDZ-JKFIT
    Number of shells: 159
    Number of basis function: 441
    Number of Cartesian functions: 499
    Spherical Harmonics?: true
    Max angular momentum: 3

  Minimum eigenvalue in the overlap matrix is 4.8896576743E-03.
  Using Symmetric Orthogonalization.

  SCF Guess: Superposition of Atomic Densities via on-the-fly atomic UHF.

  ==> Iterations <==

                           Total Energy        Delta E     RMS |[F,P]|

   @DF-RKS iter   0:  -210.94242944886938   -2.10942e+02   3.75960e-02 
   @DF-RKS iter   1:  -210.25213601165260    6.90293e-01   6.18760e-03 
   @DF-RKS iter   2:  -210.12171102778314    1.30425e-01   8.93530e-03 DIIS
   @DF-RKS iter   3:  -210.38701988576602   -2.65309e-01   6.11664e-04 DIIS
   @DF-RKS iter   4:  -210.38801621876036   -9.96333e-04   3.31874e-04 DIIS
   @DF-RKS iter   5:  -210.38842314273307   -4.06924e-04   5.57656e-05 DIIS
   @DF-RKS iter   6:  -210.38843444991286   -1.13072e-05   1.29262e-05 DIIS
   @DF-RKS iter   7:  -210.38843499630372   -5.46391e-07   4.36702e-06 DIIS
   @DF-RKS iter   8:  -210.38843506421176   -6.79080e-08   5.76702e-07 DIIS

  ==> Post-Iterations <==

    Orbital Energies [Eh]
    ---------------------

    Doubly Occupied:                                                      

       1A    -19.120449     2A    -14.297781     3A    -10.224692  
       4A    -10.203063     5A     -1.004109     6A     -0.871142  
       7A     -0.713796     8A     -0.594682     9A     -0.506045  
      10A     -0.485266    11A     -0.445364    12A     -0.411827  
      13A     -0.387255    14A     -0.368044    15A     -0.317465  
      16A     -0.257073    17A     -0.223532  

    Virtual:                                                              

      18A      0.048257    19A      0.076555    20A      0.100041  
      21A      0.105305    22A      0.134467    23A      0.148050  
      24A      0.157614    25A      0.207483    26A      0.228936  
      27A      0.251053    28A      0.436774    29A      0.468956  
      30A      0.496391    31A      0.504340    32A      0.548613  
      33A      0.558064    34A      0.608796    35A      0.622136  
      36A      0.644500    37A      0.651091    38A      0.672028  
      39A      0.677275    40A      0.701417    41A      0.819685  
      42A      0.843184    43A      0.861700    44A      0.921028  
      45A      0.970080    46A      1.000561    47A      1.005527  
      48A      1.061779    49A      1.181418    50A      1.200877  
      51A      1.226508    52A      1.285608    53A      1.307978  
      54A      1.372538    55A      1.446388    56A      1.485421  
      57A      1.537480    58A      1.579829    59A      1.605936  
      60A      1.616466    61A      1.629360    62A      1.684561  
      63A      1.702512    64A      1.707898    65A      1.744598  
      66A      1.771597    67A      1.853871    68A      1.898779  
      69A      1.920979    70A      1.936627    71A      1.974552  
      72A      2.020972    73A      2.040345    74A      2.132030  
      75A      2.183907    76A      2.217691    77A      2.289300  
      78A      2.371318    79A      2.400146    80A      2.456203  
      81A      2.471617    82A      2.555032    83A      2.614841  
      84A      2.683498    85A      2.830739    86A      2.972162  
      87A      3.019877    88A      3.051106    89A      3.121644  
      90A      3.211055    91A      3.706885  

    Final Occupation by Irrep:
              A 
    DOCC [    17 ]

  Energy converged.

  @DF-RKS Final Energy:  -210.38843506421176

   => Energetics <=

    Nuclear Repulsion Energy =            132.6149536114856460
    One-Electron Energy =                -548.2624410881821859
    Two-Electron Energy =                 228.7490079999839452
    DFT Exchange-Correlation Energy =     -23.4849614874991666
    Empirical Dispersion Energy =          -0.0049941000000000
    VV10 Nonlocal Energy =                  0.0000000000000000
    Total Energy =                       -210.3884350642117624



Properties will be evaluated at   0.000000,   0.000000,   0.000000 [a0]

Properties computed using the SCF density matrix

  Nuclear Dipole Moment: [e a0]
     X:   147.6382      Y:   -53.8207      Z:   -22.8494

  Electronic Dipole Moment: [e a0]
     X:  -146.8707      Y:    54.1136      Z:    23.1765

  Dipole Moment: [e a0]
     X:     0.7675      Y:     0.2929      Z:     0.3270     Total:     0.8842

  Dipole Moment: [D]
     X:     1.9508      Y:     0.7445      Z:     0.8313     Total:     2.2474


*** tstop() called on loro.prib.upf.edu at Sat Sep 29 17:09:08 2018
Module time:
	user time   =      15.13 seconds =       0.25 minutes
	system time =       0.21 seconds =       0.00 minutes
	total time  =         18 seconds =       0.30 minutes
Total time:
	user time   =      15.13 seconds =       0.25 minutes
	system time =       0.21 seconds =       0.00 minutes
	total time  =         18 seconds =       0.30 minutes


Properties will be evaluated at   0.000000,   0.000000,   0.000000 [a0]
OEProp: No title given, name of density matrix used for the following properties is 'SCF density'
  Nuclear Dipole Moment: [e a0]
     X:   147.6382      Y:   -53.8207      Z:   -22.8494

  Electronic Dipole Moment: [e a0]
     X:  -146.8707      Y:    54.1136      Z:    23.1765

  Dipole Moment: [e a0]
     X:     0.7675      Y:     0.2929      Z:     0.3270     Total:     0.8842

  Dipole Moment: [D]
     X:     1.9508      Y:     0.7445      Z:     0.8313     Total:     2.2474

  Quadrupole Moment: [D A]
    XX:   -17.5493     YY:   -22.8563     ZZ:   -23.5840
    XY:    -3.7610     XZ:    -0.2400     YZ:     1.1884

  Traceless Quadrupole Moment: [D A]
    XX:     3.7806     YY:    -1.5264     ZZ:    -2.2541
    XY:    -3.7610     XZ:    -0.2400     YZ:     1.1884

  Mulliken Charges: (a.u.)
   Center  Symbol    Alpha    Beta     Spin     Total
       1     O     4.13352  4.13352  0.00000 -0.26704
       2     C     2.92927  2.92927  0.00000  0.14147
       3     C     2.98062  2.98062  0.00000  0.03875
       4     N     3.58413  3.58413  0.00000 -0.16825
       5     H     0.43249  0.43249  0.00000  0.13502
       6     H     0.50521  0.50521  0.00000 -0.01042
       7     H     0.50303  0.50303  0.00000 -0.00606
       8     H     0.50738  0.50738  0.00000 -0.01475
       9     H     0.48990  0.48990  0.00000  0.02020
      10     H     0.46803  0.46803  0.00000  0.06395
      11     H     0.46643  0.46643  0.00000  0.06715

   Total alpha = 17.00000, Total beta = 17.00000, Total charge = -0.00000


    Psi4 stopped on: Saturday, 29 September 2018 05:09PM
    Psi4 wall time for execution: 0:00:18.41

*** Psi4 exiting successfully. Buy a developer a beer!
