
    -----------------------------------------------------------------------
          Psi4: An Open-Source Ab Initio Electronic Structure Package
                               Psi4 1.2.1 release

                         Git: Rev {HEAD} 406f4de 


    R. M. Parrish, L. A. Burns, D. G. A. Smith, A. C. Simmonett,
    A. E. DePrince III, E. G. Hohenstein, U. Bozkaya, A. Yu. Sokolov,
    R. Di Remigio, R. M. Richard, J. F. Gonthier, A. M. James,
    H. R. McAlexander, A. Kumar, M. Saitow, X. Wang, B. P. Pritchard,
    P. Verma, H. F. Schaefer III, K. Patkowski, R. A. King, E. F. Valeev,
    F. A. Evangelista, J. M. Turney, T. D. Crawford, and C. D. Sherrill,
    J. Chem. Theory Comput. 13(7) pp 3185--3197 (2017).
    (doi: 10.1021/acs.jctc.7b00174)


                         Additional Contributions by
    P. Kraus, H. Kruse, M. H. Lechner, M. C. Schieber, and R. A. Shaw

    -----------------------------------------------------------------------


    Psi4 started on: Saturday, 29 September 2018 04:49PM

    Process ID: 4171
    Host:       loro.prib.upf.edu
    PSIDATADIR: /shared/joao/test_parameterize/miniconda3/share/psi4
    Memory:     500.0 MiB
    Threads:    1
    
  ==> Input File <==

--------------------------------------------------------------------------
set_num_threads(1)
set_memory('5348 MB')

set { scf_mem_safety_factor 0.7 }

set { reference rks }
set { basis cc-pVDZ }

molecule MOL {
    0 1
    noreorient
    nocom
    symmetry c1
    O    1.141000   0.017000   0.083000
    C    2.558000   0.086000  -0.005000
    C    3.192000  -0.789000   1.067000
    O    4.609999  -0.719602   0.978509
    H    0.789000   0.590000  -0.620000
    H    2.874000   1.128000   0.115000
    H    2.871000  -0.243000  -1.001000
    H    2.875534  -1.829900   0.947358
    H    2.879468  -0.458631   2.064025
    H    4.960999  -1.293575   1.681531
}

set optking { frozen_dihedral = (" 1 2 3 4 ") }

energy, wfn = energy('B3LYP-D3', return_wfn=True)

import os
os.chdir(os.environ['HTMD_PSI4_WORKDIR'])

oeprop(wfn, 'DIPOLE', 'QUADRUPOLE', 'MULLIKEN_CHARGES')

with open('psi4out.xyz', 'w') as f:
    f.write('10 ' )
    f.write('%.12f\n' % energy)
    f.write(MOL.save_string_xyz())
--------------------------------------------------------------------------
  Threads set to 1 by Python driver.

  Memory set to   4.981 GiB by Python driver.

*** tstart() called on loro.prib.upf.edu
*** at Sat Sep 29 16:49:18 2018

   => Loading Basis Set <=

    Name: CC-PVDZ
    Role: ORBITAL
    Keyword: BASIS
    atoms 1, 4 entry O          line   198 file /shared/joao/test_parameterize/miniconda3/share/psi4/basis/cc-pvdz.gbs 
    atoms 2-3  entry C          line   138 file /shared/joao/test_parameterize/miniconda3/share/psi4/basis/cc-pvdz.gbs 
    atoms 5-10 entry H          line    22 file /shared/joao/test_parameterize/miniconda3/share/psi4/basis/cc-pvdz.gbs 


         ---------------------------------------------------------
                                   SCF
            by Justin Turney, Rob Parrish, Andy Simmonett
                             and Daniel Smith
                              RKS Reference
                        1 Threads,   5100 MiB Core
         ---------------------------------------------------------

  ==> Geometry <==

    Molecular point group: c1
    Full point group: C1

    Geometry (in Angstrom), charge = 0, multiplicity = 1:

       Center              X                  Y                   Z               Mass       
    ------------   -----------------  -----------------  -----------------  -----------------
         O            1.141000000000     0.017000000000     0.083000000000    15.994914619560
         C            2.558000000000     0.086000000000    -0.005000000000    12.000000000000
         C            3.192000000000    -0.789000000000     1.067000000000    12.000000000000
         O            4.609999000000    -0.719602000000     0.978509000000    15.994914619560
         H            0.789000000000     0.590000000000    -0.620000000000     1.007825032070
         H            2.874000000000     1.128000000000     0.115000000000     1.007825032070
         H            2.871000000000    -0.243000000000    -1.001000000000     1.007825032070
         H            2.875534000000    -1.829900000000     0.947358000000     1.007825032070
         H            2.879468000000    -0.458631000000     2.064025000000     1.007825032070
         H            4.960999000000    -1.293575000000     1.681531000000     1.007825032070

  Running in c1 symmetry.

  Rotational constants: A =      0.82452  B =      0.02537  C =      0.02485 [cm^-1]
  Rotational constants: A =  24718.36395  B =    760.66880  C =    744.89301 [MHz]
  Nuclear repulsion =  129.441064066671913

  Charge       = 0
  Multiplicity = 1
  Electrons    = 34
  Nalpha       = 17
  Nbeta        = 17

  ==> Algorithm <==

  SCF Algorithm Type is DF.
  DIIS enabled.
  MOM disabled.
  Fractional occupation disabled.
  Guess Type is SAD.
  Energy threshold   = 1.00e-06
  Density threshold  = 1.00e-06
  Integral threshold = 0.00e+00

  ==> Primary Basis <==

  Basis Set: CC-PVDZ
    Blend: CC-PVDZ
    Number of shells: 42
    Number of basis function: 86
    Number of Cartesian functions: 90
    Spherical Harmonics?: true
    Max angular momentum: 2

  ==> DFT Potential <==

   => Composite Functional: B3LYP-D3ZERO <= 

    B3LYP-d3zero Hyb-GGA Exchange-Correlation Functional

    P. J. Stephens, F. J. Devlin, C. F. Chabalowski, and M. J. Frisch, J. Phys. Chem. 98, 11623 (1994)

    Deriv               =              1
    GGA                 =           TRUE
    Meta                =          FALSE

    Exchange Hybrid     =           TRUE
    MP2 Hybrid          =          FALSE

   => Exchange Functionals <=

    0.0800   Slater exchange
    0.7200         Becke 88

   => Exact (HF) Exchange <=

    0.2000               HF 

   => Correlation Functionals <=

    0.1900   Vosko, Wilk & Nusair (VWN5_RPA)
    0.8100   Lee, Yang & Parr

   => Molecular Quadrature <=

    Radial Scheme       =       TREUTLER
    Pruning Scheme      =           FLAT
    Nuclear Scheme      =       TREUTLER

    BS radius alpha     =              1
    Pruning alpha       =              1
    Radial Points       =             75
    Spherical Points    =            302
    Total Points        =         222564
    Total Blocks        =           1722
    Max Points          =            256
    Max Functions       =             86

   => -D3ZERO: Empirical Dispersion <=

    Grimme's -D3 (zero-damping) Dispersion Correction
    Grimme S.; Antony J.; Ehrlich S.; Krieg H. (2010), J. Chem. Phys., 132: 154104

        S6 =   1.000000E+00
        S8 =   1.703000E+00
       SR6 =   1.261000E+00
       SR8 =   1.000000E+00
    ALPHA6 =   1.400000E+01

   => Loading Basis Set <=

    Name: (CC-PVDZ AUX)
    Role: JKFIT
    Keyword: DF_BASIS_SCF
    atoms 1, 4 entry O          line   221 file /shared/joao/test_parameterize/miniconda3/share/psi4/basis/cc-pvdz-jkfit.gbs 
    atoms 2-3  entry C          line   121 file /shared/joao/test_parameterize/miniconda3/share/psi4/basis/cc-pvdz-jkfit.gbs 
    atoms 5-10 entry H          line    51 file /shared/joao/test_parameterize/miniconda3/share/psi4/basis/cc-pvdz-jkfit.gbs 

  ==> Pre-Iterations <==

   -------------------------------------------------------
    Irrep   Nso     Nmo     Nalpha   Nbeta   Ndocc  Nsocc
   -------------------------------------------------------
     A         86      86       0       0       0       0
   -------------------------------------------------------
    Total      86      86      17      17      17       0
   -------------------------------------------------------

  ==> Integral Setup <==

  DFHelper Memory: AOs need 0.030 [GiB]; user supplied 3.486 [GiB]. Using in-core AOs.

  ==> MemDFJK: Density-Fitted J/K Matrices <==

    J tasked:                   Yes
    K tasked:                   Yes
    wK tasked:                   No
    OpenMP threads:               1
    Memory (MB):               3570
    Algorithm:                 Core
    Schwarz Cutoff:           1E-12
    Mask sparsity (%):       0.5949
    Fitting Condition:        1E-12

   => Auxiliary Basis Set <=

  Basis Set: (CC-PVDZ AUX)
    Blend: CC-PVDZ-JKFIT
    Number of shells: 150
    Number of basis function: 418
    Number of Cartesian functions: 474
    Spherical Harmonics?: true
    Max angular momentum: 3

  Minimum eigenvalue in the overlap matrix is 4.9827303862E-03.
  Using Symmetric Orthogonalization.

  SCF Guess: Superposition of Atomic Densities via on-the-fly atomic UHF.

  ==> Iterations <==

                           Total Energy        Delta E     RMS |[F,P]|

   @DF-RKS iter   0:  -231.05307280434158   -2.31053e+02   4.14051e-02 
   @DF-RKS iter   1:  -230.19163186561090    8.61441e-01   4.68338e-03 
   @DF-RKS iter   2:  -230.16477727973427    2.68546e-02   5.88014e-03 DIIS
   @DF-RKS iter   3:  -230.25596793474782   -9.11907e-02   6.76691e-04 DIIS
   @DF-RKS iter   4:  -230.25718477717461   -1.21684e-03   2.03239e-04 DIIS
   @DF-RKS iter   5:  -230.25732716803824   -1.42391e-04   4.94437e-05 DIIS
   @DF-RKS iter   6:  -230.25733584878611   -8.68075e-06   3.71349e-06 DIIS
   @DF-RKS iter   7:  -230.25733589420267   -4.54166e-08   7.04213e-07 DIIS

  ==> Post-Iterations <==

    Orbital Energies [Eh]
    ---------------------

    Doubly Occupied:                                                      

       1A    -19.131683     2A    -19.131666     3A    -10.226376  
       4A    -10.226178     5A     -1.018862     6A     -1.008604  
       7A     -0.732354     8A     -0.603654     9A     -0.525965  
      10A     -0.477154    11A     -0.476938    12A     -0.412258  
      13A     -0.395133    14A     -0.350277    15A     -0.319233  
      16A     -0.264140    17A     -0.263448  

    Virtual:                                                              

      18A      0.042623    19A      0.058773    20A      0.111555  
      21A      0.114326    22A      0.124435    23A      0.168954  
      24A      0.187404    25A      0.241909    26A      0.244170  
      27A      0.440902    28A      0.446858    29A      0.493247  
      30A      0.536466    31A      0.547719    32A      0.595155  
      33A      0.618123    34A      0.625898    35A      0.631381  
      36A      0.647065    37A      0.655908    38A      0.687278  
      39A      0.886850    40A      0.889236    41A      0.918438  
      42A      0.963238    43A      1.009747    44A      1.055660  
      45A      1.063701    46A      1.171027    47A      1.209165  
      48A      1.213041    49A      1.267637    50A      1.303511  
      51A      1.338893    52A      1.350278    53A      1.476731  
      54A      1.574602    55A      1.600961    56A      1.604238  
      57A      1.629000    58A      1.651357    59A      1.651907  
      60A      1.704014    61A      1.746928    62A      1.769669  
      63A      1.790998    64A      1.883881    65A      1.927928  
      66A      1.971051    67A      2.046732    68A      2.056525  
      69A      2.112174    70A      2.159398    71A      2.277893  
      72A      2.294549    73A      2.406937    74A      2.422801  
      75A      2.475139    76A      2.519836    77A      2.905581  
      78A      2.961844    79A      3.011344    80A      3.017805  
      81A      3.060986    82A      3.142705    83A      3.179345  
      84A      3.210401    85A      3.676740    86A      3.705788  

    Final Occupation by Irrep:
              A 
    DOCC [    17 ]

  Energy converged.

  @DF-RKS Final Energy:  -230.25733589420267

   => Energetics <=

    Nuclear Repulsion Energy =            129.4410640666719132
    One-Electron Energy =                -570.6361813931794131
    Two-Electron Energy =                 235.4809273660421240
    DFT Exchange-Correlation Energy =     -24.5387369137373064
    Empirical Dispersion Energy =          -0.0044090200000000
    VV10 Nonlocal Energy =                  0.0000000000000000
    Total Energy =                       -230.2573358942026687



Properties will be evaluated at   0.000000,   0.000000,   0.000000 [a0]

Properties computed using the SCF density matrix

  Nuclear Dipole Moment: [e a0]
     X:   184.7358      Y:   -22.5745      Z:    34.1114

  Electronic Dipole Moment: [e a0]
     X:  -184.7375      Y:    22.5736      Z:   -34.1120

  Dipole Moment: [e a0]
     X:    -0.0016      Y:    -0.0009      Z:    -0.0006     Total:     0.0020

  Dipole Moment: [D]
     X:    -0.0041      Y:    -0.0024      Z:    -0.0015     Total:     0.0050


*** tstop() called on loro.prib.upf.edu at Sat Sep 29 16:49:31 2018
Module time:
	user time   =      11.66 seconds =       0.19 minutes
	system time =       0.20 seconds =       0.00 minutes
	total time  =         13 seconds =       0.22 minutes
Total time:
	user time   =      11.66 seconds =       0.19 minutes
	system time =       0.20 seconds =       0.00 minutes
	total time  =         13 seconds =       0.22 minutes


Properties will be evaluated at   0.000000,   0.000000,   0.000000 [a0]
OEProp: No title given, name of density matrix used for the following properties is 'SCF density'
  Nuclear Dipole Moment: [e a0]
     X:   184.7358      Y:   -22.5745      Z:    34.1114

  Electronic Dipole Moment: [e a0]
     X:  -184.7375      Y:    22.5736      Z:   -34.1120

  Dipole Moment: [e a0]
     X:    -0.0016      Y:    -0.0009      Z:    -0.0006     Total:     0.0020

  Dipole Moment: [D]
     X:    -0.0041      Y:    -0.0024      Z:    -0.0015     Total:     0.0050

  Quadrupole Moment: [D A]
    XX:   -26.4998     YY:   -22.3010     ZZ:   -20.9282
    XY:    -3.8305     XZ:     4.6932     YZ:    -3.3925

  Traceless Quadrupole Moment: [D A]
    XX:    -3.2568     YY:     0.9420     ZZ:     2.3148
    XY:    -3.8305     XZ:     4.6932     YZ:    -3.3925

  Mulliken Charges: (a.u.)
   Center  Symbol    Alpha    Beta     Spin     Total
       1     O     4.14044  4.14044  0.00000 -0.28088
       2     C     2.93622  2.93622  0.00000  0.12756
       3     C     2.93638  2.93638  0.00000  0.12723
       4     O     4.14064  4.14064  0.00000 -0.28128
       5     H     0.42730  0.42730  0.00000  0.14541
       6     H     0.49797  0.49797  0.00000  0.00406
       7     H     0.49802  0.49802  0.00000  0.00396
       8     H     0.49790  0.49790  0.00000  0.00420
       9     H     0.49788  0.49788  0.00000  0.00423
      10     H     0.42725  0.42725  0.00000  0.14550

   Total alpha = 17.00000, Total beta = 17.00000, Total charge = -0.00000


    Psi4 stopped on: Saturday, 29 September 2018 04:49PM
    Psi4 wall time for execution: 0:00:13.67

*** Psi4 exiting successfully. Buy a developer a beer!
