
    -----------------------------------------------------------------------
          Psi4: An Open-Source Ab Initio Electronic Structure Package
                               Psi4 1.2.1 release

                         Git: Rev {HEAD} 406f4de 


    R. M. Parrish, L. A. Burns, D. G. A. Smith, A. C. Simmonett,
    A. E. DePrince III, E. G. Hohenstein, U. Bozkaya, A. Yu. Sokolov,
    R. Di Remigio, R. M. Richard, J. F. Gonthier, A. M. James,
    H. R. McAlexander, A. Kumar, M. Saitow, X. Wang, B. P. Pritchard,
    P. Verma, H. F. Schaefer III, K. Patkowski, R. A. King, E. F. Valeev,
    F. A. Evangelista, J. M. Turney, T. D. Crawford, and C. D. Sherrill,
    J. Chem. Theory Comput. 13(7) pp 3185--3197 (2017).
    (doi: 10.1021/acs.jctc.7b00174)


                         Additional Contributions by
    P. Kraus, H. Kruse, M. H. Lechner, M. C. Schieber, and R. A. Shaw

    -----------------------------------------------------------------------


    Psi4 started on: Saturday, 29 September 2018 08:28PM

    Process ID: 16323
    Host:       green.prib.upf.edu
    PSIDATADIR: /shared/joao/test_parameterize/miniconda3/share/psi4
    Memory:     500.0 MiB
    Threads:    1
    
  ==> Input File <==

--------------------------------------------------------------------------
set_num_threads(4)
set_memory('3000 MB')

set { scf_mem_safety_factor 0.7 }

set { reference rks }
set { basis 6-31G* }

molecule MOL {
    1 1
    noreorient
    nocom
    symmetry c1
    C   -0.000000  -0.000000  -0.177864
    C    0.036678   1.219374   0.524165
    C    0.031765   1.213120   1.915444
    C    0.000000   0.000000   2.610107
    C   -0.031765  -1.213120   1.915444
    C   -0.036678  -1.219375   0.524165
    C   -0.000000   0.000000  -1.644734
    H    0.018170   2.164705  -0.010854
    H    0.042402   2.152895   2.457886
    H    0.000000   0.000000   3.695756
    H   -0.042402  -2.152895   2.457886
    H   -0.018170  -2.164705  -0.010853
    N   -0.712590  -0.905950  -2.308461
    N    0.712590   0.905950  -2.308460
    H    0.673432   1.006470  -3.315997
    H    1.377190   1.485970  -1.813316
    H   -1.129402  -1.682207  -1.811494
    H   -0.920620  -0.825999  -3.296943
}

set optking { frozen_dihedral = (" 1 7 13 17 ") }

set optking { dynamic_level = 1 
 geom_maxiter = 250
 print_trajectory_xyz_file = True }

energy, wfn = optimize('B3LYP-D3', return_wfn=True)

import os
os.chdir(os.environ['HTMD_PSI4_WORKDIR'])

oeprop(wfn, 'DIPOLE', 'QUADRUPOLE', 'MULLIKEN_CHARGES')

with open('psi4out.xyz', 'w') as f:
    f.write('18 ' )
    f.write('%.12f\n' % energy)
    f.write(MOL.save_string_xyz())
--------------------------------------------------------------------------
  Threads set to 4 by Python driver.

  Memory set to   2.794 GiB by Python driver.
gradient() will perform analytic gradient computation.

*** tstart() called on green.prib.upf.edu
*** at Sat Sep 29 20:28:04 2018

   => Loading Basis Set <=

    Name: 6-31G*
    Role: ORBITAL
    Keyword: BASIS
    atoms 1-7         entry C          line   111 file /shared/joao/test_parameterize/miniconda3/share/psi4/basis/6-31gs.gbs 
    atoms 8-12, 15-18 entry H          line    44 file /shared/joao/test_parameterize/miniconda3/share/psi4/basis/6-31gs.gbs 
    atoms 13-14       entry N          line   128 file /shared/joao/test_parameterize/miniconda3/share/psi4/basis/6-31gs.gbs 


         ---------------------------------------------------------
                                   SCF
            by Justin Turney, Rob Parrish, Andy Simmonett
                             and Daniel Smith
                              RKS Reference
                        4 Threads,   2861 MiB Core
         ---------------------------------------------------------

  ==> Geometry <==

    Molecular point group: c1
    Full point group: C1

    Geometry (in Angstrom), charge = 1, multiplicity = 1:

       Center              X                  Y                   Z               Mass       
    ------------   -----------------  -----------------  -----------------  -----------------
         C            0.000000000000     0.000000000000    -0.177864000000    12.000000000000
         C            0.036678000000     1.219374000000     0.524165000000    12.000000000000
         C            0.031765000000     1.213120000000     1.915444000000    12.000000000000
         C            0.000000000000     0.000000000000     2.610107000000    12.000000000000
         C           -0.031765000000    -1.213120000000     1.915444000000    12.000000000000
         C           -0.036678000000    -1.219375000000     0.524165000000    12.000000000000
         C            0.000000000000     0.000000000000    -1.644734000000    12.000000000000
         H            0.018170000000     2.164705000000    -0.010854000000     1.007825032070
         H            0.042402000000     2.152895000000     2.457886000000     1.007825032070
         H            0.000000000000     0.000000000000     3.695756000000     1.007825032070
         H           -0.042402000000    -2.152895000000     2.457886000000     1.007825032070
         H           -0.018170000000    -2.164705000000    -0.010853000000     1.007825032070
         N           -0.712590000000    -0.905950000000    -2.308461000000    14.003074004780
         N            0.712590000000     0.905950000000    -2.308460000000    14.003074004780
         H            0.673432000000     1.006470000000    -3.315997000000     1.007825032070
         H            1.377190000000     1.485970000000    -1.813316000000     1.007825032070
         H           -1.129402000000    -1.682207000000    -1.811494000000     1.007825032070
         H           -0.920620000000    -0.825999000000    -3.296943000000     1.007825032070

  Running in c1 symmetry.

  Rotational constants: A =      0.12184  B =      0.03960  C =      0.03128 [cm^-1]
  Rotational constants: A =   3652.79872  B =   1187.25533  C =    937.87067 [MHz]
  Nuclear repulsion =  416.966869279282491

  Charge       = 1
  Multiplicity = 1
  Electrons    = 64
  Nalpha       = 32
  Nbeta        = 32

  ==> Algorithm <==

  SCF Algorithm Type is DF.
  DIIS enabled.
  MOM disabled.
  Fractional occupation disabled.
  Guess Type is SAD.
  Energy threshold   = 1.00e-08
  Density threshold  = 1.00e-08
  Integral threshold = 0.00e+00

  ==> Primary Basis <==

  Basis Set: 6-31G*
    Blend: 6-31G*
    Number of shells: 72
    Number of basis function: 153
    Number of Cartesian functions: 153
    Spherical Harmonics?: false
    Max angular momentum: 2

  ==> DFT Potential <==

   => Composite Functional: B3LYP-D3ZERO <= 

    B3LYP-d3zero Hyb-GGA Exchange-Correlation Functional

    P. J. Stephens, F. J. Devlin, C. F. Chabalowski, and M. J. Frisch, J. Phys. Chem. 98, 11623 (1994)

    Deriv               =              1
    GGA                 =           TRUE
    Meta                =          FALSE

    Exchange Hybrid     =           TRUE
    MP2 Hybrid          =          FALSE

   => Exchange Functionals <=

    0.0800   Slater exchange
    0.7200         Becke 88

   => Exact (HF) Exchange <=

    0.2000               HF 

   => Correlation Functionals <=

    0.1900   Vosko, Wilk & Nusair (VWN5_RPA)
    0.8100   Lee, Yang & Parr

   => Molecular Quadrature <=

    Radial Scheme       =       TREUTLER
    Pruning Scheme      =           FLAT
    Nuclear Scheme      =       TREUTLER

    BS radius alpha     =              1
    Pruning alpha       =              1
    Radial Points       =             75
    Spherical Points    =            302
    Total Points        =         396897
    Total Blocks        =           3013
    Max Points          =            256
    Max Functions       =            149

   => -D3ZERO: Empirical Dispersion <=

    Grimme's -D3 (zero-damping) Dispersion Correction
    Grimme S.; Antony J.; Ehrlich S.; Krieg H. (2010), J. Chem. Phys., 132: 154104

        S6 =   1.000000E+00
        S8 =   1.703000E+00
       SR6 =   1.261000E+00
       SR8 =   1.000000E+00
    ALPHA6 =   1.400000E+01

   => Loading Basis Set <=

    Name: (6-31G* AUX)
    Role: JKFIT
    Keyword: DF_BASIS_SCF
    atoms 1-7         entry C          line   121 file /shared/joao/test_parameterize/miniconda3/share/psi4/basis/cc-pvdz-jkfit.gbs 
    atoms 8-12, 15-18 entry H          line    51 file /shared/joao/test_parameterize/miniconda3/share/psi4/basis/cc-pvdz-jkfit.gbs 
    atoms 13-14       entry N          line   171 file /shared/joao/test_parameterize/miniconda3/share/psi4/basis/cc-pvdz-jkfit.gbs 

  ==> Pre-Iterations <==

   -------------------------------------------------------
    Irrep   Nso     Nmo     Nalpha   Nbeta   Ndocc  Nsocc
   -------------------------------------------------------
     A        153     153       0       0       0       0
   -------------------------------------------------------
    Total     153     153      32      32      32       0
   -------------------------------------------------------

  ==> Integral Setup <==

  ==> DiskDFJK: Density-Fitted J/K Matrices <==

    J tasked:                  Yes
    K tasked:                  Yes
    wK tasked:                  No
    OpenMP threads:              4
    Integrals threads:           4
    Memory (MB):              2002
    Algorithm:                Core
    Integral Cache:           NONE
    Schwarz Cutoff:          1E-12
    Fitting Condition:       1E-12

   => Auxiliary Basis Set <=

  Basis Set: (6-31G* AUX)
    Blend: CC-PVDZ-JKFIT
    Number of shells: 297
    Number of basis function: 954
    Number of Cartesian functions: 954
    Spherical Harmonics?: false
    Max angular momentum: 3

  Minimum eigenvalue in the overlap matrix is 4.8685757366E-04.
  Using Symmetric Orthogonalization.

  SCF Guess: Superposition of Atomic Densities via on-the-fly atomic UHF.

  ==> Iterations <==

                           Total Energy        Delta E     RMS |[F,P]|

   @DF-RKS iter   0:  -379.62379905415673   -3.79624e+02   6.73488e-02 
   @DF-RKS iter   1:  -381.04050455205208   -1.41671e+00   1.17714e-02 
   @DF-RKS iter   2:  -380.96142057970911    7.90840e-02   1.30477e-02 DIIS
   @DF-RKS iter   3:  -381.45918576894803   -4.97765e-01   1.60011e-03 DIIS
   @DF-RKS iter   4:  -381.46449359023057   -5.30782e-03   7.83551e-04 DIIS
   @DF-RKS iter   5:  -381.46600831256808   -1.51472e-03   2.36521e-04 DIIS
   @DF-RKS iter   6:  -381.46614237478161   -1.34062e-04   7.97812e-05 DIIS
   @DF-RKS iter   7:  -381.46615963827907   -1.72635e-05   1.43514e-05 DIIS
   @DF-RKS iter   8:  -381.46616012532508   -4.87046e-07   6.63556e-06 DIIS
   @DF-RKS iter   9:  -381.46616026337648   -1.38051e-07   2.00043e-06 DIIS
   @DF-RKS iter  10:  -381.46616027572202   -1.23455e-08   6.27874e-07 DIIS
   @DF-RKS iter  11:  -381.46616027686321   -1.14119e-09   7.69990e-08 DIIS
   @DF-RKS iter  12:  -381.46616027687088   -7.67386e-12   5.69036e-08 DIIS
   @DF-RKS iter  13:  -381.46616027688094   -1.00613e-11   1.90357e-08 DIIS
   @DF-RKS iter  14:  -381.46616027688231   -1.36424e-12   5.51714e-09 DIIS

  ==> Post-Iterations <==

    Orbital Energies [Eh]
    ---------------------

    Doubly Occupied:                                                      

       1A    -14.568728     2A    -14.566776     3A    -10.498634  
       4A    -10.374220     5A    -10.357264     6A    -10.356508  
       7A    -10.342540     8A    -10.340980     9A    -10.340527  
      10A     -1.184293    11A     -1.092405    12A     -1.014676  
      13A     -0.926976    14A     -0.902809    15A     -0.845985  
      16A     -0.786274    17A     -0.774711    18A     -0.741183  
      19A     -0.734040    20A     -0.687410    21A     -0.670081  
      22A     -0.629070    23A     -0.616125    24A     -0.590363  
      25A     -0.578155    26A     -0.574417    27A     -0.517525  
      28A     -0.506562    29A     -0.498729    30A     -0.470952  
      31A     -0.410399    32A     -0.405990  

    Virtual:                                                              

      33A     -0.217318    34A     -0.157696    35A     -0.133916  
      36A     -0.109535    37A     -0.069829    38A     -0.059430  
      39A     -0.039621    40A     -0.034827    41A      0.006867  
      42A      0.019972    43A      0.025367    44A      0.059586  
      45A      0.063897    46A      0.083361    47A      0.124127  
      48A      0.148670    49A      0.156902    50A      0.162382  
      51A      0.204071    52A      0.241658    53A      0.299189  
      54A      0.348568    55A      0.354286    56A      0.379946  
      57A      0.387816    58A      0.397183    59A      0.421568  
      60A      0.422430    61A      0.441553    62A      0.450057  
      63A      0.452490    64A      0.469829    65A      0.471227  
      66A      0.474930    67A      0.485571    68A      0.505556  
      69A      0.520140    70A      0.536286    71A      0.541922  
      72A      0.589988    73A      0.607999    74A      0.652726  
      75A      0.660085    76A      0.680304    77A      0.688604  
      78A      0.704901    79A      0.716968    80A      0.721410  
      81A      0.754707    82A      0.774779    83A      0.777333  
      84A      0.804900    85A      0.814178    86A      0.842464  
      87A      0.848528    88A      0.935000    89A      0.960728  
      90A      0.992323    91A      1.001419    92A      1.022833  
      93A      1.036499    94A      1.070703    95A      1.142730  
      96A      1.173407    97A      1.247626    98A      1.272077  
      99A      1.280960   100A      1.311102   101A      1.313096  
     102A      1.343431   103A      1.357758   104A      1.361844  
     105A      1.421541   106A      1.450720   107A      1.510877  
     108A      1.599285   109A      1.618599   110A      1.651361  
     111A      1.677188   112A      1.736062   113A      1.754381  
     114A      1.794104   115A      1.825324   116A      1.850376  
     117A      1.896518   118A      1.920483   119A      1.955249  
     120A      1.978522   121A      1.996394   122A      2.019398  
     123A      2.032828   124A      2.089651   125A      2.108116  
     126A      2.129501   127A      2.150565   128A      2.198018  
     129A      2.221342   130A      2.277301   131A      2.341587  
     132A      2.371289   133A      2.446259   134A      2.452603  
     135A      2.489063   136A      2.517290   137A      2.546106  
     138A      2.588566   139A      2.604147   140A      2.629058  
     141A      2.737058   142A      2.885332   143A      2.984956  
     144A      3.258547   145A      3.634790   146A      3.662566  
     147A      3.913272   148A      3.948203   149A      3.963092  
     150A      4.053703   151A      4.172998   152A      4.256822  
     153A      4.545806  

    Final Occupation by Irrep:
              A 
    DOCC [    32 ]

  Energy converged.

  @DF-RKS Final Energy:  -381.46616027688231

   => Energetics <=

    Nuclear Repulsion Energy =            416.9668692792824913
    One-Electron Energy =               -1329.1073407200228758
    Two-Electron Energy =                 575.0926152288127469
    DFT Exchange-Correlation Energy =     -44.4064446149546939
    Empirical Dispersion Energy =          -0.0118594500000000
    VV10 Nonlocal Energy =                  0.0000000000000000
    Total Energy =                       -381.4661602768823059



Properties will be evaluated at   0.000000,   0.000000,   0.000000 [a0]

Properties computed using the SCF density matrix

  Nuclear Dipole Moment: [e a0]
     X:     0.0011      Y:    -0.0298      Z:     0.0642

  Electronic Dipole Moment: [e a0]
     X:    -0.0012      Y:     0.0483      Z:    -2.3219

  Dipole Moment: [e a0]
     X:    -0.0001      Y:     0.0185      Z:    -2.2577     Total:     2.2578

  Dipole Moment: [D]
     X:    -0.0002      Y:     0.0471      Z:    -5.7386     Total:     5.7388


*** tstop() called on green.prib.upf.edu at Sat Sep 29 20:28:32 2018
Module time:
	user time   =     101.71 seconds =       1.70 minutes
	system time =       0.46 seconds =       0.01 minutes
	total time  =         28 seconds =       0.47 minutes
Total time:
	user time   =     101.71 seconds =       1.70 minutes
	system time =       0.46 seconds =       0.01 minutes
	total time  =         28 seconds =       0.47 minutes

*** tstart() called on green.prib.upf.edu
*** at Sat Sep 29 20:28:32 2018


         ------------------------------------------------------------
                                   SCF GRAD                          
                          Rob Parrish, Justin Turney,                
                       Andy Simmonett, and Alex Sokolov              
         ------------------------------------------------------------

  ==> Geometry <==

    Molecular point group: c1
    Full point group: C1

    Geometry (in Angstrom), charge = 1, multiplicity = 1:

       Center              X                  Y                   Z               Mass       
    ------------   -----------------  -----------------  -----------------  -----------------
         C            0.000000000000     0.000000000000    -0.177864000000    12.000000000000
         C            0.036678000000     1.219374000000     0.524165000000    12.000000000000
         C            0.031765000000     1.213120000000     1.915444000000    12.000000000000
         C            0.000000000000     0.000000000000     2.610107000000    12.000000000000
         C           -0.031765000000    -1.213120000000     1.915444000000    12.000000000000
         C           -0.036678000000    -1.219375000000     0.524165000000    12.000000000000
         C            0.000000000000     0.000000000000    -1.644734000000    12.000000000000
         H            0.018170000000     2.164705000000    -0.010854000000     1.007825032070
         H            0.042402000000     2.152895000000     2.457886000000     1.007825032070
         H            0.000000000000     0.000000000000     3.695756000000     1.007825032070
         H           -0.042402000000    -2.152895000000     2.457886000000     1.007825032070
         H           -0.018170000000    -2.164705000000    -0.010853000000     1.007825032070
         N           -0.712590000000    -0.905950000000    -2.308461000000    14.003074004780
         N            0.712590000000     0.905950000000    -2.308460000000    14.003074004780
         H            0.673432000000     1.006470000000    -3.315997000000     1.007825032070
         H            1.377190000000     1.485970000000    -1.813316000000     1.007825032070
         H           -1.129402000000    -1.682207000000    -1.811494000000     1.007825032070
         H           -0.920620000000    -0.825999000000    -3.296943000000     1.007825032070

  Nuclear repulsion =  416.966869279282491

  ==> Basis Set <==

  Basis Set: 6-31G*
    Blend: 6-31G*
    Number of shells: 72
    Number of basis function: 153
    Number of Cartesian functions: 153
    Spherical Harmonics?: false
    Max angular momentum: 2

  ==> DFJKGrad: Density-Fitted SCF Gradients <==

    Gradient:                    1
    J tasked:                  Yes
    K tasked:                  Yes
    wK tasked:                  No
    OpenMP threads:              4
    Integrals threads:           4
    Memory (MB):              2002
    Schwarz Cutoff:          0E+00
    Fitting Condition:       1E-12

   => Auxiliary Basis Set <=

  Basis Set: (6-31G* AUX)
    Blend: CC-PVDZ-JKFIT
    Number of shells: 297
    Number of basis function: 954
    Number of Cartesian functions: 954
    Spherical Harmonics?: false
    Max angular momentum: 3

  ==> DFT Potential <==

   => Composite Functional: B3LYP-D3ZERO <= 

    B3LYP-d3zero Hyb-GGA Exchange-Correlation Functional

    P. J. Stephens, F. J. Devlin, C. F. Chabalowski, and M. J. Frisch, J. Phys. Chem. 98, 11623 (1994)

    Deriv               =              1
    GGA                 =           TRUE
    Meta                =          FALSE

    Exchange Hybrid     =           TRUE
    MP2 Hybrid          =          FALSE

   => Exchange Functionals <=

    0.0800   Slater exchange
    0.7200         Becke 88

   => Exact (HF) Exchange <=

    0.2000               HF 

   => Correlation Functionals <=

    0.1900   Vosko, Wilk & Nusair (VWN5_RPA)
    0.8100   Lee, Yang & Parr

   => Molecular Quadrature <=

    Radial Scheme       =       TREUTLER
    Pruning Scheme      =           FLAT
    Nuclear Scheme      =       TREUTLER

    BS radius alpha     =              1
    Pruning alpha       =              1
    Radial Points       =             75
    Spherical Points    =            302
    Total Points        =         396897
    Total Blocks        =           3013
    Max Points          =            256
    Max Functions       =            149


  -Total Gradient:
     Atom            X                  Y                   Z
    ------   -----------------  -----------------  -----------------
       1       -0.004746003589     0.003598286071    -0.001979478071
       2       -0.000536843714     0.000303950362     0.001456824098
       3        0.000505038525     0.000879882780    -0.000660917459
       4       -0.000114728933    -0.000573208468     0.000041047972
       5        0.000126430427     0.000559204300     0.000372849863
       6       -0.000045513564    -0.001921750218    -0.000779818540
       7       -0.002554082686     0.000656912057     0.001593716126
       8       -0.000184473987     0.000042214425    -0.000057415052
       9        0.000057586399    -0.000026774463     0.000070728148
      10       -0.000030317763     0.000044838687     0.000039711751
      11        0.000036411509    -0.000010501032    -0.000032203765
      12       -0.000420384037     0.000842940500    -0.000826126501
      13        0.001748700264    -0.000154312446     0.000927704547
      14        0.004109263995    -0.002824035792    -0.000682548374
      15       -0.001128459430     0.000861674389     0.000130060138
      16        0.001976810660    -0.001703000811    -0.000310367209
      17        0.006462057322    -0.004288485520    -0.000439899954
      18       -0.005262665803     0.003711361290     0.001126806852


*** tstop() called on green.prib.upf.edu at Sat Sep 29 20:28:38 2018
Module time:
	user time   =      26.12 seconds =       0.44 minutes
	system time =       0.21 seconds =       0.00 minutes
	total time  =          6 seconds =       0.10 minutes
Total time:
	user time   =     127.88 seconds =       2.13 minutes
	system time =       0.68 seconds =       0.01 minutes
	total time  =         34 seconds =       0.57 minutes

			-----------------------------------------
			 OPTKING 2.0: for geometry optimizations 
			  - R.A. King,  Bethel University        
			-----------------------------------------
	At level 1: Red. Int., RFO, no backsteps, dynamic trust

	Internal coordinates to be generated automatically.
	Detected frag 1 with atoms:  1 2 3 4 5 6 7 8 9 10 11 12 13 14 15 16 17 18
	---Fragment 1 Bond Connectivity---
	 1 : 2 6 7
	 2 : 1 3 8
	 3 : 2 4 9
	 4 : 3 5 10
	 5 : 4 6 11
	 6 : 1 5 12
	 7 : 1 13 14
	 8 : 2
	 9 : 3
	 10 : 4
	 11 : 5
	 12 : 6
	 13 : 7 17 18
	 14 : 7 15 16
	 15 : 14
	 16 : 14
	 17 : 13
	 18 : 13

	Assuming in current code that numbering for constraints corresponds to unified fragment.
	Frozen dihedral atom list: 
	     1     7    13    17
	---Fragment 1 Geometry and Gradient---
	 C           0.0000000000        0.0000000000       -0.3361142489
	 C           0.0693113751        2.3042829136        0.9905282984
	 C           0.0600271506        2.2924645663        3.6196645829
	 C           0.0000000000        0.0000000000        4.9323874075
	 C          -0.0600271506       -2.2924645663        3.6196645829
	 C          -0.0693113751       -2.3042848033        0.9905282984
	 C           0.0000000000        0.0000000000       -3.1080968214
	 H           0.0343363238        4.0906996085       -0.0205110874
	 H           0.0801281675        4.0683819429        4.6447314059
	 H           0.0000000000        0.0000000000        6.9839666940
	 H          -0.0801281675       -4.0683819429        4.6447314059
	 H          -0.0343363238       -4.0906996085       -0.0205091977
	 N          -1.3465999450       -1.7119973901       -4.3623590784
	 N           1.3465999450        1.7119973901       -4.3623571887
	 H           1.2726020491        1.9019526610       -6.2663261875
	 H           2.6025119329        2.8080763417       -3.4266706324
	 H          -2.1342604739       -3.1789105288       -3.4232275514
	 H          -1.7397196725       -1.5609118960       -6.2303193457
	            -0.0047460036        0.0035982861       -0.0019794781
	            -0.0005368437        0.0003039504        0.0014568241
	             0.0005050385        0.0008798828       -0.0006609175
	            -0.0001147289       -0.0005732085        0.0000410480
	             0.0001264304        0.0005592043        0.0003728499
	            -0.0000455136       -0.0019217502       -0.0007798185
	            -0.0025540827        0.0006569121        0.0015937161
	            -0.0001844740        0.0000422144       -0.0000574151
	             0.0000575864       -0.0000267745        0.0000707281
	            -0.0000303178        0.0000448387        0.0000397118
	             0.0000364115       -0.0000105010       -0.0000322038
	            -0.0004203840        0.0008429405       -0.0008261265
	             0.0017487003       -0.0001543124        0.0009277045
	             0.0041092640       -0.0028240358       -0.0006825484
	            -0.0011284594        0.0008616744        0.0001300601
	             0.0019768107       -0.0017030008       -0.0003103672
	             0.0064620573       -0.0042884855       -0.0004399000
	            -0.0052626658        0.0037113613        0.0011268069

	Previous optimization step data not found.  Starting new optimization.

	---Fragment 1 Intrafragment Coordinates---
	 - Coordinate -           - BOHR/RAD -       - ANG/DEG -
	 R(1,2)           =         2.659794	       1.407502
	 R(1,6)           =         2.659796	       1.407503
	 R(1,7)           =         2.771983	       1.466870
	 R(2,3)           =         2.629179	       1.391302
	 R(2,8)           =         2.052976	       1.086388
	 R(3,4)           =         2.642393	       1.398294
	 R(3,9)           =         2.050622	       1.085142
	 R(4,5)           =         2.642393	       1.398294
	 R(4,10)          =         2.051579	       1.085649
	 R(5,6)           =         2.629179	       1.391302
	 R(5,11)          =         2.050622	       1.085142
	 R(6,12)          =         2.052973	       1.086386
	 R(7,13)          =         2.513452	       1.330061
	 R(7,14)          =         2.513451	       1.330061
	 R(13,17)         =         1.911599	       1.011575
	 R(13,18)         =         1.914849	       1.013294
	 R(14,15)         =         1.914852	       1.013296
	 R(14,16)         =         1.911600	       1.011575
	 B(1,2,3)         =         2.088380	     119.655376
	 B(1,2,8)         =         2.103396	     120.515689
	 B(1,6,5)         =         2.088379	     119.655315
	 B(1,6,12)        =         2.103396	     120.515729
	 B(1,7,13)        =         2.093264	     119.935172
	 B(1,7,14)        =         2.093263	     119.935135
	 B(2,1,6)         =         2.097220	     120.161857
	 B(2,1,7)         =         2.092983	     119.919082
	 B(2,3,4)         =         2.095279	     120.050636
	 B(2,3,9)         =         2.089719	     119.732108
	 B(3,2,8)         =         2.090149	     119.756722
	 B(3,4,5)         =         2.101793	     120.423859
	 B(3,4,10)        =         2.090696	     119.788070
	 B(4,3,9)         =         2.098135	     120.214297
	 B(4,5,6)         =         2.095280	     120.050677
	 B(4,5,11)        =         2.098135	     120.214297
	 B(5,4,10)        =         2.090696	     119.788070
	 B(5,6,12)        =         2.090149	     119.756743
	 B(6,1,7)         =         2.092982	     119.919061
	 B(6,5,11)        =         2.089719	     119.732067
	 B(7,13,17)       =         2.092412	     119.886350
	 B(7,13,18)       =         2.144860	     122.891431
	 B(7,14,15)       =         2.144860	     122.891405
	 B(7,14,16)       =         2.092412	     119.886393
	 B(13,7,14)       =         2.096659	     120.129694
	 B(15,14,16)      =         2.043399	     117.078146
	 B(17,13,18)      =         2.043399	     117.078158
	 D(1,2,3,4)       =         0.007799	       0.446825
	 D(1,2,3,9)       =        -3.122896	    -178.928735
	 D(1,6,5,4)       =         0.007799	       0.446822
	 D(1,6,5,11)      =        -3.122896	    -178.928737
	*D(1,7,13,17)     =        -0.174533	     -10.000016
	 D(1,7,13,18)     =         2.888642	     165.507009
	 D(1,7,14,15)     =        -3.032165	    -173.730230
	 D(1,7,14,16)     =         0.187844	      10.762681
	 D(2,1,6,5)       =        -0.003906	      -0.223802
	 D(2,1,6,12)      =        -3.091437	    -177.126283
	 D(2,1,7,13)      =        -2.505167	    -143.535494
	 D(2,1,7,14)      =         0.636426	      36.464506
	 D(2,3,4,5)       =        -0.003942	      -0.225875
	 D(2,3,4,10)      =         3.137650	     179.774125
	 D(3,2,1,6)       =        -0.003906	      -0.223806
	 D(3,2,1,7)       =         3.137687	     179.776196
	 D(3,4,5,6)       =        -0.003942	      -0.225874
	 D(3,4,5,11)      =         3.126699	     179.146646
	 D(4,3,2,8)       =         3.095744	     177.373058
	 D(4,5,6,12)      =         3.095744	     177.373055
	 D(5,4,3,9)       =         3.126699	     179.146646
	 D(5,6,1,7)       =         3.137687	     179.776197
	 D(6,1,2,8)       =        -3.091437	    -177.126287
	 D(6,1,7,13)      =         0.636426	      36.464508
	 D(6,1,7,14)      =        -2.505167	    -143.535492
	 D(6,5,4,10)      =         3.137650	     179.774126
	 D(7,1,2,8)       =         0.050156	       2.873714
	 D(7,1,6,12)      =         0.050156	       2.873716
	 D(8,2,3,9)       =        -0.034950	      -2.002503
	 D(9,3,4,10)      =        -0.014894	      -0.853354
	 D(10,4,5,11)     =        -0.014894	      -0.853354
	 D(11,5,6,12)     =        -0.034950	      -2.002504
	 D(13,7,14,15)    =         0.109428	       6.269770
	 D(13,7,14,16)    =        -2.953748	    -169.237319
	 D(14,7,13,17)    =         2.967059	     169.999984
	 D(14,7,13,18)    =        -0.252950	     -14.492991

	Current energy   :      -381.4661602769

	Generating empirical Hessian (Schlegel '84) for each fragment.
	Taking RFO optimization step.
	Going to follow RFO solution 1.
	Using RFO vector 1.
	Norm of target step-size    0.40532
	Projected energy change by RFO approximation:        -0.0051134731

	Back-transformation to cartesian coordinates...
	Could not converge backtransformation.
	Using first guess instead.

	Back-transformation to cartesian coordinates to adjust frozen coordinates...
	Successfully converged to displaced geometry.

	--- Internal Coordinate Step in ANG or DEG, aJ/ANG or AJ/DEG ---
	 ---------------------------------------------------------------------------
	   Coordinate                Previous        Force       Change         New 
	   ----------                --------       ------       ------       ------
	    1 R(1,2)          =      1.407502    -0.006672    -0.000873     1.406629
	    2 R(1,6)          =      1.407503     0.003027     0.000565     1.408068
	    3 R(1,7)          =      1.466870     0.019354     0.003407     1.470277
	    4 R(2,3)          =      1.391302     0.004224     0.000822     1.392124
	    5 R(2,8)          =      1.086388    -0.000559     0.000005     1.086393
	    6 R(3,4)          =      1.398294    -0.005831    -0.000670     1.397624
	    7 R(3,9)          =      1.085142    -0.000106     0.000084     1.085226
	    8 R(4,5)          =      1.398294    -0.001719    -0.000120     1.398174
	    9 R(4,10)         =      1.085649    -0.000331     0.000092     1.085741
	   10 R(5,6)          =      1.391302    -0.002876    -0.000219     1.391083
	   11 R(5,11)         =      1.085142     0.000058     0.000092     1.085235
	   12 R(6,12)         =      1.086386     0.002751     0.000761     1.087148
	   13 R(7,13)         =      1.330061     0.015561     0.004479     1.334540
	   14 R(7,14)         =      1.330061    -0.004863     0.000603     1.330664
	   15 R(13,17)        =      1.011575    -0.003393     0.002025     1.013600
	   16 R(13,18)        =      1.013294    -0.002255     0.007910     1.021205
	   17 R(14,15)        =      1.013296     0.000008     0.000115     1.013410
	   18 R(14,16)        =      1.011575    -0.001411     0.001936     1.013511
	   19 B(1,2,3)        =    119.655376     0.000012     0.030095   119.685471
	   20 B(1,2,8)        =    120.515689    -0.000004    -0.015774   120.499915
	   21 B(1,6,5)        =    119.655315     0.000041     0.131546   119.786861
	   22 B(1,6,12)       =    120.515729     0.000067     0.328691   120.844421
	   23 B(1,7,13)       =    119.935172     0.000183     0.463372   120.398544
	   24 B(1,7,14)       =    119.935135    -0.000170    -0.532962   119.402173
	   25 B(2,1,6)        =    120.161857    -0.000050    -0.148429   120.013428
	   26 B(2,1,7)        =    119.919082    -0.000180    -0.532900   119.386181
	   27 B(2,3,4)        =    120.050636     0.000023     0.077652   120.128288
	   28 B(2,3,9)        =    119.732108    -0.000017    -0.062388   119.669719
	   29 B(3,2,8)        =    119.756722    -0.000009    -0.036628   119.720094
	   30 B(3,4,5)        =    120.423859    -0.000021    -0.079161   120.344699
	   31 B(3,4,10)       =    119.788070     0.000014     0.055247   119.843317
	   32 B(4,3,9)        =    120.214297    -0.000006    -0.013702   120.200594
	   33 B(4,5,6)        =    120.050677    -0.000005    -0.018493   120.032184
	   34 B(4,5,11)       =    120.214297    -0.000000    -0.004456   120.209841
	   35 B(5,4,10)       =    119.788070     0.000007     0.023835   119.811905
	   36 B(5,6,12)       =    119.756743    -0.000108    -0.467755   119.288987
	   37 B(6,1,7)        =    119.919061     0.000230     0.681282   120.600344
	   38 B(6,5,11)       =    119.732067     0.000005     0.023040   119.755107
	   39 B(7,13,17)      =    119.886350     0.000041     0.476996   120.363346
	   40 B(7,13,18)      =    122.891431     0.000026    -0.597366   122.294065
	   41 B(7,14,15)      =    122.891405     0.000009     0.089701   122.981106
	   42 B(7,14,16)      =    119.886393     0.000000     0.123947   120.010340
	   43 B(13,7,14)      =    120.129694    -0.000013    -0.304306   119.825387
	   44 B(15,14,16)     =    117.078146    -0.000005    -0.102219   116.975926
	   45 B(17,13,18)     =    117.078158    -0.000047     0.155354   117.233512
	   46 D(1,2,3,4)      =      0.446825     0.000004     0.581849     1.028674
	   47 D(1,2,3,9)      =   -178.928735     0.000003     0.386665  -178.542070
	   48 D(1,6,5,4)      =      0.446822    -0.000001    -0.080806     0.366016
	   49 D(1,6,5,11)     =   -178.928737    -0.000001    -0.090509  -179.019247
	   50 *D(1,7,13,17)   =    -10.000016     0.000000    -0.000000   -10.000016
	   51 D(1,7,13,18)    =    165.507009     0.000069     8.396273   173.903282
	   52 D(1,7,14,15)    =   -173.730230     0.000003     0.856252  -172.873977
	   53 D(1,7,14,16)    =     10.762681    -0.000015    -1.494900     9.267781
	   54 D(2,1,6,5)      =     -0.223802     0.000004     0.557075     0.333273
	   55 D(2,1,6,12)     =   -177.126283     0.000005     0.729555  -176.396728
	   56 D(2,1,7,13)     =   -143.535494     0.000026     4.260831  -139.274663
	   57 D(2,1,7,14)     =     36.464506    -0.000020    -2.770190    33.694316
	   58 D(2,3,4,5)      =     -0.225875    -0.000001    -0.106888    -0.332763
	   59 D(2,3,4,10)     =    179.774125    -0.000001    -0.209032   179.565093
	   60 D(3,2,1,6)      =     -0.223806    -0.000005    -0.806852    -1.030658
	   61 D(3,2,1,7)      =    179.776196    -0.000006    -0.885341   178.890854
	   62 D(3,4,5,6)      =     -0.225874    -0.000001    -0.145391    -0.371265
	   63 D(3,4,5,11)     =    179.146646    -0.000001    -0.135470   179.011176
	   64 D(4,3,2,8)      =    177.373058     0.000001     0.138892   177.511950
	   65 D(4,5,6,12)     =    177.373055    -0.000001    -0.225991   177.147065
	   66 D(5,4,3,9)      =    179.146646     0.000000     0.089038   179.235684
	   67 D(5,6,1,7)      =    179.776197     0.000004     0.636530   180.412727
	   68 D(6,1,2,8)      =   -177.126287    -0.000002    -0.359743  -177.486030
	   69 D(6,1,7,13)     =     36.464508     0.000026     4.181870    40.646378
	   70 D(6,1,7,14)     =   -143.535492    -0.000021    -2.849151  -146.384643
	   71 D(6,5,4,10)     =    179.774126    -0.000000    -0.043279   179.730847
	   72 D(7,1,2,8)      =      2.873714    -0.000003    -0.438233     2.435482
	   73 D(7,1,6,12)     =      2.873716     0.000006     0.809010     3.682726
	   74 D(8,2,3,9)      =     -2.002503    -0.000000    -0.056291    -2.058794
	   75 D(9,3,4,10)     =     -0.853354    -0.000000    -0.013107    -0.866460
	   76 D(10,4,5,11)    =     -0.853354    -0.000000    -0.033358    -0.886712
	   77 D(11,5,6,12)    =     -2.002504    -0.000001    -0.235694    -2.238198
	   78 D(13,7,14,15)   =      6.269770    -0.000043    -6.133892     0.135879
	   79 D(13,7,14,16)   =   -169.237319    -0.000061    -8.485043  -177.722362
	   80 D(14,7,13,17)   =    169.999984     0.000046     7.060753   177.060737
	   81 D(14,7,13,18)   =    -14.492991     0.000115    15.457026     0.964034
	 ---------------------------------------------------------------------------
	Successfully symmetrized geometry.

  ==> Convergence Check <==

  Measures of convergence in internal coordinates in au.
  Criteria marked as inactive (o), active & met (*), and active & unmet ( ).
  --------------------------------------------------------------------------------------------- ~
   Step     Total Energy     Delta E     MAX Force     RMS Force      MAX Disp      RMS Disp    ~
  --------------------------------------------------------------------------------------------- ~
    Convergence Criteria    1.00e-06 *    3.00e-04 *             o    1.20e-03 *             o  ~
  --------------------------------------------------------------------------------------------- ~
      1    -381.46616028   -3.81e+02      6.59e-03      1.29e-03 o    2.70e-01      4.47e-02 o  ~
  ---------------------------------------------------------------------------------------------

	Writing optimization data to binary file.
	Structure for next step:
	Cartesian Geometry (in Angstrom)
	    C     0.0243970389  -0.0281725185  -0.1759641503
	    C     0.0614868510   1.1977856427   0.5126991726
	    C     0.0359452998   1.2077415552   1.9045528754
	    C    -0.0045696115   0.0042919026   2.6140740411
	    C    -0.0267538271  -1.2167047797   1.9332170826
	    C    -0.0163340865  -1.2385559847   0.5423452160
	    C     0.0269034137  -0.0301220532  -1.6462379556
	    H     0.0519844504   2.1371941955  -0.0328929166
	    H     0.0405914444   2.1543951568   2.4351573332
	    H    -0.0172206950   0.0172788215   3.6996639324
	    H    -0.0420280035  -2.1502139682   2.4864453984
	    H     0.0133727572  -2.1946115416   0.0256585548
	    N    -0.7498149569  -0.8794843481  -2.3217306263
	    N     0.7009339610   0.9129843554  -2.2996126620
	    H     0.6553689462   1.0270019423  -3.3055572737
	    H     1.3183479300   1.5374805280  -1.7936390849
	    H    -1.2318528491  -1.6284610156  -1.8379354771
	    H    -0.8401580633  -0.8455948904  -3.3383664599
			--------------------------
			 OPTKING Finished Execution 
			--------------------------

    Structure for next step:
    Molecular point group: c1
    Full point group: C1

    Geometry (in Angstrom), charge = 1, multiplicity = 1:

    C            0.024397038940    -0.028172518493    -0.175964150301
    C            0.061486851046     1.197785642694     0.512699172552
    C            0.035945299798     1.207741555229     1.904552875412
    C           -0.004569611457     0.004291902602     2.614074041066
    C           -0.026753827079    -1.216704779698     1.933217082617
    C           -0.016334086512    -1.238555984743     0.542345215962
    C            0.026903413746    -0.030122053230    -1.646237955631
    H            0.051984450445     2.137194195515    -0.032892916612
    H            0.040591444433     2.154395156825     2.435157333199
    H           -0.017220694984     0.017278821485     3.699663932393
    H           -0.042028003470    -2.150213968246     2.486445398420
    H            0.013372757170    -2.194611541566     0.025658554796
    N           -0.749814956874    -0.879484348137    -2.321730626323
    N            0.700933961035     0.912984355441    -2.299612661986
    H            0.655368946160     1.027001942343    -3.305557273668
    H            1.318347930001     1.537480527983    -1.793639084917
    H           -1.231852849128    -1.628461015599    -1.837935477118
    H           -0.840158063271    -0.845594890405    -3.338366459859

gradient() will perform analytic gradient computation.

*** tstart() called on green.prib.upf.edu
*** at Sat Sep 29 20:28:39 2018

   => Loading Basis Set <=

    Name: 6-31G*
    Role: ORBITAL
    Keyword: BASIS
    atoms 1-7         entry C          line   111 file /shared/joao/test_parameterize/miniconda3/share/psi4/basis/6-31gs.gbs 
    atoms 8-12, 15-18 entry H          line    44 file /shared/joao/test_parameterize/miniconda3/share/psi4/basis/6-31gs.gbs 
    atoms 13-14       entry N          line   128 file /shared/joao/test_parameterize/miniconda3/share/psi4/basis/6-31gs.gbs 


         ---------------------------------------------------------
                                   SCF
            by Justin Turney, Rob Parrish, Andy Simmonett
                             and Daniel Smith
                              RKS Reference
                        4 Threads,   2861 MiB Core
         ---------------------------------------------------------

  ==> Geometry <==

    Molecular point group: c1
    Full point group: C1

    Geometry (in Angstrom), charge = 1, multiplicity = 1:

       Center              X                  Y                   Z               Mass       
    ------------   -----------------  -----------------  -----------------  -----------------
         C            0.024397038940    -0.028172518493    -0.175964150301    12.000000000000
         C            0.061486851046     1.197785642694     0.512699172552    12.000000000000
         C            0.035945299798     1.207741555229     1.904552875412    12.000000000000
         C           -0.004569611457     0.004291902602     2.614074041066    12.000000000000
         C           -0.026753827079    -1.216704779698     1.933217082617    12.000000000000
         C           -0.016334086512    -1.238555984743     0.542345215962    12.000000000000
         C            0.026903413746    -0.030122053230    -1.646237955631    12.000000000000
         H            0.051984450445     2.137194195515    -0.032892916612     1.007825032070
         H            0.040591444433     2.154395156825     2.435157333199     1.007825032070
         H           -0.017220694984     0.017278821485     3.699663932393     1.007825032070
         H           -0.042028003470    -2.150213968246     2.486445398420     1.007825032070
         H            0.013372757170    -2.194611541566     0.025658554796     1.007825032070
         N           -0.749814956874    -0.879484348137    -2.321730626323    14.003074004780
         N            0.700933961035     0.912984355441    -2.299612661986    14.003074004780
         H            0.655368946160     1.027001942343    -3.305557273668     1.007825032070
         H            1.318347930001     1.537480527983    -1.793639084917     1.007825032070
         H           -1.231852849128    -1.628461015599    -1.837935477118     1.007825032070
         H           -0.840158063271    -0.845594890405    -3.338366459859     1.007825032070

  Running in c1 symmetry.

  Rotational constants: A =      0.12189  B =      0.03945  C =      0.03123 [cm^-1]
  Rotational constants: A =   3654.13469  B =   1182.66606  C =    936.25984 [MHz]
  Nuclear repulsion =  416.576196687869867

  Charge       = 1
  Multiplicity = 1
  Electrons    = 64
  Nalpha       = 32
  Nbeta        = 32

  ==> Algorithm <==

  SCF Algorithm Type is DF.
  DIIS enabled.
  MOM disabled.
  Fractional occupation disabled.
  Guess Type is READ.
  Energy threshold   = 1.00e-08
  Density threshold  = 1.00e-08
  Integral threshold = 0.00e+00

  ==> Primary Basis <==

  Basis Set: 6-31G*
    Blend: 6-31G*
    Number of shells: 72
    Number of basis function: 153
    Number of Cartesian functions: 153
    Spherical Harmonics?: false
    Max angular momentum: 2

  ==> DFT Potential <==

   => Composite Functional: B3LYP-D3ZERO <= 

    B3LYP-d3zero Hyb-GGA Exchange-Correlation Functional

    P. J. Stephens, F. J. Devlin, C. F. Chabalowski, and M. J. Frisch, J. Phys. Chem. 98, 11623 (1994)

    Deriv               =              1
    GGA                 =           TRUE
    Meta                =          FALSE

    Exchange Hybrid     =           TRUE
    MP2 Hybrid          =          FALSE

   => Exchange Functionals <=

    0.0800   Slater exchange
    0.7200         Becke 88

   => Exact (HF) Exchange <=

    0.2000               HF 

   => Correlation Functionals <=

    0.1900   Vosko, Wilk & Nusair (VWN5_RPA)
    0.8100   Lee, Yang & Parr

   => Molecular Quadrature <=

    Radial Scheme       =       TREUTLER
    Pruning Scheme      =           FLAT
    Nuclear Scheme      =       TREUTLER

    BS radius alpha     =              1
    Pruning alpha       =              1
    Radial Points       =             75
    Spherical Points    =            302
    Total Points        =         396891
    Total Blocks        =           3001
    Max Points          =            256
    Max Functions       =            149

   => -D3ZERO: Empirical Dispersion <=

    Grimme's -D3 (zero-damping) Dispersion Correction
    Grimme S.; Antony J.; Ehrlich S.; Krieg H. (2010), J. Chem. Phys., 132: 154104

        S6 =   1.000000E+00
        S8 =   1.703000E+00
       SR6 =   1.261000E+00
       SR8 =   1.000000E+00
    ALPHA6 =   1.400000E+01

   => Loading Basis Set <=

    Name: (6-31G* AUX)
    Role: JKFIT
    Keyword: DF_BASIS_SCF
    atoms 1-7         entry C          line   121 file /shared/joao/test_parameterize/miniconda3/share/psi4/basis/cc-pvdz-jkfit.gbs 
    atoms 8-12, 15-18 entry H          line    51 file /shared/joao/test_parameterize/miniconda3/share/psi4/basis/cc-pvdz-jkfit.gbs 
    atoms 13-14       entry N          line   171 file /shared/joao/test_parameterize/miniconda3/share/psi4/basis/cc-pvdz-jkfit.gbs 

  Reading orbitals from file 180, no projection.

  ==> Pre-Iterations <==

   -------------------------------------------------------
    Irrep   Nso     Nmo     Nalpha   Nbeta   Ndocc  Nsocc
   -------------------------------------------------------
     A        153     153       0       0       0       0
   -------------------------------------------------------
    Total     153     153      32      32      32       0
   -------------------------------------------------------

  ==> Integral Setup <==

  ==> DiskDFJK: Density-Fitted J/K Matrices <==

    J tasked:                  Yes
    K tasked:                  Yes
    wK tasked:                  No
    OpenMP threads:              4
    Integrals threads:           4
    Memory (MB):              2002
    Algorithm:                Core
    Integral Cache:           NONE
    Schwarz Cutoff:          1E-12
    Fitting Condition:       1E-12

   => Auxiliary Basis Set <=

  Basis Set: (6-31G* AUX)
    Blend: CC-PVDZ-JKFIT
    Number of shells: 297
    Number of basis function: 954
    Number of Cartesian functions: 954
    Spherical Harmonics?: false
    Max angular momentum: 3

  Minimum eigenvalue in the overlap matrix is 4.8737843679E-04.
  Using Symmetric Orthogonalization.

  SCF Guess: Orbitals guess was supplied from a previous computation.

  ==> Iterations <==

                           Total Energy        Delta E     RMS |[F,P]|

   @DF-RKS iter   0:  -381.44814284129149   -3.81448e+02   1.61075e-03 
   @DF-RKS iter   1:  -381.46796380382290   -1.98210e-02   1.81956e-04 
   @DF-RKS iter   2:  -381.46794548222459    1.83216e-05   2.14741e-04 DIIS
   @DF-RKS iter   3:  -381.46808180059600   -1.36318e-04   6.16483e-05 DIIS
   @DF-RKS iter   4:  -381.46809233985539   -1.05393e-05   2.65117e-05 DIIS
   @DF-RKS iter   5:  -381.46809443247480   -2.09262e-06   6.32359e-06 DIIS
   @DF-RKS iter   6:  -381.46809454557820   -1.13103e-07   1.82011e-06 DIIS
   @DF-RKS iter   7:  -381.46809455446805   -8.88986e-09   4.92032e-07 DIIS
   @DF-RKS iter   8:  -381.46809455506775   -5.99698e-10   1.86243e-07 DIIS
   @DF-RKS iter   9:  -381.46809455516564   -9.78844e-11   4.29034e-08 DIIS
   @DF-RKS iter  10:  -381.46809455516990   -4.26326e-12   1.62826e-08 DIIS
   @DF-RKS iter  11:  -381.46809455517098   -1.08002e-12   2.79807e-09 DIIS

  ==> Post-Iterations <==

    Orbital Energies [Eh]
    ---------------------

    Doubly Occupied:                                                      

       1A    -14.569349     2A    -14.568829     3A    -10.499086  
       4A    -10.374597     5A    -10.356582     6A    -10.356562  
       7A    -10.342236     8A    -10.340477     9A    -10.340388  
      10A     -1.183223    11A     -1.091077    12A     -1.014324  
      13A     -0.926487    14A     -0.902323    15A     -0.845565  
      16A     -0.785892    17A     -0.773317    18A     -0.740739  
      19A     -0.733546    20A     -0.686169    21A     -0.669003  
      22A     -0.626552    23A     -0.618289    24A     -0.589161  
      25A     -0.578695    26A     -0.574182    27A     -0.517625  
      28A     -0.506079    29A     -0.498355    30A     -0.471679  
      31A     -0.410610    32A     -0.405613  

    Virtual:                                                              

      33A     -0.215873    34A     -0.157708    35A     -0.132488  
      36A     -0.110782    37A     -0.069923    38A     -0.064096  
      39A     -0.038502    40A     -0.037029    41A      0.006513  
      42A      0.021101    43A      0.023736    44A      0.059761  
      45A      0.062601    46A      0.082002    47A      0.123534  
      48A      0.148650    49A      0.157353    50A      0.161274  
      51A      0.201883    52A      0.240875    53A      0.298469  
      54A      0.348609    55A      0.354019    56A      0.380055  
      57A      0.387809    58A      0.397853    59A      0.420439  
      60A      0.422101    61A      0.442138    62A      0.449023  
      63A      0.452608    64A      0.468992    65A      0.471470  
      66A      0.474917    67A      0.486184    68A      0.504055  
      69A      0.519918    70A      0.536647    71A      0.541658  
      72A      0.588766    73A      0.606473    74A      0.652522  
      75A      0.658035    76A      0.679323    77A      0.685813  
      78A      0.704760    79A      0.716297    80A      0.721815  
      81A      0.750175    82A      0.774892    83A      0.778624  
      84A      0.800120    85A      0.814077    86A      0.836119  
      87A      0.847774    88A      0.939288    89A      0.961782  
      90A      0.993166    91A      1.002277    92A      1.026047  
      93A      1.049139    94A      1.070314    95A      1.142448  
      96A      1.174928    97A      1.239821    98A      1.262949  
      99A      1.277610   100A      1.310285   101A      1.321823  
     102A      1.343822   103A      1.356496   104A      1.363545  
     105A      1.421731   106A      1.451739   107A      1.495232  
     108A      1.601900   109A      1.618127   110A      1.654615  
     111A      1.672360   112A      1.735730   113A      1.752799  
     114A      1.793359   115A      1.825667   116A      1.849227  
     117A      1.899364   118A      1.917576   119A      1.954183  
     120A      1.975289   121A      1.996643   122A      2.019584  
     123A      2.033481   124A      2.095220   125A      2.104528  
     126A      2.129143   127A      2.150776   128A      2.200886  
     129A      2.217022   130A      2.254607   131A      2.334618  
     132A      2.368568   133A      2.441693   134A      2.453289  
     135A      2.489056   136A      2.520841   137A      2.548057  
     138A      2.588401   139A      2.606923   140A      2.628352  
     141A      2.736311   142A      2.880603   143A      2.979663  
     144A      3.257669   145A      3.631903   146A      3.655237  
     147A      3.914127   148A      3.949072   149A      3.963201  
     150A      4.055649   151A      4.173679   152A      4.256201  
     153A      4.544908  

    Final Occupation by Irrep:
              A 
    DOCC [    32 ]

  Energy converged.

  @DF-RKS Final Energy:  -381.46809455517098

   => Energetics <=

    Nuclear Repulsion Energy =            416.5761966878698672
    One-Electron Energy =               -1328.3530705597631822
    Two-Electron Energy =                 574.7186271758071143
    DFT Exchange-Correlation Energy =     -44.3979905990847641
    Empirical Dispersion Energy =          -0.0118572600000000
    VV10 Nonlocal Energy =                  0.0000000000000000
    Total Energy =                       -381.4680945551709215



Properties will be evaluated at   0.000000,   0.000000,   0.000000 [a0]

Properties computed using the SCF density matrix

  Nuclear Dipole Moment: [e a0]
     X:     0.4019      Y:    -0.6301      Z:     0.1838

  Electronic Dipole Moment: [e a0]
     X:    -0.4032      Y:     0.6312      Z:    -2.4593

  Dipole Moment: [e a0]
     X:    -0.0013      Y:     0.0011      Z:    -2.2756     Total:     2.2756

  Dipole Moment: [D]
     X:    -0.0033      Y:     0.0027      Z:    -5.7839     Total:     5.7839


*** tstop() called on green.prib.upf.edu at Sat Sep 29 20:29:01 2018
Module time:
	user time   =      81.79 seconds =       1.36 minutes
	system time =       0.41 seconds =       0.01 minutes
	total time  =         22 seconds =       0.37 minutes
Total time:
	user time   =     210.60 seconds =       3.51 minutes
	system time =       1.13 seconds =       0.02 minutes
	total time  =         57 seconds =       0.95 minutes

*** tstart() called on green.prib.upf.edu
*** at Sat Sep 29 20:29:01 2018


         ------------------------------------------------------------
                                   SCF GRAD                          
                          Rob Parrish, Justin Turney,                
                       Andy Simmonett, and Alex Sokolov              
         ------------------------------------------------------------

  ==> Geometry <==

    Molecular point group: c1
    Full point group: C1

    Geometry (in Angstrom), charge = 1, multiplicity = 1:

       Center              X                  Y                   Z               Mass       
    ------------   -----------------  -----------------  -----------------  -----------------
         C            0.024397038940    -0.028172518493    -0.175964150301    12.000000000000
         C            0.061486851046     1.197785642694     0.512699172552    12.000000000000
         C            0.035945299798     1.207741555229     1.904552875412    12.000000000000
         C           -0.004569611457     0.004291902602     2.614074041066    12.000000000000
         C           -0.026753827079    -1.216704779698     1.933217082617    12.000000000000
         C           -0.016334086512    -1.238555984743     0.542345215962    12.000000000000
         C            0.026903413746    -0.030122053230    -1.646237955631    12.000000000000
         H            0.051984450445     2.137194195515    -0.032892916612     1.007825032070
         H            0.040591444433     2.154395156825     2.435157333199     1.007825032070
         H           -0.017220694984     0.017278821485     3.699663932393     1.007825032070
         H           -0.042028003470    -2.150213968246     2.486445398420     1.007825032070
         H            0.013372757170    -2.194611541566     0.025658554796     1.007825032070
         N           -0.749814956874    -0.879484348137    -2.321730626323    14.003074004780
         N            0.700933961035     0.912984355441    -2.299612661986    14.003074004780
         H            0.655368946160     1.027001942343    -3.305557273668     1.007825032070
         H            1.318347930001     1.537480527983    -1.793639084917     1.007825032070
         H           -1.231852849128    -1.628461015599    -1.837935477118     1.007825032070
         H           -0.840158063271    -0.845594890405    -3.338366459859     1.007825032070

  Nuclear repulsion =  416.576196687869867

  ==> Basis Set <==

  Basis Set: 6-31G*
    Blend: 6-31G*
    Number of shells: 72
    Number of basis function: 153
    Number of Cartesian functions: 153
    Spherical Harmonics?: false
    Max angular momentum: 2

  ==> DFJKGrad: Density-Fitted SCF Gradients <==

    Gradient:                    1
    J tasked:                  Yes
    K tasked:                  Yes
    wK tasked:                  No
    OpenMP threads:              4
    Integrals threads:           4
    Memory (MB):              2002
    Schwarz Cutoff:          0E+00
    Fitting Condition:       1E-12

   => Auxiliary Basis Set <=

  Basis Set: (6-31G* AUX)
    Blend: CC-PVDZ-JKFIT
    Number of shells: 297
    Number of basis function: 954
    Number of Cartesian functions: 954
    Spherical Harmonics?: false
    Max angular momentum: 3

  ==> DFT Potential <==

   => Composite Functional: B3LYP-D3ZERO <= 

    B3LYP-d3zero Hyb-GGA Exchange-Correlation Functional

    P. J. Stephens, F. J. Devlin, C. F. Chabalowski, and M. J. Frisch, J. Phys. Chem. 98, 11623 (1994)

    Deriv               =              1
    GGA                 =           TRUE
    Meta                =          FALSE

    Exchange Hybrid     =           TRUE
    MP2 Hybrid          =          FALSE

   => Exchange Functionals <=

    0.0800   Slater exchange
    0.7200         Becke 88

   => Exact (HF) Exchange <=

    0.2000               HF 

   => Correlation Functionals <=

    0.1900   Vosko, Wilk & Nusair (VWN5_RPA)
    0.8100   Lee, Yang & Parr

   => Molecular Quadrature <=

    Radial Scheme       =       TREUTLER
    Pruning Scheme      =           FLAT
    Nuclear Scheme      =       TREUTLER

    BS radius alpha     =              1
    Pruning alpha       =              1
    Radial Points       =             75
    Spherical Points    =            302
    Total Points        =         396891
    Total Blocks        =           3001
    Max Points          =            256
    Max Functions       =            149


  -Total Gradient:
     Atom            X                  Y                   Z
    ------   -----------------  -----------------  -----------------
       1       -0.004978463832     0.005333634006    -0.000573546993
       2        0.000636700112    -0.000005428666    -0.000336558618
       3       -0.000214804863    -0.000083382215     0.000104656241
       4       -0.000006106214    -0.000024376260    -0.000069249370
       5        0.000031534511    -0.000190840353    -0.000125100908
       6       -0.000097795649    -0.000251590821     0.001089863032
       7        0.011343548320    -0.006730146749     0.002522738093
       8        0.000309621093    -0.000167453658    -0.000688427629
       9       -0.000035762573    -0.000000426911     0.000087454812
      10        0.000065712686    -0.000045275128     0.000104488313
      11       -0.000004556580    -0.000033369813     0.000103283375
      12        0.000302915433    -0.000286089541     0.000466856908
      13       -0.006344022997     0.001001822208     0.003248975769
      14       -0.000972611086     0.000361502004    -0.000667343684
      15       -0.000189117635     0.000048255515    -0.000125073341
      16        0.000550161493     0.001867404805     0.001130362197
      17        0.002318987300    -0.003986135981     0.000298937356
      18       -0.002708256934     0.003185492345    -0.006588460727


*** tstop() called on green.prib.upf.edu at Sat Sep 29 20:29:08 2018
Module time:
	user time   =      26.11 seconds =       0.44 minutes
	system time =       0.24 seconds =       0.00 minutes
	total time  =          7 seconds =       0.12 minutes
Total time:
	user time   =     236.77 seconds =       3.95 minutes
	system time =       1.39 seconds =       0.02 minutes
	total time  =         64 seconds =       1.07 minutes

			-----------------------------------------
			 OPTKING 2.0: for geometry optimizations 
			  - R.A. King,  Bethel University        
			-----------------------------------------
	At level 1: Red. Int., RFO, no backsteps, dynamic trust

	Previous internal coordinate definitions found.
	---Fragment 1 Geometry and Gradient---
	 C           0.0461037220       -0.0532383444       -0.3325240533
	 C           0.1161933092        2.2634868306        0.9688610247
	 C           0.0679267724        2.2823007787        3.5990833401
	 C          -0.0086353142        0.0081105205        4.9398840287
	 C          -0.0505574062       -2.2992388182        3.6532508416
	 C          -0.0308669501       -2.3405316114        1.0248839276
	 C           0.0508400840       -0.0569224312       -3.1109388857
	 H           0.0982363745        4.0387117223       -0.0621586041
	 H           0.0767067133        4.0712168284        4.6017804502
	 H          -0.0325423973        0.0326522405        6.9913516159
	 H          -0.0794214165       -4.0633155271        4.6987008474
	 H           0.0252708487       -4.1472147816        0.0484876415
	 N          -1.4169449188       -1.6619845561       -4.3874350381
	 N           1.3245732236        1.7252903954       -4.3456381429
	 H           1.2384678242        1.9407524090       -6.2465979638
	 H           2.4913165356        2.9054171325       -3.3894866517
	 H          -2.3278645209       -3.0773453376       -3.4731947017
	 H          -1.5876686479       -1.5979427622       -6.3085983403
	            -0.0049784638        0.0053336340       -0.0005735470
	             0.0006367001       -0.0000054287       -0.0003365586
	            -0.0002148049       -0.0000833822        0.0001046562
	            -0.0000061062       -0.0000243763       -0.0000692494
	             0.0000315345       -0.0001908404       -0.0001251009
	            -0.0000977956       -0.0002515908        0.0010898630
	             0.0113435483       -0.0067301467        0.0025227381
	             0.0003096211       -0.0001674537       -0.0006884276
	            -0.0000357626       -0.0000004269        0.0000874548
	             0.0000657127       -0.0000452751        0.0001044883
	            -0.0000045566       -0.0000333698        0.0001032834
	             0.0003029154       -0.0002860895        0.0004668569
	            -0.0063440230        0.0010018222        0.0032489758
	            -0.0009726111        0.0003615020       -0.0006673437
	            -0.0001891176        0.0000482555       -0.0001250733
	             0.0005501615        0.0018674048        0.0011303622
	             0.0023189873       -0.0039861360        0.0002989374
	            -0.0027082569        0.0031854923       -0.0065884607

	---Fragment 1 Intrafragment Coordinates---
	 - Coordinate -           - BOHR/RAD -       - ANG/DEG -
	 R(1,2)           =         2.658144	       1.406629
	 R(1,6)           =         2.660863	       1.408068
	 R(1,7)           =         2.778421	       1.470277
	 R(2,3)           =         2.630732	       1.392124
	 R(2,8)           =         2.052985	       1.086393
	 R(3,4)           =         2.641127	       1.397624
	 R(3,9)           =         2.050780	       1.085226
	 R(4,5)           =         2.642166	       1.398174
	 R(4,10)          =         2.051754	       1.085741
	 R(5,6)           =         2.628765	       1.391083
	 R(5,11)          =         2.050796	       1.085235
	 R(6,12)          =         2.054411	       1.087148
	 R(7,13)          =         2.521916	       1.334540
	 R(7,14)          =         2.514590	       1.330664
	 R(13,17)         =         1.915426	       1.013600
	 R(13,18)         =         1.929797	       1.021205
	 R(14,15)         =         1.915068	       1.013410
	 R(14,16)         =         1.915258	       1.013511
	 B(1,2,3)         =         2.088906	     119.685471
	 B(1,2,8)         =         2.103120	     120.499915
	 B(1,6,5)         =         2.090675	     119.786861
	 B(1,6,12)        =         2.109133	     120.844421
	 B(1,7,13)        =         2.101351	     120.398544
	 B(1,7,14)        =         2.083961	     119.402173
	 B(2,1,6)         =         2.094629	     120.013428
	 B(2,1,7)         =         2.083682	     119.386181
	 B(2,3,4)         =         2.096634	     120.128288
	 B(2,3,9)         =         2.088631	     119.669719
	 B(3,2,8)         =         2.089510	     119.720094
	 B(3,4,5)         =         2.100411	     120.344699
	 B(3,4,10)        =         2.091660	     119.843317
	 B(4,3,9)         =         2.097896	     120.200594
	 B(4,5,6)         =         2.094957	     120.032184
	 B(4,5,11)        =         2.098058	     120.209841
	 B(5,4,10)        =         2.091112	     119.811905
	 B(5,6,12)        =         2.081986	     119.288987
	 B(6,1,7)         =         2.104873	     120.600344
	 B(6,5,11)        =         2.090121	     119.755107
	 B(7,13,17)       =         2.100737	     120.363346
	 B(7,13,18)       =         2.134434	     122.294065
	 B(7,14,15)       =         2.146425	     122.981106
	 B(7,14,16)       =         2.094576	     120.010340
	 B(13,7,14)       =         2.091348	     119.825387
	 B(15,14,16)      =         2.041615	     116.975926
	 B(17,13,18)      =         2.046111	     117.233512
	 D(1,2,3,4)       =         0.017954	       1.028674
	 D(1,2,3,9)       =        -3.116147	    -178.542070
	 D(1,6,5,4)       =         0.006388	       0.366016
	 D(1,6,5,11)      =        -3.124475	    -179.019247
	*D(1,7,13,17)     =        -0.174533	     -10.000016
	 D(1,7,13,18)     =         3.035185	     173.903282
	 D(1,7,14,15)     =        -3.017220	    -172.873977
	 D(1,7,14,16)     =         0.161753	       9.267781
	 D(2,1,6,5)       =         0.005817	       0.333273
	 D(2,1,6,12)      =        -3.078704	    -176.396728
	 D(2,1,7,13)      =        -2.430801	    -139.274663
	 D(2,1,7,14)      =         0.588077	      33.694316
	 D(2,3,4,5)       =        -0.005808	      -0.332763
	 D(2,3,4,10)      =         3.134002	     179.565093
	 D(3,2,1,6)       =        -0.017988	      -1.030658
	 D(3,2,1,7)       =         3.122234	     178.890854
	 D(3,4,5,6)       =        -0.006480	      -0.371265
	 D(3,4,5,11)      =         3.124334	     179.011176
	 D(4,3,2,8)       =         3.098168	     177.511950
	 D(4,5,6,12)      =         3.091800	     177.147065
	 D(5,4,3,9)       =         3.128253	     179.235684
	 D(5,6,1,7)       =        -3.134389	    -179.587273
	 D(6,1,2,8)       =        -3.097716	    -177.486030
	 D(6,1,7,13)      =         0.709413	      40.646378
	 D(6,1,7,14)      =        -2.554894	    -146.384643
	 D(6,5,4,10)      =         3.136895	     179.730847
	 D(7,1,2,8)       =         0.042507	       2.435482
	 D(7,1,6,12)      =         0.064276	       3.682726
	 D(8,2,3,9)       =        -0.035933	      -2.058794
	 D(9,3,4,10)      =        -0.015123	      -0.866460
	 D(10,4,5,11)     =        -0.015476	      -0.886712
	 D(11,5,6,12)     =        -0.039064	      -2.238198
	 D(13,7,14,15)    =         0.002372	       0.135879
	 D(13,7,14,16)    =        -3.101840	    -177.722362
	 D(14,7,13,17)    =         3.090293	     177.060737
	 D(14,7,13,18)    =         0.016826	       0.964034

	Current energy   :      -381.4680945552

	Energy change for the previous step:
		Projected    :        -0.0051134731
		Actual       :        -0.0019342783

	Performing BFGS update.
	Previous computed or guess Hessian on step 1.
	Steps to be used in Hessian update: 1
	Taking RFO optimization step.
	Going to follow RFO solution 1.
	Using RFO vector 1.
	Norm of target step-size    0.30394
	Projected energy change by RFO approximation:        -0.0022520273

	Back-transformation to cartesian coordinates...
	Could not converge backtransformation.
	Using first guess instead.

	Back-transformation to cartesian coordinates to adjust frozen coordinates...
	Successfully converged to displaced geometry.

	--- Internal Coordinate Step in ANG or DEG, aJ/ANG or AJ/DEG ---
	 ---------------------------------------------------------------------------
	   Coordinate                Previous        Force       Change         New 
	   ----------                --------       ------       ------       ------
	    1 R(1,2)          =      1.406629     0.005153     0.000446     1.407075
	    2 R(1,6)          =      1.408068    -0.011648    -0.001300     1.406768
	    3 R(1,7)          =      1.470277    -0.001532     0.001275     1.471552
	    4 R(2,3)          =      1.392124    -0.002290     0.000191     1.392314
	    5 R(2,8)          =      1.086393    -0.001631    -0.000041     1.086352
	    6 R(3,4)          =      1.397624    -0.000786    -0.000225     1.397399
	    7 R(3,9)          =      1.085226    -0.000353     0.000031     1.085257
	    8 R(4,5)          =      1.398174     0.000213     0.000076     1.398250
	    9 R(4,10)         =      1.085741    -0.000857    -0.000029     1.085713
	   10 R(5,6)          =      1.391083     0.000565     0.000090     1.391173
	   11 R(5,11)         =      1.085235    -0.000674     0.000004     1.085239
	   12 R(6,12)         =      1.087148    -0.000308     0.000337     1.087484
	   13 R(7,13)         =      1.334540    -0.043903    -0.002765     1.331775
	   14 R(7,14)         =      1.330664    -0.009366     0.000192     1.330855
	   15 R(13,17)        =      1.013600    -0.016360    -0.001300     1.012300
	   16 R(13,18)        =      1.021205    -0.056876     0.010386     1.031591
	   17 R(14,15)        =      1.013410    -0.001132     0.000370     1.013780
	   18 R(14,16)        =      1.013511    -0.016892    -0.001169     1.012342
	   19 B(1,2,3)        =    119.685471    -0.000013    -0.025308   119.660163
	   20 B(1,2,8)        =    120.499915     0.000059     0.240562   120.740477
	   21 B(1,6,5)        =    119.786861     0.000003     0.052185   119.839045
	   22 B(1,6,12)       =    120.844421    -0.000043    -0.053207   120.791214
	   23 B(1,7,13)       =    120.398544    -0.000234    -0.341232   120.057312
	   24 B(1,7,14)       =    119.402173     0.000213     0.474684   119.876857
	   25 B(2,1,6)        =    120.013428     0.000017    -0.011743   120.001685
	   26 B(2,1,7)        =    119.386181     0.000193     0.332694   119.718875
	   27 B(2,3,4)        =    120.128288    -0.000003     0.034941   120.163229
	   28 B(2,3,9)        =    119.669719    -0.000004    -0.055229   119.614490
	   29 B(3,2,8)        =    119.720094    -0.000046    -0.226585   119.493509
	   30 B(3,4,5)        =    120.344699    -0.000005    -0.039677   120.305021
	   31 B(3,4,10)       =    119.843317    -0.000001     0.010973   119.854290
	   32 B(4,3,9)        =    120.200594     0.000008     0.018768   120.219363
	   33 B(4,5,6)        =    120.032184     0.000001    -0.005986   120.026198
	   34 B(4,5,11)       =    120.209841     0.000005     0.022340   120.232181
	   35 B(5,4,10)       =    119.811905     0.000006     0.028596   119.840501
	   36 B(5,6,12)       =    119.288987     0.000041     0.011221   119.300209
	   37 B(6,1,7)        =    120.600344    -0.000211    -0.328819   120.271525
	   38 B(6,5,11)       =    119.755107    -0.000006    -0.015643   119.739464
	   39 B(7,13,17)      =    120.363346    -0.000056    -0.302998   120.060348
	   40 B(7,13,18)      =    122.294065     0.000089    -0.593663   121.700402
	   41 B(7,14,15)      =    122.981106     0.000009     0.083366   123.064472
	   42 B(7,14,16)      =    120.010340    -0.000007     0.019375   120.029715
	   43 B(13,7,14)      =    119.825387     0.000037     0.131038   119.956425
	   44 B(15,14,16)     =    116.975926    -0.000004    -0.152619   116.823307
	   45 B(17,13,18)     =    117.233512    -0.000050    -0.973631   116.259882
	   46 D(1,2,3,4)      =      1.028674    -0.000003    -0.256232     0.772442
	   47 D(1,2,3,9)      =   -178.542070    -0.000001    -0.065501  -178.607571
	   48 D(1,6,5,4)      =      0.366016     0.000000     0.071404     0.437421
	   49 D(1,6,5,11)     =   -179.019247     0.000000    -0.010409  -179.029655
	   50 *D(1,7,13,17)   =    -10.000016     0.000000     0.000000   -10.000016
	   51 D(1,7,13,18)    =    173.903282     0.000069    12.702395   186.605677
	   52 D(1,7,14,15)    =   -172.873977    -0.000018    -2.881607  -175.755584
	   53 D(1,7,14,16)    =      9.267781    -0.000002    -1.613420     7.654361
	   54 D(2,1,6,5)      =      0.333273    -0.000003    -0.403774    -0.070500
	   55 D(2,1,6,12)     =   -176.396728    -0.000006    -0.620266  -177.016994
	   56 D(2,1,7,13)     =   -139.274663    -0.000011     0.320395  -138.954267
	   57 D(2,1,7,14)     =     33.694316     0.000025     3.547375    37.241691
	   58 D(2,3,4,5)      =     -0.332763    -0.000000    -0.076263    -0.409026
	   59 D(2,3,4,10)     =    179.565093     0.000002     0.183737   179.748829
	   60 D(3,2,1,6)      =     -1.030658     0.000004     0.496129    -0.534528
	   61 D(3,2,1,7)      =    178.890854    -0.000001    -0.445908   178.444947
	   62 D(3,4,5,6)      =     -0.371265     0.000001     0.169580    -0.201686
	   63 D(3,4,5,11)     =    179.011176     0.000002     0.251563   179.262739
	   64 D(4,3,2,8)      =    177.511950    -0.000003    -0.451753   177.060197
	   65 D(4,5,6,12)     =    177.147065     0.000002     0.282513   177.429577
	   66 D(5,4,3,9)      =    179.235684    -0.000002    -0.268476   178.967208
	   67 D(5,6,1,7)      =   -179.587273     0.000002     0.542996  -179.044276
	   68 D(6,1,2,8)      =   -177.486030     0.000005     0.710980  -176.775051
	   69 D(6,1,7,13)     =     40.646378    -0.000016    -0.623965    40.022413
	   70 D(6,1,7,14)     =   -146.384643     0.000020     2.603015  -143.781628
	   71 D(6,5,4,10)     =    179.730847    -0.000000    -0.090366   179.640481
	   72 D(7,1,2,8)      =      2.435482     0.000000    -0.231057     2.204424
	   73 D(7,1,6,12)     =      3.682726    -0.000001     0.326504     4.009230
	   74 D(8,2,3,9)      =     -2.058794    -0.000001    -0.261022    -2.319816
	   75 D(9,3,4,10)     =     -0.866460     0.000000    -0.008476    -0.874936
	   76 D(10,4,5,11)    =     -0.886712    -0.000000    -0.008382    -0.895094
	   77 D(11,5,6,12)    =     -2.238198     0.000002     0.200700    -2.037499
	   78 D(13,7,14,15)   =      0.135879     0.000014     0.308368     0.444246
	   79 D(13,7,14,16)   =   -177.722362     0.000029     1.576554  -176.145808
	   80 D(14,7,13,17)   =    177.060737    -0.000039    -3.253666   173.807071
	   81 D(14,7,13,18)   =      0.964034     0.000030     9.448729    10.412764
	 ---------------------------------------------------------------------------
	Successfully symmetrized geometry.

  ==> Convergence Check <==

  Measures of convergence in internal coordinates in au.
  Criteria marked as inactive (o), active & met (*), and active & unmet ( ).
  ---------------------------------------------------------------------------------------------
   Step     Total Energy     Delta E     MAX Force     RMS Force      MAX Disp      RMS Disp   
  ---------------------------------------------------------------------------------------------
    Convergence Criteria    1.00e-06 *    3.00e-04 *             o    1.20e-03 *             o
  ---------------------------------------------------------------------------------------------
      2    -381.46809456   -1.93e-03      6.90e-03      1.39e-03 o    2.22e-01      3.36e-02 o  ~
  ---------------------------------------------------------------------------------------------

	Writing optimization data to binary file.
	Structure for next step:
	Cartesian Geometry (in Angstrom)
	    C     0.0144126325  -0.0051871041  -0.1750516823
	    C     0.0483733367   1.2135251382   0.5274066270
	    C     0.0351209541   1.2069015970   1.9196419676
	    C     0.0046135565  -0.0043766546   2.6157730657
	    C    -0.0214320845  -1.2172541361   1.9205368912
	    C    -0.0212937490  -1.2223580495   0.5293736587
	    C    -0.0063033597   0.0012244345  -1.6464437224
	    H     0.0236015090   2.1611618418  -0.0031893671
	    H     0.0384132629   2.1477917645   2.4604724393
	    H    -0.0014780591  -0.0037747119   3.7014683790
	    H    -0.0330497389  -2.1575036204   2.4623289738
	    H     0.0008430878  -2.1724065705   0.0006587175
	    N    -0.7895679727  -0.8501222868  -2.3062389557
	    N     0.7006721517   0.9088445931  -2.3154634703
	    H     0.6728711553   0.9973841799  -3.3249874639
	    H     1.3405081687   1.5178508559  -1.8209352800
	    H    -1.2546878485  -1.5999468366  -1.8100765056
	    H    -0.7510170028  -0.9375214344  -3.3333972725
			--------------------------
			 OPTKING Finished Execution 
			--------------------------

    Structure for next step:
    Molecular point group: c1
    Full point group: C1

    Geometry (in Angstrom), charge = 1, multiplicity = 1:

    C            0.014412632522    -0.005187104100    -0.175051682315
    C            0.048373336715     1.213525138206     0.527406626990
    C            0.035120954114     1.206901596953     1.919641967631
    C            0.004613556533    -0.004376654645     2.615773065736
    C           -0.021432084541    -1.217254136093     1.920536891156
    C           -0.021293749040    -1.222358049481     0.529373658699
    C           -0.006303359729     0.001224434516    -1.646443722397
    H            0.023601508977     2.161161841772    -0.003189367075
    H            0.038413262889     2.147791764515     2.460472439258
    H           -0.001478059113    -0.003774711869     3.701468378987
    H           -0.033049738904    -2.157503620413     2.462328973783
    H            0.000843087831    -2.172406570478     0.000658717491
    N           -0.789567972659    -0.850122286811    -2.306238955674
    N            0.700672151660     0.908844593145    -2.315463470332
    H            0.672871155290     0.997384179892    -3.324987463866
    H            1.340508168727     1.517850855916    -1.820935280033
    H           -1.254687848492    -1.599946836602    -1.810076505588
    H           -0.751017002780    -0.937521434422    -3.333397272452

gradient() will perform analytic gradient computation.

*** tstart() called on green.prib.upf.edu
*** at Sat Sep 29 20:29:08 2018

   => Loading Basis Set <=

    Name: 6-31G*
    Role: ORBITAL
    Keyword: BASIS
    atoms 1-7         entry C          line   111 file /shared/joao/test_parameterize/miniconda3/share/psi4/basis/6-31gs.gbs 
    atoms 8-12, 15-18 entry H          line    44 file /shared/joao/test_parameterize/miniconda3/share/psi4/basis/6-31gs.gbs 
    atoms 13-14       entry N          line   128 file /shared/joao/test_parameterize/miniconda3/share/psi4/basis/6-31gs.gbs 


         ---------------------------------------------------------
                                   SCF
            by Justin Turney, Rob Parrish, Andy Simmonett
                             and Daniel Smith
                              RKS Reference
                        4 Threads,   2861 MiB Core
         ---------------------------------------------------------

  ==> Geometry <==

    Molecular point group: c1
    Full point group: C1

    Geometry (in Angstrom), charge = 1, multiplicity = 1:

       Center              X                  Y                   Z               Mass       
[...]
	             0.0051125859       -0.0044937469       -0.0003350412
	             0.0000022952       -0.0000023563       -0.0000038405
	            -0.0000010781        0.0000007674       -0.0000033000
	             0.0000016613        0.0000003868       -0.0000011991
	             0.0000038695       -0.0000009799       -0.0000018684
	             0.0000025504        0.0000003392        0.0000015741
	            -0.0063979436        0.0051359255        0.0010273633
	            -0.0000182059        0.0000029746        0.0000042644
	             0.0000061177       -0.0000035209       -0.0000002945
	             0.0000068021       -0.0000085617        0.0000005349
	             0.0036988451       -0.0028450151       -0.0007284894
	             0.0000002057       -0.0000049577       -0.0000137823

	---Fragment 1 Intrafragment Coordinates---
	 - Coordinate -           - BOHR/RAD -       - ANG/DEG -
	 R(1,2)           =         2.658704	       1.406926
	 R(1,6)           =         2.658684	       1.406915
	 R(1,7)           =         2.775923	       1.468955
	 R(2,3)           =         2.629918	       1.391693
	 R(2,8)           =         2.052819	       1.086305
	 R(3,4)           =         2.641721	       1.397939
	 R(3,9)           =         2.050653	       1.085159
	 R(4,5)           =         2.642140	       1.398160
	 R(4,10)          =         2.051509	       1.085612
	 R(5,6)           =         2.629218	       1.391322
	 R(5,11)          =         2.050589	       1.085125
	 R(6,12)          =         2.054076	       1.086970
	 R(7,13)          =         2.515396	       1.331090
	 R(7,14)          =         2.511987	       1.329286
	 R(13,17)         =         1.912391	       1.011994
	 R(13,18)         =         1.916291	       1.014058
	 R(14,15)         =         1.915076	       1.013415
	 R(14,16)         =         1.911403	       1.011471
	 B(1,2,3)         =         2.087938	     119.630027
	 B(1,2,8)         =         2.104426	     120.574749
	 B(1,6,5)         =         2.089730	     119.732707
	 B(1,6,12)        =         2.106696	     120.704766
	 B(1,7,13)        =         2.094272	     119.992939
	 B(1,7,14)        =         2.090317	     119.766349
	 B(2,1,6)         =         2.096675	     120.130650
	 B(2,1,7)         =         2.091157	     119.814469
	 B(2,3,4)         =         2.096186	     120.102595
	 B(2,3,9)         =         2.088740	     119.675965
	 B(3,2,8)         =         2.089399	     119.713744
	 B(3,4,5)         =         2.101157	     120.387446
	 B(3,4,10)        =         2.091120	     119.812333
	 B(4,3,9)         =         2.098214	     120.218799
	 B(4,5,6)         =         2.094618	     120.012777
	 B(4,5,11)        =         2.098528	     120.236806
	 B(5,4,10)        =         2.090908	     119.800219
	 B(5,6,12)        =         2.085485	     119.489509
	 B(6,1,7)         =         2.095349	     120.054679
	 B(6,5,11)        =         2.089995	     119.747906
	 B(7,13,17)       =         2.086400	     119.541891
	 B(7,13,18)       =         2.130298	     122.057078
	 B(7,14,15)       =         2.146760	     123.000312
	 B(7,14,16)       =         2.092230	     119.875932
	 B(13,7,14)       =         2.096077	     120.096345
	 B(15,14,16)      =         2.043439	     117.080420
	 B(17,13,18)      =         2.025705	     116.064326
	 D(1,2,3,4)       =         0.011381	       0.652077
	 D(1,2,3,9)       =        -3.119917	    -178.758092
	 D(1,6,5,4)       =         0.007921	       0.453816
	 D(1,6,5,11)      =        -3.123636	    -178.971148
	*D(1,7,13,17)     =        -0.174533	     -10.000016
	 D(1,7,13,18)     =        -3.001212	    -171.956769
	 D(1,7,14,15)     =        -3.018861	    -172.968020
	 D(1,7,14,16)     =         0.165767	       9.497724
	 D(2,1,6,5)       =        -0.001308	      -0.074963
	 D(2,1,6,12)      =        -3.088393	    -176.951864
	 D(2,1,7,13)      =        -2.425008	    -138.942746
	 D(2,1,7,14)      =         0.640441	      36.694555
	 D(2,3,4,5)       =        -0.004821	      -0.276203
	 D(2,3,4,10)      =         3.137070	     179.740889
	 D(3,2,1,6)       =        -0.008354	      -0.478647
	 D(3,2,1,7)       =         3.130383	     179.357742
	 D(3,4,5,6)       =        -0.004931	      -0.282511
	 D(3,4,5,11)      =         3.126576	     179.139613
	 D(4,3,2,8)       =         3.096025	     177.389158
	 D(4,5,6,12)      =         3.095672	     177.368915
	 D(5,4,3,9)       =         3.126421	     179.130737
	 D(5,6,1,7)       =        -3.140039	    -179.910956
	 D(6,1,2,8)       =        -3.092498	    -177.187097
	 D(6,1,7,13)      =         0.713731	      40.893768
	 D(6,1,7,14)      =        -2.504005	    -143.468931
	 D(6,5,4,10)      =         3.136364	     179.700399
	 D(7,1,2,8)       =         0.046239	       2.649291
	 D(7,1,6,12)      =         0.056062	       3.212143
	 D(8,2,3,9)       =        -0.035273	      -2.021010
	 D(9,3,4,10)      =        -0.014873	      -0.852171
	 D(10,4,5,11)     =        -0.015315	      -0.877477
	 D(11,5,6,12)     =        -0.035885	      -2.056048
	 D(13,7,14,15)    =         0.046508	       2.664716
	 D(13,7,14,16)    =        -3.052049	    -174.869540
	 D(14,7,13,17)    =         3.043456	     174.377202
	 D(14,7,13,18)    =         0.216778	      12.420449

	Current energy   :      -381.4690999942

	Energy change for the previous step:
		Projected    :         0.0000001924
		Actual       :        -0.0000001430

	Performing BFGS update.
	Previous computed or guess Hessian on step 1.
	Steps to be used in Hessian update: 6 5
	Taking RFO optimization step.
	Going to follow RFO solution 1.
	Rejecting RFO root 1 because normalization gives large value.
	Using RFO vector 2.
	Norm of target step-size    0.00180
	Projected energy change by RFO approximation:        -0.0000000313

	Back-transformation to cartesian coordinates...
	Successfully converged to displaced geometry.

	Back-transformation to cartesian coordinates to adjust frozen coordinates...
	Successfully converged to displaced geometry.

	--- Internal Coordinate Step in ANG or DEG, aJ/ANG or AJ/DEG ---
	 ---------------------------------------------------------------------------
	   Coordinate                Previous        Force       Change         New 
	   ----------                --------       ------       ------       ------
	    1 R(1,2)          =      1.406926     0.000102     0.000025     1.406951
	    2 R(1,6)          =      1.406915    -0.000026     0.000001     1.406916
	    3 R(1,7)          =      1.468955    -0.000170    -0.000064     1.468891
	    4 R(2,3)          =      1.391693    -0.000012    -0.000008     1.391685
	    5 R(2,8)          =      1.086305     0.000005     0.000000     1.086305
	    6 R(3,4)          =      1.397939     0.000012     0.000006     1.397945
	    7 R(3,9)          =      1.085159     0.000004     0.000000     1.085159
	    8 R(4,5)          =      1.398160     0.000013     0.000003     1.398163
	    9 R(4,10)         =      1.085612     0.000002     0.000001     1.085613
	   10 R(5,6)          =      1.391322    -0.000022    -0.000007     1.391315
	   11 R(5,11)         =      1.085125    -0.000002    -0.000001     1.085124
	   12 R(6,12)         =      1.086970     0.000013     0.000003     1.086973
	   13 R(7,13)         =      1.331090     0.000096     0.000028     1.331118
	   14 R(7,14)         =      1.329286     0.000096     0.000022     1.329308
	   15 R(13,17)        =      1.011994    -0.000054    -0.000006     1.011987
	   16 R(13,18)        =      1.014058    -0.000109    -0.000026     1.014031
	   17 R(14,15)        =      1.013415     0.000012    -0.000001     1.013414
	   18 R(14,16)        =      1.011471    -0.000004    -0.000001     1.011469
	   19 B(1,2,3)        =    119.630027     0.000000     0.000701   119.630728
	   20 B(1,2,8)        =    120.574749     0.000000    -0.001525   120.573224
	   21 B(1,6,5)        =    119.732707     0.000000     0.001364   119.734071
	   22 B(1,6,12)       =    120.704766    -0.000000    -0.002047   120.702719
	   23 B(1,7,13)       =    119.992939    -0.000000     0.001069   119.994008
	   24 B(1,7,14)       =    119.766349     0.000001     0.010588   119.776937
	   25 B(2,1,6)        =    120.130650    -0.000001    -0.001730   120.128920
	   26 B(2,1,7)        =    119.814469     0.000000    -0.000188   119.814281
	   27 B(2,3,4)        =    120.102595    -0.000000    -0.000263   120.102332
	   28 B(2,3,9)        =    119.675965     0.000000     0.001821   119.677786
	   29 B(3,2,8)        =    119.713744    -0.000000     0.000218   119.713962
	   30 B(3,4,5)        =    120.387446    -0.000000     0.000174   120.387620
	   31 B(3,4,10)       =    119.812333     0.000000    -0.000344   119.811989
	   32 B(4,3,9)        =    120.218799    -0.000000    -0.001543   120.217256
	   33 B(4,5,6)        =    120.012777     0.000000    -0.000275   120.012502
	   34 B(4,5,11)       =    120.236806    -0.000000    -0.001036   120.235770
	   35 B(5,4,10)       =    119.800219     0.000000     0.000167   119.800385
	   36 B(5,6,12)       =    119.489509    -0.000000     0.001284   119.490793
	   37 B(6,1,7)        =    120.054679     0.000000     0.001899   120.056578
	   38 B(6,5,11)       =    119.747906     0.000000     0.001357   119.749262
	   39 B(7,13,17)      =    119.541891     0.000001     0.011031   119.552922
	   40 B(7,13,18)      =    122.057078    -0.000001    -0.018958   122.038120
	   41 B(7,14,15)      =    123.000312    -0.000000    -0.002564   122.997748
	   42 B(7,14,16)      =    119.875932     0.000000     0.003196   119.879127
	   43 B(13,7,14)      =    120.096345    -0.000001    -0.011462   120.084883
	   44 B(15,14,16)     =    117.080420    -0.000000     0.002005   117.082425
	   45 B(17,13,18)     =    116.064326    -0.000000     0.003230   116.067556
	   46 D(1,2,3,4)      =      0.652077     0.000000     0.007063     0.659140
	   47 D(1,2,3,9)      =   -178.758092     0.000000     0.005443  -178.752649
	   48 D(1,6,5,4)      =      0.453816    -0.000000    -0.005842     0.447973
	   49 D(1,6,5,11)     =   -178.971148    -0.000000    -0.011070  -178.982217
	   50 *D(1,7,13,17)   =    -10.000016     0.000000    -0.000000   -10.000016
	   51 D(1,7,13,18)    =   -171.956769    -0.000000     0.016925  -171.939844
	   52 D(1,7,14,15)    =   -172.968020     0.000000     0.051074  -172.916947
	   53 D(1,7,14,16)    =      9.497724    -0.000000    -0.025138     9.472586
	   54 D(2,1,6,5)      =     -0.074963     0.000000     0.006671    -0.068292
	   55 D(2,1,6,12)     =   -176.951864    -0.000000    -0.006225  -176.958089
	   56 D(2,1,7,13)     =   -138.942746     0.000000     0.020746  -138.922000
	   57 D(2,1,7,14)     =     36.694555    -0.000000     0.023182    36.717737
	   58 D(2,3,4,5)      =     -0.276203    -0.000000    -0.006285    -0.282488
	   59 D(2,3,4,10)     =    179.740889     0.000000     0.003941   179.744829
	   60 D(3,2,1,6)      =     -0.478647    -0.000000    -0.007280    -0.485926
	   61 D(3,2,1,7)      =    179.357742    -0.000000    -0.014818   179.342924
	   62 D(3,4,5,6)      =     -0.282511     0.000000     0.005667    -0.276845
	   63 D(3,4,5,11)     =    179.139613     0.000000     0.010933   179.150547
	   64 D(4,3,2,8)      =    177.389158    -0.000000    -0.005093   177.384065
	   65 D(4,5,6,12)     =    177.368915     0.000000     0.006791   177.375706
	   66 D(5,4,3,9)      =    179.130737    -0.000000    -0.004636   179.126101
	   67 D(5,6,1,7)      =   -179.910956     0.000000     0.014231  -179.896725
	   68 D(6,1,2,8)      =   -177.187097     0.000000     0.004924  -177.182173
	   69 D(6,1,7,13)     =     40.893768    -0.000000     0.013207    40.906975
	   70 D(6,1,7,14)     =   -143.468931    -0.000000     0.015643  -143.453287
	   71 D(6,5,4,10)     =    179.700399    -0.000000    -0.004558   179.695841
	   72 D(7,1,2,8)      =      2.649291    -0.000000    -0.002614     2.646677
	   73 D(7,1,6,12)     =      3.212143     0.000000     0.001336     3.213478
	   74 D(8,2,3,9)      =     -2.021010    -0.000000    -0.006713    -2.027723
	   75 D(9,3,4,10)     =     -0.852171     0.000000     0.005590    -0.846582
	   76 D(10,4,5,11)    =     -0.877477     0.000000     0.000709    -0.876768
	   77 D(11,5,6,12)    =     -2.056048     0.000000     0.001564    -2.054484
	   78 D(13,7,14,15)   =      2.664716     0.000000     0.054066     2.718782
	   79 D(13,7,14,16)   =   -174.869540    -0.000000    -0.022145  -174.891685
	   80 D(14,7,13,17)   =    174.377202     0.000000    -0.003416   174.373786
	   81 D(14,7,13,18)   =     12.420449     0.000000     0.013509    12.433958
	 ---------------------------------------------------------------------------
	Successfully symmetrized geometry.

  ==> Convergence Check <==

  Measures of convergence in internal coordinates in au.
  Criteria marked as inactive (o), active & met (*), and active & unmet ( ).
  ---------------------------------------------------------------------------------------------
   Step     Total Energy     Delta E     MAX Force     RMS Force      MAX Disp      RMS Disp   
  ---------------------------------------------------------------------------------------------
    Convergence Criteria    1.00e-06 *    3.00e-04 *             o    1.20e-03 *             o
  ---------------------------------------------------------------------------------------------
      7    -381.46909999   -1.43e-07 *    2.06e-05 *    4.99e-06 o    9.44e-04 *    2.00e-04 o  ~
  ---------------------------------------------------------------------------------------------


  **** Optimization is complete! (in 7 steps) ****

  ==> Optimization Summary <==

  Measures of convergence in internal coordinates in au.
  --------------------------------------------------------------------------------------------------------------- ~
   Step         Total Energy             Delta E       MAX Force       RMS Force        MAX Disp        RMS Disp  ~
  --------------------------------------------------------------------------------------------------------------- ~
      1    -381.466160276882   -381.466160276882      0.00658517      0.00128845      0.26977599      0.04469957  ~
      2    -381.468094555171     -0.001934278289      0.00690345      0.00139288      0.22169862      0.03363067  ~
      3    -381.468763818709     -0.000669263538      0.01456756      0.00169063      0.03012861      0.00791209  ~
      4    -381.469086747178     -0.000322928469      0.00138354      0.00020007      0.01447972      0.00357095  ~
      5    -381.469098230410     -0.000011483232      0.00047062      0.00007947      0.00420680      0.00127820  ~
      6    -381.469099851216     -0.000001620806      0.00012429      0.00002460      0.00120484      0.00029323  ~
      7    -381.469099994240     -0.000000143024      0.00002060      0.00000499      0.00094363      0.00019978  ~
  --------------------------------------------------------------------------------------------------------------- ~

	Writing optimization data to binary file.
	Final energy is   -381.4690999942397
	Final (previous) structure:
	Cartesian Geometry (in Angstrom)
	    C     0.0037477861  -0.0036107426  -0.1773867852
	    C     0.0397137574   1.2153123277   0.5243062976
	    C     0.0341071201   1.2085149055   1.9159711604
	    C     0.0067030884  -0.0040418629   2.6110882745
	    C    -0.0210645470  -1.2170635760   1.9163512800
	    C    -0.0274771835  -1.2222219690   0.5250533433
	    C    -0.0047649862  -0.0007490270  -1.6463147293
	    H     0.0180701184   2.1611005033  -0.0096176437
	    H     0.0413997443   2.1486603373   2.4578591126
	    H     0.0067001567  -0.0039371779   3.6967001107
	    H    -0.0282284964  -2.1571351399   2.4583015727
	    H    -0.0056809466  -2.1700372077  -0.0066188322
	    N    -0.7882755165  -0.8486707248  -2.3088415881
	    N     0.7048607150   0.9074325228  -2.3086132387
	    H     0.6545647143   1.0211534012  -3.3143700887
	    H     1.3574516927   1.4982437429  -1.8104766074
	    H    -1.2581412257  -1.5906625859  -1.8060438440
	    H    -0.7330859915  -0.9580547269  -3.3154707942
	Saving final (previous) structure.
	Removing binary optimization data file.
			--------------------------
			 OPTKING Finished Execution 
			--------------------------

    Final optimized geometry and variables:
    Molecular point group: c1
    Full point group: C1

    Geometry (in Angstrom), charge = 1, multiplicity = 1:

    C            0.003747786146    -0.003610742573    -0.177386785193
    C            0.039713757355     1.215312327684     0.524306297583
    C            0.034107120136     1.208514905519     1.915971160391
    C            0.006703088449    -0.004041862947     2.611088274454
    C           -0.021064547033    -1.217063576048     1.916351279959
    C           -0.027477183488    -1.222221969011     0.525053343264
    C           -0.004764986248    -0.000749026981    -1.646314729294
    H            0.018070118379     2.161100503260    -0.009617643704
    H            0.041399744306     2.148660337305     2.457859112569
    H            0.006700156668    -0.003937177870     3.696700110673
    H           -0.028228496446    -2.157135139865     2.458301572662
    H           -0.005680946551    -2.170037207729    -0.006618832241
    N           -0.788275516541    -0.848670724834    -2.308841588108
    N            0.704860714975     0.907432522809    -2.308613238738
    H            0.654564714332     1.021153401204    -3.314370088708
    H            1.357451692694     1.498243742892    -1.810476607396
    H           -1.258141225655    -1.590662585876    -1.806043843959
    H           -0.733085991478    -0.958054726940    -3.315470794212

	Removing binary optimization data file.
	Cleaning optimization helper files.


Properties will be evaluated at   0.000000,   0.000000,   0.000000 [a0]
OEProp: No title given, name of density matrix used for the following properties is 'SCF density'
  Nuclear Dipole Moment: [e a0]
     X:    -0.6521      Y:     0.4110      Z:     0.0803

  Electronic Dipole Moment: [e a0]
     X:     0.7538      Y:    -0.4708      Z:    -2.3298

  Dipole Moment: [e a0]
     X:     0.1017      Y:    -0.0598      Z:    -2.2495     Total:     2.2525

  Dipole Moment: [D]
     X:     0.2586      Y:    -0.1519      Z:    -5.7175     Total:     5.7254

  Quadrupole Moment: [D A]
    XX:   -50.4088     YY:   -37.0974     ZZ:   -13.3169
    XY:     6.2785     XZ:    -0.3578     YZ:     0.1773

  Traceless Quadrupole Moment: [D A]
    XX:   -16.8011     YY:    -3.4897     ZZ:    20.2908
    XY:     6.2785     XZ:    -0.3578     YZ:     0.1773

  Mulliken Charges: (a.u.)
   Center  Symbol    Alpha    Beta     Spin     Total
       1     C     2.95165  2.95165  0.00000  0.09671
       2     C     3.08152  3.08152  0.00000 -0.16303
       3     C     3.06234  3.06234  0.00000 -0.12468
       4     C     3.05164  3.05164  0.00000 -0.10328
       5     C     3.06235  3.06235  0.00000 -0.12469
       6     C     3.08450  3.08450  0.00000 -0.16900
       7     C     2.72805  2.72805  0.00000  0.54390
       8     H     0.41421  0.41421  0.00000  0.17158
       9     H     0.40532  0.40532  0.00000  0.18937
      10     H     0.40388  0.40388  0.00000  0.19224
      11     H     0.40543  0.40543  0.00000  0.18915
      12     H     0.41636  0.41636  0.00000  0.16728
      13     N     3.85781  3.85781  0.00000 -0.71562
      14     N     3.86335  3.86335  0.00000 -0.72671
      15     H     0.30527  0.30527  0.00000  0.38945
      16     H     0.29933  0.29933  0.00000  0.40134
      17     H     0.30015  0.30015  0.00000  0.39969
      18     H     0.30685  0.30685  0.00000  0.38631

   Total alpha = 32.00000, Total beta = 32.00000, Total charge =  1.00000


    Psi4 stopped on: Saturday, 29 September 2018 08:31PM
    Psi4 wall time for execution: 0:03:16.34

*** Psi4 exiting successfully. Buy a developer a beer!
