
    -----------------------------------------------------------------------
          Psi4: An Open-Source Ab Initio Electronic Structure Package
                               Psi4 1.2.1 release

                         Git: Rev {HEAD} 406f4de 


    R. M. Parrish, L. A. Burns, D. G. A. Smith, A. C. Simmonett,
    A. E. DePrince III, E. G. Hohenstein, U. Bozkaya, A. Yu. Sokolov,
    R. Di Remigio, R. M. Richard, J. F. Gonthier, A. M. James,
    H. R. McAlexander, A. Kumar, M. Saitow, X. Wang, B. P. Pritchard,
    P. Verma, H. F. Schaefer III, K. Patkowski, R. A. King, E. F. Valeev,
    F. A. Evangelista, J. M. Turney, T. D. Crawford, and C. D. Sherrill,
    J. Chem. Theory Comput. 13(7) pp 3185--3197 (2017).
    (doi: 10.1021/acs.jctc.7b00174)


                         Additional Contributions by
    P. Kraus, H. Kruse, M. H. Lechner, M. C. Schieber, and R. A. Shaw

    -----------------------------------------------------------------------


    Psi4 started on: Saturday, 29 September 2018 05:10PM

    Process ID: 13657
    Host:       loro.prib.upf.edu
    PSIDATADIR: /shared/joao/test_parameterize/miniconda3/share/psi4
    Memory:     500.0 MiB
    Threads:    1
    
  ==> Input File <==

--------------------------------------------------------------------------
set_num_threads(1)
set_memory('5348 MB')

set { scf_mem_safety_factor 0.7 }

set { reference rks }
set { basis cc-pVDZ }

molecule MOL {
    0 1
    noreorient
    nocom
    symmetry c1
    O    1.050400   0.042900  -0.048100
    C    2.474100   0.047400  -0.029000
    C    3.002600  -1.068900  -0.932000
    N    4.462700  -1.072400  -1.006800
    H    0.760400   0.728400   0.578000
    H    2.809900  -0.097900   1.003200
    H    2.817400   1.026800  -0.378600
    H    2.581000  -0.963300  -1.938400
    H    2.653800  -2.036400  -0.553400
    H    4.823846  -1.890121  -0.516507
    H    4.819124  -0.262859  -0.499004
}

set optking { frozen_dihedral = (" 2 3 4 10 ") }

energy, wfn = energy('B3LYP-D3', return_wfn=True)

import os
os.chdir(os.environ['HTMD_PSI4_WORKDIR'])

oeprop(wfn, 'DIPOLE', 'QUADRUPOLE', 'MULLIKEN_CHARGES')

with open('psi4out.xyz', 'w') as f:
    f.write('11 ' )
    f.write('%.12f\n' % energy)
    f.write(MOL.save_string_xyz())
--------------------------------------------------------------------------
  Threads set to 1 by Python driver.

  Memory set to   4.981 GiB by Python driver.

*** tstart() called on loro.prib.upf.edu
*** at Sat Sep 29 17:10:06 2018

   => Loading Basis Set <=

    Name: CC-PVDZ
    Role: ORBITAL
    Keyword: BASIS
    atoms 1    entry O          line   198 file /shared/joao/test_parameterize/miniconda3/share/psi4/basis/cc-pvdz.gbs 
    atoms 2-3  entry C          line   138 file /shared/joao/test_parameterize/miniconda3/share/psi4/basis/cc-pvdz.gbs 
    atoms 4    entry N          line   168 file /shared/joao/test_parameterize/miniconda3/share/psi4/basis/cc-pvdz.gbs 
    atoms 5-11 entry H          line    22 file /shared/joao/test_parameterize/miniconda3/share/psi4/basis/cc-pvdz.gbs 


         ---------------------------------------------------------
                                   SCF
            by Justin Turney, Rob Parrish, Andy Simmonett
                             and Daniel Smith
                              RKS Reference
                        1 Threads,   5100 MiB Core
         ---------------------------------------------------------

  ==> Geometry <==

    Molecular point group: c1
    Full point group: C1

    Geometry (in Angstrom), charge = 0, multiplicity = 1:

       Center              X                  Y                   Z               Mass       
    ------------   -----------------  -----------------  -----------------  -----------------
         O            1.050400000000     0.042900000000    -0.048100000000    15.994914619560
         C            2.474100000000     0.047400000000    -0.029000000000    12.000000000000
         C            3.002600000000    -1.068900000000    -0.932000000000    12.000000000000
         N            4.462700000000    -1.072400000000    -1.006800000000    14.003074004780
         H            0.760400000000     0.728400000000     0.578000000000     1.007825032070
         H            2.809900000000    -0.097900000000     1.003200000000     1.007825032070
         H            2.817400000000     1.026800000000    -0.378600000000     1.007825032070
         H            2.581000000000    -0.963300000000    -1.938400000000     1.007825032070
         H            2.653800000000    -2.036400000000    -0.553400000000     1.007825032070
         H            4.823846000000    -1.890121000000    -0.516507000000     1.007825032070
         H            4.819124000000    -0.262859000000    -0.499004000000     1.007825032070

  Running in c1 symmetry.

  Rotational constants: A =      0.72418  B =      0.02777  C =      0.02708 [cm^-1]
  Rotational constants: A =  21710.50841  B =    832.46653  C =    811.89367 [MHz]
  Nuclear repulsion =  130.810157508454012

  Charge       = 0
  Multiplicity = 1
  Electrons    = 34
  Nalpha       = 17
  Nbeta        = 17

  ==> Algorithm <==

  SCF Algorithm Type is DF.
  DIIS enabled.
  MOM disabled.
  Fractional occupation disabled.
  Guess Type is SAD.
  Energy threshold   = 1.00e-06
  Density threshold  = 1.00e-06
  Integral threshold = 0.00e+00

  ==> Primary Basis <==

  Basis Set: CC-PVDZ
    Blend: CC-PVDZ
    Number of shells: 45
    Number of basis function: 91
    Number of Cartesian functions: 95
    Spherical Harmonics?: true
    Max angular momentum: 2

  ==> DFT Potential <==

   => Composite Functional: B3LYP-D3ZERO <= 

    B3LYP-d3zero Hyb-GGA Exchange-Correlation Functional

    P. J. Stephens, F. J. Devlin, C. F. Chabalowski, and M. J. Frisch, J. Phys. Chem. 98, 11623 (1994)

    Deriv               =              1
    GGA                 =           TRUE
    Meta                =          FALSE

    Exchange Hybrid     =           TRUE
    MP2 Hybrid          =          FALSE

   => Exchange Functionals <=

    0.0800   Slater exchange
    0.7200         Becke 88

   => Exact (HF) Exchange <=

    0.2000               HF 

   => Correlation Functionals <=

    0.1900   Vosko, Wilk & Nusair (VWN5_RPA)
    0.8100   Lee, Yang & Parr

   => Molecular Quadrature <=

    Radial Scheme       =       TREUTLER
    Pruning Scheme      =           FLAT
    Nuclear Scheme      =       TREUTLER

    BS radius alpha     =              1
    Pruning alpha       =              1
    Radial Points       =             75
    Spherical Points    =            302
    Total Points        =         245074
    Total Blocks        =           1879
    Max Points          =            256
    Max Functions       =             91

   => -D3ZERO: Empirical Dispersion <=

    Grimme's -D3 (zero-damping) Dispersion Correction
    Grimme S.; Antony J.; Ehrlich S.; Krieg H. (2010), J. Chem. Phys., 132: 154104

        S6 =   1.000000E+00
        S8 =   1.703000E+00
       SR6 =   1.261000E+00
       SR8 =   1.000000E+00
    ALPHA6 =   1.400000E+01

   => Loading Basis Set <=

    Name: (CC-PVDZ AUX)
    Role: JKFIT
    Keyword: DF_BASIS_SCF
    atoms 1    entry O          line   221 file /shared/joao/test_parameterize/miniconda3/share/psi4/basis/cc-pvdz-jkfit.gbs 
    atoms 2-3  entry C          line   121 file /shared/joao/test_parameterize/miniconda3/share/psi4/basis/cc-pvdz-jkfit.gbs 
    atoms 4    entry N          line   171 file /shared/joao/test_parameterize/miniconda3/share/psi4/basis/cc-pvdz-jkfit.gbs 
    atoms 5-11 entry H          line    51 file /shared/joao/test_parameterize/miniconda3/share/psi4/basis/cc-pvdz-jkfit.gbs 

  ==> Pre-Iterations <==

   -------------------------------------------------------
    Irrep   Nso     Nmo     Nalpha   Nbeta   Ndocc  Nsocc
   -------------------------------------------------------
     A         91      91       0       0       0       0
   -------------------------------------------------------
    Total      91      91      17      17      17       0
   -------------------------------------------------------

  ==> Integral Setup <==

  DFHelper Memory: AOs need 0.036 [GiB]; user supplied 3.486 [GiB]. Using in-core AOs.

  ==> MemDFJK: Density-Fitted J/K Matrices <==

    J tasked:                   Yes
    K tasked:                   Yes
    wK tasked:                   No
    OpenMP threads:               1
    Memory (MB):               3570
    Algorithm:                 Core
    Schwarz Cutoff:           1E-12
    Mask sparsity (%):       0.4106
    Fitting Condition:        1E-12

   => Auxiliary Basis Set <=

  Basis Set: (CC-PVDZ AUX)
    Blend: CC-PVDZ-JKFIT
    Number of shells: 159
    Number of basis function: 441
    Number of Cartesian functions: 499
    Spherical Harmonics?: true
    Max angular momentum: 3

  Minimum eigenvalue in the overlap matrix is 4.4696490238E-03.
  Using Symmetric Orthogonalization.

  SCF Guess: Superposition of Atomic Densities via on-the-fly atomic UHF.

  ==> Iterations <==

                           Total Energy        Delta E     RMS |[F,P]|

   @DF-RKS iter   0:  -210.84219126429466   -2.10842e+02   3.66151e-02 
   @DF-RKS iter   1:  -210.21811897565695    6.24072e-01   6.94232e-03 
   @DF-RKS iter   2:  -210.07360808120379    1.44511e-01   9.58656e-03 DIIS
   @DF-RKS iter   3:  -210.38697965766485   -3.13372e-01   6.05431e-04 DIIS
   @DF-RKS iter   4:  -210.38781699144886   -8.37334e-04   3.61962e-04 DIIS
   @DF-RKS iter   5:  -210.38828691669440   -4.69925e-04   4.67685e-05 DIIS
   @DF-RKS iter   6:  -210.38829258103630   -5.66434e-06   2.38111e-05 DIIS
   @DF-RKS iter   7:  -210.38829463076024   -2.04972e-06   2.02644e-06 DIIS
   @DF-RKS iter   8:  -210.38829464558063   -1.48204e-08   7.65283e-07 DIIS

  ==> Post-Iterations <==

    Orbital Energies [Eh]
    ---------------------

    Doubly Occupied:                                                      

       1A    -19.130105     2A    -14.305194     3A    -10.228601  
       4A    -10.201471     5A     -1.012682     6A     -0.878676  
       7A     -0.711967     8A     -0.605043     9A     -0.508360  
      10A     -0.489204    11A     -0.455887    12A     -0.413185  
      13A     -0.392712    14A     -0.361695    15A     -0.328443  
      16A     -0.264650    17A     -0.232064  

    Virtual:                                                              

      18A      0.048969    19A      0.055829    20A      0.094147  
      21A      0.112899    22A      0.125496    23A      0.145640  
      24A      0.173979    25A      0.219238    26A      0.242983  
      27A      0.261043    28A      0.431039    29A      0.446939  
      30A      0.492038    31A      0.530170    32A      0.560546  
      33A      0.567401    34A      0.604126    35A      0.618423  
      36A      0.628982    37A      0.655730    38A      0.658978  
      39A      0.667772    40A      0.685498    41A      0.827164  
      42A      0.847649    43A      0.866422    44A      0.909394  
      45A      0.927804    46A      0.955330    47A      0.991585  
      48A      1.059796    49A      1.179567    50A      1.207264  
      51A      1.226923    52A      1.263460    53A      1.333340  
      54A      1.354602    55A      1.425617    56A      1.508610  
      57A      1.547453    58A      1.590993    59A      1.608753  
      60A      1.613620    61A      1.643056    62A      1.666804  
      63A      1.688907    64A      1.716452    65A      1.742936  
      66A      1.780886    67A      1.821906    68A      1.859779  
      69A      1.901084    70A      1.959648    71A      2.020657  
      72A      2.045260    73A      2.059043    74A      2.141075  
      75A      2.161388    76A      2.198144    77A      2.289934  
      78A      2.382073    79A      2.396720    80A      2.435761  
      81A      2.483472    82A      2.574008    83A      2.609400  
      84A      2.650432    85A      2.822569    86A      2.957983  
      87A      3.002655    88A      3.043887    89A      3.095284  
      90A      3.208567    91A      3.691690  

    Final Occupation by Irrep:
              A 
    DOCC [    17 ]

  Energy converged.

  @DF-RKS Final Energy:  -210.38829464558063

   => Energetics <=

    Nuclear Repulsion Energy =            130.8101575084540116
    One-Electron Energy =                -544.4742141965111841
    Two-Electron Energy =                 226.7682986331053314
    DFT Exchange-Correlation Energy =     -23.4875848706288366
    Empirical Dispersion Energy =          -0.0049517200000000
    VV10 Nonlocal Energy =                  0.0000000000000000
    Total Energy =                       -210.3882946455806575



Properties will be evaluated at   0.000000,   0.000000,   0.000000 [a0]

Properties computed using the SCF density matrix

  Nuclear Dipole Moment: [e a0]
     X:   177.1954      Y:   -31.7247      Z:   -29.2966

  Electronic Dipole Moment: [e a0]
     X:  -176.9884      Y:    32.0609      Z:    30.1626

  Dipole Moment: [e a0]
     X:     0.2070      Y:     0.3362      Z:     0.8660     Total:     0.9518

  Dipole Moment: [D]
     X:     0.5261      Y:     0.8546      Z:     2.2011     Total:     2.4192


*** tstop() called on loro.prib.upf.edu at Sat Sep 29 17:10:23 2018
Module time:
	user time   =      15.00 seconds =       0.25 minutes
	system time =       0.24 seconds =       0.00 minutes
	total time  =         17 seconds =       0.28 minutes
Total time:
	user time   =      15.00 seconds =       0.25 minutes
	system time =       0.24 seconds =       0.00 minutes
	total time  =         17 seconds =       0.28 minutes


Properties will be evaluated at   0.000000,   0.000000,   0.000000 [a0]
OEProp: No title given, name of density matrix used for the following properties is 'SCF density'
  Nuclear Dipole Moment: [e a0]
     X:   177.1954      Y:   -31.7247      Z:   -29.2966

  Electronic Dipole Moment: [e a0]
     X:  -176.9884      Y:    32.0609      Z:    30.1626

  Dipole Moment: [e a0]
     X:     0.2070      Y:     0.3362      Z:     0.8660     Total:     0.9518

  Dipole Moment: [D]
     X:     0.5261      Y:     0.8546      Z:     2.2011     Total:     2.4192

  Quadrupole Moment: [D A]
    XX:   -24.2812     YY:   -23.0380     ZZ:   -28.0697
    XY:     0.0836     XZ:     7.1098     YZ:    -0.5276

  Traceless Quadrupole Moment: [D A]
    XX:     0.8485     YY:     2.0916     ZZ:    -2.9400
    XY:     0.0836     XZ:     7.1098     YZ:    -0.5276

  Mulliken Charges: (a.u.)
   Center  Symbol    Alpha    Beta     Spin     Total
       1     O     4.13745  4.13745  0.00000 -0.27490
       2     C     2.94395  2.94395  0.00000  0.11209
       3     C     2.97870  2.97870  0.00000  0.04260
       4     N     3.59032  3.59032  0.00000 -0.18064
       5     H     0.43051  0.43051  0.00000  0.13898
       6     H     0.50475  0.50475  0.00000 -0.00949
       7     H     0.49850  0.49850  0.00000  0.00300
       8     H     0.48990  0.48990  0.00000  0.02020
       9     H     0.49448  0.49448  0.00000  0.01104
      10     H     0.46262  0.46262  0.00000  0.07475
      11     H     0.46881  0.46881  0.00000  0.06237

   Total alpha = 17.00000, Total beta = 17.00000, Total charge = -0.00000


    Psi4 stopped on: Saturday, 29 September 2018 05:10PM
    Psi4 wall time for execution: 0:00:18.01

*** Psi4 exiting successfully. Buy a developer a beer!
