
    -----------------------------------------------------------------------
          Psi4: An Open-Source Ab Initio Electronic Structure Package
                               Psi4 1.2.1 release

                         Git: Rev {HEAD} 406f4de 


    R. M. Parrish, L. A. Burns, D. G. A. Smith, A. C. Simmonett,
    A. E. DePrince III, E. G. Hohenstein, U. Bozkaya, A. Yu. Sokolov,
    R. Di Remigio, R. M. Richard, J. F. Gonthier, A. M. James,
    H. R. McAlexander, A. Kumar, M. Saitow, X. Wang, B. P. Pritchard,
    P. Verma, H. F. Schaefer III, K. Patkowski, R. A. King, E. F. Valeev,
    F. A. Evangelista, J. M. Turney, T. D. Crawford, and C. D. Sherrill,
    J. Chem. Theory Comput. 13(7) pp 3185--3197 (2017).
    (doi: 10.1021/acs.jctc.7b00174)


                         Additional Contributions by
    P. Kraus, H. Kruse, M. H. Lechner, M. C. Schieber, and R. A. Shaw

    -----------------------------------------------------------------------


    Psi4 started on: Saturday, 29 September 2018 08:51PM

    Process ID: 4396
    Host:       rosa.prib.upf.edu
    PSIDATADIR: /shared/joao/test_parameterize/miniconda3/share/psi4
    Memory:     500.0 MiB
    Threads:    1
    
  ==> Input File <==

--------------------------------------------------------------------------
set_num_threads(4)
set_memory('3000 MB')

set { scf_mem_safety_factor 0.7 }

set { reference rks }
set { basis 6-31G* }

molecule MOL {
    1 1
    noreorient
    nocom
    symmetry c1
    C   -0.000000  -0.000000  -0.177864
    C    0.036678   1.219374   0.524165
    C    0.031765   1.213120   1.915444
    C    0.000000   0.000000   2.610107
    C   -0.031765  -1.213120   1.915444
    C   -0.036678  -1.219375   0.524165
    C   -0.000000   0.000000  -1.644734
    H    0.018170   2.164705  -0.010854
    H    0.042402   2.152895   2.457886
    H    0.000000   0.000000   3.695756
    H   -0.042402  -2.152895   2.457886
    H   -0.018170  -2.164705  -0.010853
    N    1.070765  -0.426605  -2.308461
    N   -1.070765   0.426605  -2.308460
    H   -1.156065   0.360564  -3.315997
    H   -1.815363   0.899563  -1.813316
    H    1.815363  -0.899563  -1.813317
    H    1.156065  -0.360563  -3.315997
}

set optking { frozen_dihedral = (" 2 1 7 13 ") }

set optking { dynamic_level = 1 
 geom_maxiter = 250
 print_trajectory_xyz_file = True }

energy, wfn = optimize('B3LYP-D3', return_wfn=True)

import os
os.chdir(os.environ['HTMD_PSI4_WORKDIR'])

oeprop(wfn, 'DIPOLE', 'QUADRUPOLE', 'MULLIKEN_CHARGES')

with open('psi4out.xyz', 'w') as f:
    f.write('18 ' )
    f.write('%.12f\n' % energy)
    f.write(MOL.save_string_xyz())
--------------------------------------------------------------------------
  Threads set to 4 by Python driver.

  Memory set to   2.794 GiB by Python driver.
gradient() will perform analytic gradient computation.

*** tstart() called on rosa.prib.upf.edu
*** at Sat Sep 29 20:51:00 2018

   => Loading Basis Set <=

    Name: 6-31G*
    Role: ORBITAL
    Keyword: BASIS
    atoms 1-7         entry C          line   111 file /shared/joao/test_parameterize/miniconda3/share/psi4/basis/6-31gs.gbs 
    atoms 8-12, 15-18 entry H          line    44 file /shared/joao/test_parameterize/miniconda3/share/psi4/basis/6-31gs.gbs 
    atoms 13-14       entry N          line   128 file /shared/joao/test_parameterize/miniconda3/share/psi4/basis/6-31gs.gbs 


         ---------------------------------------------------------
                                   SCF
            by Justin Turney, Rob Parrish, Andy Simmonett
                             and Daniel Smith
                              RKS Reference
                        4 Threads,   2861 MiB Core
         ---------------------------------------------------------

  ==> Geometry <==

    Molecular point group: c1
    Full point group: C1

    Geometry (in Angstrom), charge = 1, multiplicity = 1:

       Center              X                  Y                   Z               Mass       
    ------------   -----------------  -----------------  -----------------  -----------------
         C            0.000000000000     0.000000000000    -0.177864000000    12.000000000000
         C            0.036678000000     1.219374000000     0.524165000000    12.000000000000
         C            0.031765000000     1.213120000000     1.915444000000    12.000000000000
         C            0.000000000000     0.000000000000     2.610107000000    12.000000000000
         C           -0.031765000000    -1.213120000000     1.915444000000    12.000000000000
         C           -0.036678000000    -1.219375000000     0.524165000000    12.000000000000
         C            0.000000000000     0.000000000000    -1.644734000000    12.000000000000
         H            0.018170000000     2.164705000000    -0.010854000000     1.007825032070
         H            0.042402000000     2.152895000000     2.457886000000     1.007825032070
         H            0.000000000000     0.000000000000     3.695756000000     1.007825032070
         H           -0.042402000000    -2.152895000000     2.457886000000     1.007825032070
         H           -0.018170000000    -2.164705000000    -0.010853000000     1.007825032070
         N            1.070765000000    -0.426605000000    -2.308461000000    14.003074004780
         N           -1.070765000000     0.426605000000    -2.308460000000    14.003074004780
         H           -1.156065000000     0.360564000000    -3.315997000000     1.007825032070
         H           -1.815363000000     0.899563000000    -1.813316000000     1.007825032070
         H            1.815363000000    -0.899563000000    -1.813317000000     1.007825032070
         H            1.156065000000    -0.360563000000    -3.315997000000     1.007825032070

  Running in c1 symmetry.

  Rotational constants: A =      0.12190  B =      0.03737  C =      0.03282 [cm^-1]
  Rotational constants: A =   3654.48752  B =   1120.37908  C =    983.89442 [MHz]
  Nuclear repulsion =  416.017867019194341

  Charge       = 1
  Multiplicity = 1
  Electrons    = 64
  Nalpha       = 32
  Nbeta        = 32

  ==> Algorithm <==

  SCF Algorithm Type is DF.
  DIIS enabled.
  MOM disabled.
  Fractional occupation disabled.
  Guess Type is SAD.
  Energy threshold   = 1.00e-08
  Density threshold  = 1.00e-08
  Integral threshold = 0.00e+00

  ==> Primary Basis <==

  Basis Set: 6-31G*
    Blend: 6-31G*
    Number of shells: 72
    Number of basis function: 153
    Number of Cartesian functions: 153
    Spherical Harmonics?: false
    Max angular momentum: 2

  ==> DFT Potential <==

   => Composite Functional: B3LYP-D3ZERO <= 

    B3LYP-d3zero Hyb-GGA Exchange-Correlation Functional

    P. J. Stephens, F. J. Devlin, C. F. Chabalowski, and M. J. Frisch, J. Phys. Chem. 98, 11623 (1994)

    Deriv               =              1
    GGA                 =           TRUE
    Meta                =          FALSE

    Exchange Hybrid     =           TRUE
    MP2 Hybrid          =          FALSE

   => Exchange Functionals <=

    0.0800   Slater exchange
    0.7200         Becke 88

   => Exact (HF) Exchange <=

    0.2000               HF 

   => Correlation Functionals <=

    0.1900   Vosko, Wilk & Nusair (VWN5_RPA)
    0.8100   Lee, Yang & Parr

   => Molecular Quadrature <=

    Radial Scheme       =       TREUTLER
    Pruning Scheme      =           FLAT
    Nuclear Scheme      =       TREUTLER

    BS radius alpha     =              1
    Pruning alpha       =              1
    Radial Points       =             75
    Spherical Points    =            302
    Total Points        =         397218
    Total Blocks        =           3004
    Max Points          =            256
    Max Functions       =            149

   => -D3ZERO: Empirical Dispersion <=

    Grimme's -D3 (zero-damping) Dispersion Correction
    Grimme S.; Antony J.; Ehrlich S.; Krieg H. (2010), J. Chem. Phys., 132: 154104

        S6 =   1.000000E+00
        S8 =   1.703000E+00
       SR6 =   1.261000E+00
       SR8 =   1.000000E+00
    ALPHA6 =   1.400000E+01

   => Loading Basis Set <=

    Name: (6-31G* AUX)
    Role: JKFIT
    Keyword: DF_BASIS_SCF
    atoms 1-7         entry C          line   121 file /shared/joao/test_parameterize/miniconda3/share/psi4/basis/cc-pvdz-jkfit.gbs 
    atoms 8-12, 15-18 entry H          line    51 file /shared/joao/test_parameterize/miniconda3/share/psi4/basis/cc-pvdz-jkfit.gbs 
    atoms 13-14       entry N          line   171 file /shared/joao/test_parameterize/miniconda3/share/psi4/basis/cc-pvdz-jkfit.gbs 

  ==> Pre-Iterations <==

   -------------------------------------------------------
    Irrep   Nso     Nmo     Nalpha   Nbeta   Ndocc  Nsocc
   -------------------------------------------------------
     A        153     153       0       0       0       0
   -------------------------------------------------------
    Total     153     153      32      32      32       0
   -------------------------------------------------------

  ==> Integral Setup <==

  ==> DiskDFJK: Density-Fitted J/K Matrices <==

    J tasked:                  Yes
    K tasked:                  Yes
    wK tasked:                  No
    OpenMP threads:              4
    Integrals threads:           4
    Memory (MB):              2002
    Algorithm:                Core
    Integral Cache:           NONE
    Schwarz Cutoff:          1E-12
    Fitting Condition:       1E-12

   => Auxiliary Basis Set <=

  Basis Set: (6-31G* AUX)
    Blend: CC-PVDZ-JKFIT
    Number of shells: 297
    Number of basis function: 954
    Number of Cartesian functions: 954
    Spherical Harmonics?: false
    Max angular momentum: 3

  Minimum eigenvalue in the overlap matrix is 4.8843185457E-04.
  Using Symmetric Orthogonalization.

  SCF Guess: Superposition of Atomic Densities via on-the-fly atomic UHF.

  ==> Iterations <==

                           Total Energy        Delta E     RMS |[F,P]|

   @DF-RKS iter   0:  -379.59487582934696   -3.79595e+02   6.72243e-02 
   @DF-RKS iter   1:  -381.03447781560010   -1.43960e+00   1.18064e-02 
   @DF-RKS iter   2:  -380.95484395449404    7.96339e-02   1.29641e-02 DIIS
   @DF-RKS iter   3:  -381.45453530118857   -4.99691e-01   1.72047e-03 DIIS
   @DF-RKS iter   4:  -381.46041477861826   -5.87948e-03   8.99537e-04 DIIS
   @DF-RKS iter   5:  -381.46246226604393   -2.04749e-03   2.36476e-04 DIIS
   @DF-RKS iter   6:  -381.46260104879531   -1.38783e-04   7.26408e-05 DIIS
   @DF-RKS iter   7:  -381.46261528575144   -1.42370e-05   1.28783e-05 DIIS
   @DF-RKS iter   8:  -381.46261565056074   -3.64809e-07   5.10802e-06 DIIS
   @DF-RKS iter   9:  -381.46261572379001   -7.32293e-08   1.17718e-06 DIIS
   @DF-RKS iter  10:  -381.46261572661604   -2.82603e-09   7.39965e-07 DIIS
   @DF-RKS iter  11:  -381.46261572847465   -1.85861e-09   9.72429e-08 DIIS
   @DF-RKS iter  12:  -381.46261572849824   -2.35900e-11   5.13748e-08 DIIS
   @DF-RKS iter  13:  -381.46261572850523   -6.99174e-12   1.13237e-08 DIIS
   @DF-RKS iter  14:  -381.46261572850671   -1.47793e-12   6.50361e-09 DIIS

  ==> Post-Iterations <==

    Orbital Energies [Eh]
    ---------------------

    Doubly Occupied:                                                      

       1A    -14.575475     2A    -14.575467     3A    -10.504567  
       4A    -10.369366     5A    -10.350468     6A    -10.350460  
       7A    -10.334704     8A    -10.334421     9A    -10.333906  
      10A     -1.189701    11A     -1.097345    12A     -1.009680  
      13A     -0.924590    14A     -0.896349    15A     -0.846195  
      16A     -0.788474    17A     -0.767375    18A     -0.750842  
      19A     -0.729876    20A     -0.692984    21A     -0.668252  
      22A     -0.621544    23A     -0.619961    24A     -0.577781  
      25A     -0.574769    26A     -0.568790    27A     -0.514523  
      28A     -0.500273    29A     -0.491950    30A     -0.477385  
      31A     -0.404349    32A     -0.399688  

    Virtual:                                                              

      33A     -0.204206    34A     -0.160273    35A     -0.150145  
      36A     -0.112777    37A     -0.066212    38A     -0.066088  
      39A     -0.037092    40A     -0.031143    41A      0.009988  
      42A      0.015470    43A      0.024268    44A      0.058477  
      45A      0.059426    46A      0.072905    47A      0.139981  
      48A      0.145552    49A      0.164164    50A      0.181110  
      51A      0.202679    52A      0.216355    53A      0.293818  
      54A      0.344705    55A      0.356644    56A      0.376687  
      57A      0.390696    58A      0.396953    59A      0.404313  
      60A      0.425094    61A      0.446532    62A      0.452065  
      63A      0.452942    64A      0.469447    65A      0.474089  
      66A      0.480206    67A      0.483586    68A      0.504729  
      69A      0.514947    70A      0.538916    71A      0.547370  
      72A      0.566119    73A      0.594159    74A      0.647837  
      75A      0.663194    76A      0.678962    77A      0.681162  
      78A      0.692570    79A      0.702056    80A      0.710549  
      81A      0.731206    82A      0.753529    83A      0.778735  
      84A      0.789023    85A      0.813439    86A      0.832275  
      87A      0.854500    88A      0.938513    89A      0.970126  
      90A      1.012524    91A      1.018589    92A      1.022874  
      93A      1.027851    94A      1.069695    95A      1.131745  
      96A      1.192789    97A      1.204251    98A      1.283630  
      99A      1.287138   100A      1.328804   101A      1.330921  
     102A      1.354582   103A      1.364507   104A      1.386808  
     105A      1.436769   106A      1.441523   107A      1.498970  
     108A      1.606519   109A      1.620262   110A      1.661217  
     111A      1.665156   112A      1.740641   113A      1.760549  
     114A      1.803470   115A      1.821371   116A      1.846770  
     117A      1.891728   118A      1.908639   119A      1.961412  
     120A      1.987190   121A      1.999939   122A      2.006497  
     123A      2.037764   124A      2.079581   125A      2.125630  
     126A      2.144145   127A      2.158942   128A      2.181639  
     129A      2.213622   130A      2.271055   131A      2.378548  
     132A      2.383031   133A      2.407523   134A      2.443464  
     135A      2.504006   136A      2.569302   137A      2.587086  
     138A      2.591649   139A      2.610618   140A      2.629674  
     141A      2.717584   142A      2.884013   143A      2.926637  
     144A      3.258268   145A      3.631975   146A      3.633547  
     147A      3.941266   148A      3.969828   149A      3.976342  
     150A      4.110823   151A      4.181470   152A      4.261038  
     153A      4.551373  

    Final Occupation by Irrep:
              A 
    DOCC [    32 ]

  Energy converged.

  @DF-RKS Final Energy:  -381.46261572850671

   => Energetics <=

    Nuclear Repulsion Energy =            416.0178670191943411
    One-Electron Energy =               -1327.3328857404642349
    Two-Electron Energy =                 574.2663717915966117
    DFT Exchange-Correlation Energy =     -44.4022324988334205
    Empirical Dispersion Energy =          -0.0117363000000000
    VV10 Nonlocal Energy =                  0.0000000000000000
    Total Energy =                       -381.4626157285067052



Properties will be evaluated at   0.000000,   0.000000,   0.000000 [a0]

Properties computed using the SCF density matrix

  Nuclear Dipole Moment: [e a0]
     X:    -0.0000      Y:    -0.0000      Z:     0.0248

  Electronic Dipole Moment: [e a0]
     X:    -0.0000      Y:     0.0000      Z:    -2.5570

  Dipole Moment: [e a0]
     X:    -0.0000      Y:     0.0000      Z:    -2.5322     Total:     2.5322

  Dipole Moment: [D]
     X:    -0.0000      Y:     0.0000      Z:    -6.4362     Total:     6.4362


*** tstop() called on rosa.prib.upf.edu at Sat Sep 29 20:51:28 2018
Module time:
	user time   =      99.67 seconds =       1.66 minutes
	system time =       0.98 seconds =       0.02 minutes
	total time  =         28 seconds =       0.47 minutes
Total time:
	user time   =      99.67 seconds =       1.66 minutes
	system time =       0.98 seconds =       0.02 minutes
	total time  =         28 seconds =       0.47 minutes

*** tstart() called on rosa.prib.upf.edu
*** at Sat Sep 29 20:51:28 2018


         ------------------------------------------------------------
                                   SCF GRAD                          
                          Rob Parrish, Justin Turney,                
                       Andy Simmonett, and Alex Sokolov              
         ------------------------------------------------------------

  ==> Geometry <==

    Molecular point group: c1
    Full point group: C1

    Geometry (in Angstrom), charge = 1, multiplicity = 1:

       Center              X                  Y                   Z               Mass       
    ------------   -----------------  -----------------  -----------------  -----------------
         C            0.000000000000     0.000000000000    -0.177864000000    12.000000000000
         C            0.036678000000     1.219374000000     0.524165000000    12.000000000000
         C            0.031765000000     1.213120000000     1.915444000000    12.000000000000
         C            0.000000000000     0.000000000000     2.610107000000    12.000000000000
         C           -0.031765000000    -1.213120000000     1.915444000000    12.000000000000
         C           -0.036678000000    -1.219375000000     0.524165000000    12.000000000000
         C            0.000000000000     0.000000000000    -1.644734000000    12.000000000000
         H            0.018170000000     2.164705000000    -0.010854000000     1.007825032070
         H            0.042402000000     2.152895000000     2.457886000000     1.007825032070
         H            0.000000000000     0.000000000000     3.695756000000     1.007825032070
         H           -0.042402000000    -2.152895000000     2.457886000000     1.007825032070
         H           -0.018170000000    -2.164705000000    -0.010853000000     1.007825032070
         N            1.070765000000    -0.426605000000    -2.308461000000    14.003074004780
         N           -1.070765000000     0.426605000000    -2.308460000000    14.003074004780
         H           -1.156065000000     0.360564000000    -3.315997000000     1.007825032070
         H           -1.815363000000     0.899563000000    -1.813316000000     1.007825032070
         H            1.815363000000    -0.899563000000    -1.813317000000     1.007825032070
         H            1.156065000000    -0.360563000000    -3.315997000000     1.007825032070

  Nuclear repulsion =  416.017867019194341

  ==> Basis Set <==

  Basis Set: 6-31G*
    Blend: 6-31G*
    Number of shells: 72
    Number of basis function: 153
    Number of Cartesian functions: 153
    Spherical Harmonics?: false
    Max angular momentum: 2

  ==> DFJKGrad: Density-Fitted SCF Gradients <==

    Gradient:                    1
    J tasked:                  Yes
    K tasked:                  Yes
    wK tasked:                  No
    OpenMP threads:              4
    Integrals threads:           4
    Memory (MB):              2002
    Schwarz Cutoff:          0E+00
    Fitting Condition:       1E-12

   => Auxiliary Basis Set <=

  Basis Set: (6-31G* AUX)
    Blend: CC-PVDZ-JKFIT
    Number of shells: 297
    Number of basis function: 954
    Number of Cartesian functions: 954
    Spherical Harmonics?: false
    Max angular momentum: 3

  ==> DFT Potential <==

   => Composite Functional: B3LYP-D3ZERO <= 

    B3LYP-d3zero Hyb-GGA Exchange-Correlation Functional

    P. J. Stephens, F. J. Devlin, C. F. Chabalowski, and M. J. Frisch, J. Phys. Chem. 98, 11623 (1994)

    Deriv               =              1
    GGA                 =           TRUE
    Meta                =          FALSE

    Exchange Hybrid     =           TRUE
    MP2 Hybrid          =          FALSE

   => Exchange Functionals <=

    0.0800   Slater exchange
    0.7200         Becke 88

   => Exact (HF) Exchange <=

    0.2000               HF 

   => Correlation Functionals <=

    0.1900   Vosko, Wilk & Nusair (VWN5_RPA)
    0.8100   Lee, Yang & Parr

   => Molecular Quadrature <=

    Radial Scheme       =       TREUTLER
    Pruning Scheme      =           FLAT
    Nuclear Scheme      =       TREUTLER

    BS radius alpha     =              1
    Pruning alpha       =              1
    Radial Points       =             75
    Spherical Points    =            302
    Total Points        =         397218
    Total Blocks        =           3004
    Max Points          =            256
    Max Functions       =            149


  -Total Gradient:
     Atom            X                  Y                   Z
    ------   -----------------  -----------------  -----------------
       1       -0.000000036895     0.000000554509    -0.014175724106
       2        0.007066146920     0.000466114081     0.004783445667
       3        0.000536711954     0.002403051131    -0.002064396156
       4       -0.000000000780    -0.000000045530     0.000110546992
       5       -0.000536707103    -0.002402827766    -0.002064300886
       6       -0.007066149243    -0.000467564599     0.004783054792
       7       -0.000000255118     0.000000094073     0.013896973660
       8       -0.002705125893     0.000054692541     0.000852613399
       9       -0.000755417200    -0.000127284601     0.000161177313
      10       -0.000000000181     0.000000005950     0.000026760788
      11        0.000755416246     0.000127252681     0.000161139704
      12        0.002705110956    -0.000053918097     0.000853086880
      13        0.005339068875     0.002830733200    -0.003096745190
      14       -0.005338692170    -0.002830825874    -0.003095583616
      15       -0.001131387311    -0.002950440142     0.001385683281
      16        0.002108040311     0.003065728963    -0.001953334276
      17       -0.002108067745    -0.003065718594    -0.001953300614
      18        0.001131344308     0.002950398107     0.001386480780


*** tstop() called on rosa.prib.upf.edu at Sat Sep 29 20:51:35 2018
Module time:
	user time   =      28.63 seconds =       0.48 minutes
	system time =       0.43 seconds =       0.01 minutes
	total time  =          7 seconds =       0.12 minutes
Total time:
	user time   =     128.35 seconds =       2.14 minutes
	system time =       1.41 seconds =       0.02 minutes
	total time  =         35 seconds =       0.58 minutes

			-----------------------------------------
			 OPTKING 2.0: for geometry optimizations 
			  - R.A. King,  Bethel University        
			-----------------------------------------
	At level 1: Red. Int., RFO, no backsteps, dynamic trust

	Internal coordinates to be generated automatically.
	Detected frag 1 with atoms:  1 2 3 4 5 6 7 8 9 10 11 12 13 14 15 16 17 18
	---Fragment 1 Bond Connectivity---
	 1 : 2 6 7
	 2 : 1 3 8
	 3 : 2 4 9
	 4 : 3 5 10
	 5 : 4 6 11
	 6 : 1 5 12
	 7 : 1 13 14
	 8 : 2
	 9 : 3
	 10 : 4
	 11 : 5
	 12 : 6
	 13 : 7 17 18
	 14 : 7 15 16
	 15 : 14
	 16 : 14
	 17 : 13
	 18 : 13

	Assuming in current code that numbering for constraints corresponds to unified fragment.
	Frozen dihedral atom list: 
	     2     1     7    13
	---Fragment 1 Geometry and Gradient---
	 C           0.0000000000        0.0000000000       -0.3361142489
	 C           0.0693113751        2.3042829136        0.9905282984
	 C           0.0600271506        2.2924645663        3.6196645829
	 C           0.0000000000        0.0000000000        4.9323874075
	 C          -0.0600271506       -2.2924645663        3.6196645829
	 C          -0.0693113751       -2.3042848033        0.9905282984
	 C           0.0000000000        0.0000000000       -3.1080968214
	 H           0.0343363238        4.0906996085       -0.0205110874
	 H           0.0801281675        4.0683819429        4.6447314059
	 H           0.0000000000        0.0000000000        6.9839666940
	 H          -0.0801281675       -4.0683819429        4.6447314059
	 H          -0.0343363238       -4.0906996085       -0.0205091977
	 N           2.0234526027       -0.8061666169       -4.3623590784
	 N          -2.0234526027        0.8061666169       -4.3623571887
	 H          -2.1846462418        0.6813672134       -6.2663261875
	 H          -3.4305389018        1.6999277093       -3.4266706324
	 H           3.4305389018       -1.6999277093       -3.4266725221
	 H           2.1846462418       -0.6813653237       -6.2663261875
	            -0.0000000369        0.0000005545       -0.0141757241
	             0.0070661469        0.0004661141        0.0047834457
	             0.0005367120        0.0024030511       -0.0020643962
	            -0.0000000008       -0.0000000455        0.0001105470
	            -0.0005367071       -0.0024028278       -0.0020643009
	            -0.0070661492       -0.0004675646        0.0047830548
	            -0.0000002551        0.0000000941        0.0138969737
	            -0.0027051259        0.0000546925        0.0008526134
	            -0.0007554172       -0.0001272846        0.0001611773
	            -0.0000000002        0.0000000060        0.0000267608
	             0.0007554162        0.0001272527        0.0001611397
	             0.0027051110       -0.0000539181        0.0008530869
	             0.0053390689        0.0028307332       -0.0030967452
	            -0.0053386922       -0.0028308259       -0.0030955836
	            -0.0011313873       -0.0029504401        0.0013856833
	             0.0021080403        0.0030657290       -0.0019533343
	            -0.0021080677       -0.0030657186       -0.0019533006
	             0.0011313443        0.0029503981        0.0013864808

	Previous optimization step data not found.  Starting new optimization.

	---Fragment 1 Intrafragment Coordinates---
	 - Coordinate -           - BOHR/RAD -       - ANG/DEG -
	 R(1,2)           =         2.659794	       1.407502
	 R(1,6)           =         2.659796	       1.407503
	 R(1,7)           =         2.771983	       1.466870
	 R(2,3)           =         2.629179	       1.391302
	 R(2,8)           =         2.052976	       1.086388
	 R(3,4)           =         2.642393	       1.398294
	 R(3,9)           =         2.050622	       1.085142
	 R(4,5)           =         2.642393	       1.398294
	 R(4,10)          =         2.051579	       1.085649
	 R(5,6)           =         2.629179	       1.391302
	 R(5,11)          =         2.050622	       1.085142
	 R(6,12)          =         2.052973	       1.086386
	 R(7,13)          =         2.513452	       1.330061
	 R(7,14)          =         2.513451	       1.330061
	 R(13,17)         =         1.911599	       1.011575
	 R(13,18)         =         1.914850	       1.013295
	 R(14,15)         =         1.914851	       1.013296
	 R(14,16)         =         1.911599	       1.011575
	 B(1,2,3)         =         2.088380	     119.655376
	 B(1,2,8)         =         2.103396	     120.515689
	 B(1,6,5)         =         2.088379	     119.655315
	 B(1,6,12)        =         2.103396	     120.515729
	 B(1,7,13)        =         2.093264	     119.935176
	 B(1,7,14)        =         2.093263	     119.935138
	 B(2,1,6)         =         2.097220	     120.161857
	 B(2,1,7)         =         2.092983	     119.919082
	 B(2,3,4)         =         2.095279	     120.050636
	 B(2,3,9)         =         2.089719	     119.732108
	 B(3,2,8)         =         2.090149	     119.756722
	 B(3,4,5)         =         2.101793	     120.423859
	 B(3,4,10)        =         2.090696	     119.788070
	 B(4,3,9)         =         2.098135	     120.214297
	 B(4,5,6)         =         2.095280	     120.050677
	 B(4,5,11)        =         2.098135	     120.214297
	 B(5,4,10)        =         2.090696	     119.788070
	 B(5,6,12)        =         2.090149	     119.756743
	 B(6,1,7)         =         2.092982	     119.919061
	 B(6,5,11)        =         2.089719	     119.732067
	 B(7,13,17)       =         2.092411	     119.886340
	 B(7,13,18)       =         2.144860	     122.891444
	 B(7,14,15)       =         2.144860	     122.891428
	 B(7,14,16)       =         2.092412	     119.886376
	 B(13,7,14)       =         2.096659	     120.129686
	 B(15,14,16)      =         2.043399	     117.078136
	 B(17,13,18)      =         2.043399	     117.078161
	 D(1,2,3,4)       =         0.007799	       0.446825
	 D(1,2,3,9)       =        -3.122896	    -178.928735
	 D(1,6,5,4)       =         0.007799	       0.446822
	 D(1,6,5,11)      =        -3.122896	    -178.928737
	 D(1,7,13,17)     =         0.187844	      10.762666
	 D(1,7,13,18)     =        -3.032164	    -173.730212
	 D(1,7,14,15)     =        -3.032165	    -173.730282
	 D(1,7,14,16)     =         0.187844	      10.762670
	 D(2,1,6,5)       =        -0.003906	      -0.223802
	 D(2,1,6,12)      =        -3.091437	    -177.126283
	*D(2,1,7,13)      =         1.919862	     110.000000
	 D(2,1,7,14)      =        -1.221730	     -70.000000
	 D(2,3,4,5)       =        -0.003942	      -0.225875
	 D(2,3,4,10)      =         3.137650	     179.774125
	 D(3,2,1,6)       =        -0.003906	      -0.223806
	 D(3,2,1,7)       =         3.137687	     179.776196
	 D(3,4,5,6)       =        -0.003942	      -0.225874
	 D(3,4,5,11)      =         3.126699	     179.146646
	 D(4,3,2,8)       =         3.095744	     177.373058
	 D(4,5,6,12)      =         3.095744	     177.373055
	 D(5,4,3,9)       =         3.126699	     179.146646
	 D(5,6,1,7)       =         3.137687	     179.776197
	 D(6,1,2,8)       =        -3.091437	    -177.126287
	 D(6,1,7,13)      =        -1.221730	     -69.999998
	 D(6,1,7,14)      =         1.919862	     110.000002
	 D(6,5,4,10)      =         3.137650	     179.774126
	 D(7,1,2,8)       =         0.050156	       2.873714
	 D(7,1,6,12)      =         0.050156	       2.873716
	 D(8,2,3,9)       =        -0.034950	      -2.002503
	 D(9,3,4,10)      =        -0.014894	      -0.853354
	 D(10,4,5,11)     =        -0.014894	      -0.853354
	 D(11,5,6,12)     =        -0.034950	      -2.002504
	 D(13,7,14,15)    =         0.109427	       6.269718
	 D(13,7,14,16)    =        -2.953749	    -169.237330
	 D(14,7,13,17)    =        -2.953749	    -169.237334
	 D(14,7,13,18)    =         0.109428	       6.269788

	Current energy   :      -381.4626157285

	Generating empirical Hessian (Schlegel '84) for each fragment.
	Taking RFO optimization step.
	Going to follow RFO solution 1.
	Using RFO vector 1.
	Norm of target step-size    0.39877
	Projected energy change by RFO approximation:        -0.0056098453

	Back-transformation to cartesian coordinates...
	Could not converge backtransformation.
	Using first guess instead.

	Back-transformation to cartesian coordinates to adjust frozen coordinates...
	Successfully converged to displaced geometry.

	--- Internal Coordinate Step in ANG or DEG, aJ/ANG or AJ/DEG ---
	 ---------------------------------------------------------------------------
	   Coordinate                Previous        Force       Change         New 
	   ----------                --------       ------       ------       ------
	    1 R(1,2)          =      1.407502    -0.030073    -0.004362     1.403140
	    2 R(1,6)          =      1.407503    -0.030080    -0.003855     1.403649
	    3 R(1,7)          =      1.466870     0.054138     0.009568     1.476438
	    4 R(2,3)          =      1.391302     0.015136     0.002303     1.393605
	    5 R(2,8)          =      1.086388     0.002687     0.001348     1.087736
	    6 R(3,4)          =      1.398294    -0.006665    -0.000720     1.397574
	    7 R(3,9)          =      1.085142     0.000305     0.000391     1.085533
	    8 R(4,5)          =      1.398294    -0.006668    -0.000780     1.397514
	    9 R(4,10)         =      1.085649    -0.000222     0.000014     1.085663
	   10 R(5,6)          =      1.391302     0.015129     0.002060     1.393362
	   11 R(5,11)         =      1.085142     0.000305     0.000104     1.085246
	   12 R(6,12)         =      1.086386     0.002695     0.001225     1.087612
	   13 R(7,13)         =      1.330061    -0.036819    -0.003749     1.326312
	   14 R(7,14)         =      1.330061    -0.036816    -0.003428     1.326632
	   15 R(13,17)        =      1.011575     0.008854     0.006679     1.018254
	   16 R(13,18)        =      1.013295     0.008989     0.004209     1.017504
	   17 R(14,15)        =      1.013296     0.008982     0.006810     1.020105
	   18 R(14,16)        =      1.011575     0.008854     0.006334     1.017909
	   19 B(1,2,3)        =    119.655376    -0.000115    -0.386329   119.269047
	   20 B(1,2,8)        =    120.515689     0.000004    -0.015261   120.500428
	   21 B(1,6,5)        =    119.655315    -0.000114    -0.385150   119.270165
	   22 B(1,6,12)       =    120.515729     0.000004    -0.074675   120.441055
	   23 B(1,7,13)       =    119.935176    -0.000165    -0.495751   119.439424
	   24 B(1,7,14)       =    119.935138    -0.000165    -0.499455   119.435683
	   25 B(2,1,6)        =    120.161857     0.000233     0.639516   120.801373
	   26 B(2,1,7)        =    119.919082    -0.000117    -0.321593   119.597488
	   27 B(2,3,4)        =    120.050636     0.000020     0.102938   120.153574
	   28 B(2,3,9)        =    119.732108    -0.000027    -0.107656   119.624452
	   29 B(3,2,8)        =    119.756722     0.000117     0.464177   120.220899
	   30 B(3,4,5)        =    120.423859    -0.000043    -0.083342   120.340518
	   31 B(3,4,10)       =    119.788070     0.000021     0.045201   119.833271
	   32 B(4,3,9)        =    120.214297     0.000007     0.006589   120.220886
	   33 B(4,5,6)        =    120.050677     0.000020     0.097360   120.148037
	   34 B(4,5,11)       =    120.214297     0.000007     0.028283   120.242579
	   35 B(5,4,10)       =    119.788070     0.000021     0.037642   119.825712
	   36 B(5,6,12)       =    119.756743     0.000116     0.517554   120.274297
	   37 B(6,1,7)        =    119.919061    -0.000117    -0.349301   119.569761
	   38 B(6,5,11)       =    119.732067    -0.000027    -0.122801   119.609265
	   39 B(7,13,17)      =    119.886340    -0.000096    -0.540862   119.345478
	   40 B(7,13,18)      =    122.891444     0.000061     0.182103   123.073547
	   41 B(7,14,15)      =    122.891428     0.000061     0.284604   123.176033
	   42 B(7,14,16)      =    119.886376    -0.000096    -0.763577   119.122799
	   43 B(13,7,14)      =    120.129686     0.000331     0.964873   121.094560
	   44 B(15,14,16)     =    117.078136     0.000038     0.550694   117.628830
	   45 B(17,13,18)     =    117.078161     0.000038     0.431052   117.509214
	   46 D(1,2,3,4)      =      0.446825    -0.000008    -1.002969    -0.556144
	   47 D(1,2,3,9)      =   -178.928735    -0.000014    -2.006014  -180.934750
	   48 D(1,6,5,4)      =      0.446822    -0.000011    -1.762187    -1.315365
	   49 D(1,6,5,11)     =   -178.928737    -0.000017    -2.511357  -181.440095
	   50 D(1,7,13,17)    =     10.762666    -0.000051    -6.385027     4.377639
	   51 D(1,7,13,18)    =   -173.730212    -0.000041    -5.051939  -178.782151
	   52 D(1,7,14,15)    =   -173.730282    -0.000052    -6.998344  -180.728626
	   53 D(1,7,14,16)    =     10.762670    -0.000063    -8.322154     2.440516
	   54 D(2,1,6,5)      =     -0.223802     0.000010     1.654522     1.430721
	   55 D(2,1,6,12)     =   -177.126283    -0.000021    -2.823473  -179.949756
	   56 *D(2,1,7,13)    =    110.000000    -0.000000     0.000000   110.000000
	   57 D(2,1,7,14)     =    -70.000000     0.000011     1.980952   -68.019047
	   58 D(2,3,4,5)      =     -0.225875     0.000006     0.893816     0.667940
	   59 D(2,3,4,10)     =    179.774125     0.000004     0.636302   180.410427
	   60 D(3,2,1,6)      =     -0.223806    -0.000000    -0.271780    -0.495586
	   61 D(3,2,1,7)      =    179.776196     0.000010     1.774459   181.550655
	   62 D(3,4,5,6)      =     -0.225874     0.000004     0.507407     0.281533
	   63 D(3,4,5,11)     =    179.146646     0.000009     1.260412   180.407058
	   64 D(4,3,2,8)      =    177.373058     0.000021     3.193674   180.566732
	   65 D(4,5,6,12)     =    177.373055     0.000018     2.689704   180.062760
	   66 D(5,4,3,9)      =    179.146646     0.000012     1.902174   181.048821
	   67 D(5,6,1,7)      =    179.776197    -0.000001    -0.391154   179.385043
	   68 D(6,1,2,8)      =   -177.126287    -0.000030    -4.495388  -181.621675
	   69 D(6,1,7,13)     =    -69.999998     0.000010     2.020801   -67.979197
	   70 D(6,1,7,14)     =    110.000002     0.000022     4.001753   114.001755
	   71 D(6,5,4,10)     =    179.774126     0.000005     0.764901   180.539026
	   72 D(7,1,2,8)      =      2.873714    -0.000019    -2.449149     0.424565
	   73 D(7,1,6,12)     =      2.873716    -0.000031    -4.869150    -1.995434
	   74 D(8,2,3,9)      =     -2.002503     0.000014     2.190629     0.188126
	   75 D(9,3,4,10)     =     -0.853354     0.000011     1.644661     0.791307
	   76 D(10,4,5,11)    =     -0.853354     0.000010     1.517906     0.664552
	   77 D(11,5,6,12)    =     -2.002504     0.000013     1.940534    -0.061970
	   78 D(13,7,14,15)   =      6.269718    -0.000041    -4.983697     1.286021
	   79 D(13,7,14,16)   =   -169.237330    -0.000051    -6.307507  -175.544837
	   80 D(14,7,13,17)   =   -169.237334    -0.000063    -8.399748  -177.637083
	   81 D(14,7,13,18)   =      6.269788    -0.000052    -7.066661    -0.796873
	 ---------------------------------------------------------------------------
	Successfully symmetrized geometry.

  ==> Convergence Check <==

  Measures of convergence in internal coordinates in au.
  Criteria marked as inactive (o), active & met (*), and active & unmet ( ).
  --------------------------------------------------------------------------------------------- ~
   Step     Total Energy     Delta E     MAX Force     RMS Force      MAX Disp      RMS Disp    ~
  --------------------------------------------------------------------------------------------- ~
    Convergence Criteria    1.00e-06 *    3.00e-04 *             o    1.20e-03 *             o  ~
  --------------------------------------------------------------------------------------------- ~
      1    -381.46261573   -3.81e+02      6.57e-03      1.83e-03 o    1.47e-01      4.42e-02 o  ~
  ---------------------------------------------------------------------------------------------

	Writing optimization data to binary file.
	Structure for next step:
	Cartesian Geometry (in Angstrom)
	    C    -0.0248254136  -0.0076160404  -0.1755157987
	    C     0.0035250960   1.2142784731   0.5136669363
	    C     0.0252723981   1.2102555513   1.9070962370
	    C     0.0070802104   0.0001274749   2.6060033093
	    C    -0.0189398482  -1.2140884575   1.9145940449
	    C    -0.0210074428  -1.2260917731   0.5212854339
	    C    -0.0132514978  -0.0125469462  -1.6519005287
	    H     0.0269431839   2.1552157491  -0.0315466384
	    H     0.0626383653   2.1518947405   2.4458921021
	    H     0.0174240959   0.0032113130   3.6916123715
	    H    -0.0396999927  -2.1527170554   2.4589326908
	    H    -0.0422642637  -2.1698426644  -0.0188823363
	    N     1.0658652293  -0.4396489345  -2.2939247167
	    N    -1.0671109014   0.4472018652  -2.3136898111
	    H    -1.1158156795   0.4803738717  -3.3320917911
	    H    -1.8517538214   0.8307339888  -1.7908353386
	    H     1.8453721121  -0.8207911078  -1.7610646118
	    H     1.1405481703  -0.4499500482  -3.3086315544
			--------------------------
			 OPTKING Finished Execution 
			--------------------------

    Structure for next step:
    Molecular point group: c1
    Full point group: C1

    Geometry (in Angstrom), charge = 1, multiplicity = 1:

    C           -0.024825413638    -0.007616040380    -0.175515798699
    C            0.003525095962     1.214278473061     0.513666936267
    C            0.025272398088     1.210255551260     1.907096236971
    C            0.007080210428     0.000127474853     2.606003309347
    C           -0.018939848243    -1.214088457534     1.914594044850
    C           -0.021007442836    -1.226091773115     0.521285433922
    C           -0.013251497795    -0.012546946191    -1.651900528680
    H            0.026943183947     2.155215749107    -0.031546638394
    H            0.062638365305     2.151894740508     2.445892102086
    H            0.017424095877     0.003211312972     3.691612371526
    H           -0.039699992701    -2.152717055423     2.458932690758
    H           -0.042264263747    -2.169842664373    -0.018882336343
    N            1.065865229298    -0.439648934500    -2.293924716666
    N           -1.067110901434     0.447201865249    -2.313689811103
    H           -1.115815679501     0.480373871707    -3.332091791064
    H           -1.851753821421     0.830733988788    -1.790835338565
    H            1.845372112099    -0.820791107832    -1.761064611796
    H            1.140548170313    -0.449950048156    -3.308631554416

gradient() will perform analytic gradient computation.

*** tstart() called on rosa.prib.upf.edu
*** at Sat Sep 29 20:51:36 2018

   => Loading Basis Set <=

    Name: 6-31G*
    Role: ORBITAL
    Keyword: BASIS
    atoms 1-7         entry C          line   111 file /shared/joao/test_parameterize/miniconda3/share/psi4/basis/6-31gs.gbs 
    atoms 8-12, 15-18 entry H          line    44 file /shared/joao/test_parameterize/miniconda3/share/psi4/basis/6-31gs.gbs 
    atoms 13-14       entry N          line   128 file /shared/joao/test_parameterize/miniconda3/share/psi4/basis/6-31gs.gbs 


         ---------------------------------------------------------
                                   SCF
            by Justin Turney, Rob Parrish, Andy Simmonett
                             and Daniel Smith
                              RKS Reference
                        4 Threads,   2861 MiB Core
         ---------------------------------------------------------

  ==> Geometry <==

    Molecular point group: c1
    Full point group: C1

    Geometry (in Angstrom), charge = 1, multiplicity = 1:

       Center              X                  Y                   Z               Mass       
    ------------   -----------------  -----------------  -----------------  -----------------
         C           -0.024825413638    -0.007616040380    -0.175515798699    12.000000000000
         C            0.003525095962     1.214278473061     0.513666936267    12.000000000000
         C            0.025272398088     1.210255551260     1.907096236971    12.000000000000
         C            0.007080210428     0.000127474853     2.606003309347    12.000000000000
         C           -0.018939848243    -1.214088457534     1.914594044850    12.000000000000
         C           -0.021007442836    -1.226091773115     0.521285433922    12.000000000000
         C           -0.013251497795    -0.012546946191    -1.651900528680    12.000000000000
         H            0.026943183947     2.155215749107    -0.031546638394     1.007825032070
         H            0.062638365305     2.151894740508     2.445892102086     1.007825032070
         H            0.017424095877     0.003211312972     3.691612371526     1.007825032070
         H           -0.039699992701    -2.152717055423     2.458932690758     1.007825032070
         H           -0.042264263747    -2.169842664373    -0.018882336343     1.007825032070
         N            1.065865229298    -0.439648934500    -2.293924716666    14.003074004780
         N           -1.067110901434     0.447201865249    -2.313689811103    14.003074004780
         H           -1.115815679501     0.480373871707    -3.332091791064     1.007825032070
         H           -1.851753821421     0.830733988788    -1.790835338565     1.007825032070
         H            1.845372112099    -0.820791107832    -1.761064611796     1.007825032070
         H            1.140548170313    -0.449950048156    -3.308631554416     1.007825032070

  Running in c1 symmetry.

  Rotational constants: A =      0.12178  B =      0.03756  C =      0.03285 [cm^-1]
  Rotational constants: A =   3651.01051  B =   1125.97763  C =    984.94405 [MHz]
  Nuclear repulsion =  416.216848374507606

  Charge       = 1
  Multiplicity = 1
  Electrons    = 64
  Nalpha       = 32
  Nbeta        = 32

  ==> Algorithm <==

  SCF Algorithm Type is DF.
  DIIS enabled.
  MOM disabled.
  Fractional occupation disabled.
  Guess Type is READ.
  Energy threshold   = 1.00e-08
  Density threshold  = 1.00e-08
  Integral threshold = 0.00e+00

  ==> Primary Basis <==

  Basis Set: 6-31G*
    Blend: 6-31G*
    Number of shells: 72
    Number of basis function: 153
    Number of Cartesian functions: 153
    Spherical Harmonics?: false
    Max angular momentum: 2

  ==> DFT Potential <==

   => Composite Functional: B3LYP-D3ZERO <= 

    B3LYP-d3zero Hyb-GGA Exchange-Correlation Functional

    P. J. Stephens, F. J. Devlin, C. F. Chabalowski, and M. J. Frisch, J. Phys. Chem. 98, 11623 (1994)

    Deriv               =              1
    GGA                 =           TRUE
    Meta                =          FALSE

    Exchange Hybrid     =           TRUE
    MP2 Hybrid          =          FALSE

   => Exchange Functionals <=

    0.0800   Slater exchange
    0.7200         Becke 88

   => Exact (HF) Exchange <=

    0.2000               HF 

   => Correlation Functionals <=

    0.1900   Vosko, Wilk & Nusair (VWN5_RPA)
    0.8100   Lee, Yang & Parr

   => Molecular Quadrature <=

    Radial Scheme       =       TREUTLER
    Pruning Scheme      =           FLAT
    Nuclear Scheme      =       TREUTLER

    BS radius alpha     =              1
    Pruning alpha       =              1
    Radial Points       =             75
    Spherical Points    =            302
    Total Points        =         397224
    Total Blocks        =           2999
    Max Points          =            256
    Max Functions       =            151

   => -D3ZERO: Empirical Dispersion <=

    Grimme's -D3 (zero-damping) Dispersion Correction
    Grimme S.; Antony J.; Ehrlich S.; Krieg H. (2010), J. Chem. Phys., 132: 154104

        S6 =   1.000000E+00
        S8 =   1.703000E+00
       SR6 =   1.261000E+00
       SR8 =   1.000000E+00
    ALPHA6 =   1.400000E+01

   => Loading Basis Set <=

    Name: (6-31G* AUX)
    Role: JKFIT
    Keyword: DF_BASIS_SCF
    atoms 1-7         entry C          line   121 file /shared/joao/test_parameterize/miniconda3/share/psi4/basis/cc-pvdz-jkfit.gbs 
    atoms 8-12, 15-18 entry H          line    51 file /shared/joao/test_parameterize/miniconda3/share/psi4/basis/cc-pvdz-jkfit.gbs 
    atoms 13-14       entry N          line   171 file /shared/joao/test_parameterize/miniconda3/share/psi4/basis/cc-pvdz-jkfit.gbs 

  Reading orbitals from file 180, no projection.

  ==> Pre-Iterations <==

   -------------------------------------------------------
    Irrep   Nso     Nmo     Nalpha   Nbeta   Ndocc  Nsocc
   -------------------------------------------------------
     A        153     153       0       0       0       0
   -------------------------------------------------------
    Total     153     153      32      32      32       0
   -------------------------------------------------------

  ==> Integral Setup <==

  ==> DiskDFJK: Density-Fitted J/K Matrices <==

    J tasked:                  Yes
    K tasked:                  Yes
    wK tasked:                  No
    OpenMP threads:              4
    Integrals threads:           4
    Memory (MB):              2002
    Algorithm:                Core
    Integral Cache:           NONE
    Schwarz Cutoff:          1E-12
    Fitting Condition:       1E-12

   => Auxiliary Basis Set <=

  Basis Set: (6-31G* AUX)
    Blend: CC-PVDZ-JKFIT
    Number of shells: 297
    Number of basis function: 954
    Number of Cartesian functions: 954
    Spherical Harmonics?: false
    Max angular momentum: 3

  Minimum eigenvalue in the overlap matrix is 4.8587030849E-04.
  Using Symmetric Orthogonalization.

  SCF Guess: Orbitals guess was supplied from a previous computation.

  ==> Iterations <==

                           Total Energy        Delta E     RMS |[F,P]|

   @DF-RKS iter   0:  -381.45201390487682   -3.81452e+02   1.28252e-03 
   @DF-RKS iter   1:  -381.46534378433392   -1.33299e-02   1.44422e-04 
   @DF-RKS iter   2:  -381.46535518926237   -1.14049e-05   1.64525e-04 DIIS
   @DF-RKS iter   3:  -381.46543533233819   -8.01431e-05   5.71559e-05 DIIS
   @DF-RKS iter   4:  -381.46544507590329   -9.74357e-06   1.91219e-05 DIIS
   @DF-RKS iter   5:  -381.46544609869699   -1.02279e-06   5.74036e-06 DIIS
   @DF-RKS iter   6:  -381.46544619958644   -1.00889e-07   1.23736e-06 DIIS
   @DF-RKS iter   7:  -381.46544620355854   -3.97210e-09   4.06171e-07 DIIS
   @DF-RKS iter   8:  -381.46544620397714   -4.18595e-10   1.46552e-07 DIIS
   @DF-RKS iter   9:  -381.46544620402972   -5.25802e-11   4.83361e-08 DIIS
   @DF-RKS iter  10:  -381.46544620403648   -6.76437e-12   9.95378e-09 DIIS

  ==> Post-Iterations <==

    Orbital Energies [Eh]
    ---------------------

    Doubly Occupied:                                                      

       1A    -14.575451     2A    -14.575390     3A    -10.502172  
       4A    -10.369259     5A    -10.350532     6A    -10.350179  
       7A    -10.335184     8A    -10.334875     9A    -10.334372  
      10A     -1.188543    11A     -1.096435    12A     -1.009955  
      13A     -0.923120    14A     -0.896283    15A     -0.844364  
      16A     -0.787147    17A     -0.766628    18A     -0.751226  
      19A     -0.728737    20A     -0.689130    21A     -0.667360  
      22A     -0.622947    23A     -0.618042    24A     -0.579183  
      25A     -0.574351    26A     -0.568363    27A     -0.515831  
      28A     -0.499028    29A     -0.492577    30A     -0.477490  
      31A     -0.405626    32A     -0.399696  

    Virtual:                                                              

      33A     -0.201252    34A     -0.156019    35A     -0.150956  
      36A     -0.114428    37A     -0.068981    38A     -0.066371  
      39A     -0.037018    40A     -0.032707    41A      0.008499  
      42A      0.015103    43A      0.023619    44A      0.058071  
      45A      0.059003    46A      0.073939    47A      0.140785  
      48A      0.143574    49A      0.163403    50A      0.179514  
      51A      0.200099    52A      0.223347    53A      0.293237  
      54A      0.342707    55A      0.357729    56A      0.382931  
      57A      0.388666    58A      0.398845    59A      0.406138  
      60A      0.426483    61A      0.446035    62A      0.450412  
      63A      0.451238    64A      0.466155    65A      0.476145  
      66A      0.480356    67A      0.483181    68A      0.500175  
      69A      0.514343    70A      0.534114    71A      0.551934  
      72A      0.573810    73A      0.590621    74A      0.645825  
      75A      0.662147    76A      0.676639    77A      0.679204  
      78A      0.688406    79A      0.700109    80A      0.710534  
      81A      0.730224    82A      0.751772    83A      0.778916  
      84A      0.792731    85A      0.813036    86A      0.834077  
      87A      0.852823    88A      0.939509    89A      0.969674  
      90A      1.004478    91A      1.019337    92A      1.026647  
      93A      1.032657    94A      1.080932    95A      1.143751  
      96A      1.199172    97A      1.202348    98A      1.288816  
      99A      1.298103   100A      1.323451   101A      1.330355  
     102A      1.349712   103A      1.360616   104A      1.382342  
     105A      1.442746   106A      1.445754   107A      1.496860  
     108A      1.589042   109A      1.618753   110A      1.660557  
     111A      1.667622   112A      1.740717   113A      1.765093  
     114A      1.795293   115A      1.826389   116A      1.852075  
     117A      1.898015   118A      1.913167   119A      1.966281  
     120A      1.986897   121A      2.001527   122A      2.003867  
     123A      2.041739   124A      2.090392   125A      2.127949  
     126A      2.137773   127A      2.155947   128A      2.168360  
     129A      2.222229   130A      2.273478   131A      2.375458  
     132A      2.387025   133A      2.410724   134A      2.445459  
     135A      2.503689   136A      2.568366   137A      2.583395  
     138A      2.592978   139A      2.602993   140A      2.631303  
     141A      2.718889   142A      2.886086   143A      2.928332  
     144A      3.260640   145A      3.632438   146A      3.639232  
     147A      3.941322   148A      3.969239   149A      3.975226  
     150A      4.104199   151A      4.182849   152A      4.261257  
     153A      4.551796  

    Final Occupation by Irrep:
              A 
    DOCC [    32 ]

  Energy converged.

  @DF-RKS Final Energy:  -381.46544620403648

   => Energetics <=

    Nuclear Repulsion Energy =            416.2168483745076060
    One-Electron Energy =               -1327.7645110261707941
    Two-Electron Energy =                 574.4905874490036695
    DFT Exchange-Correlation Energy =     -44.3966000013770241
    Empirical Dispersion Energy =          -0.0117710000000000
    VV10 Nonlocal Energy =                  0.0000000000000000
    Total Energy =                       -381.4654462040364820



Properties will be evaluated at   0.000000,   0.000000,   0.000000 [a0]

Properties computed using the SCF density matrix

  Nuclear Dipole Moment: [e a0]
     X:    -0.4124      Y:    -0.2515      Z:    -0.1673

  Electronic Dipole Moment: [e a0]
     X:     0.4263      Y:     0.2616      Z:    -2.3383

  Dipole Moment: [e a0]
     X:     0.0139      Y:     0.0101      Z:    -2.5056     Total:     2.5057

  Dipole Moment: [D]
     X:     0.0354      Y:     0.0256      Z:    -6.3687     Total:     6.3688


*** tstop() called on rosa.prib.upf.edu at Sat Sep 29 20:51:57 2018
Module time:
	user time   =      76.26 seconds =       1.27 minutes
	system time =       0.61 seconds =       0.01 minutes
	total time  =         21 seconds =       0.35 minutes
Total time:
	user time   =     205.49 seconds =       3.42 minutes
	system time =       2.06 seconds =       0.03 minutes
	total time  =         57 seconds =       0.95 minutes

*** tstart() called on rosa.prib.upf.edu
*** at Sat Sep 29 20:51:57 2018


         ------------------------------------------------------------
                                   SCF GRAD                          
                          Rob Parrish, Justin Turney,                
                       Andy Simmonett, and Alex Sokolov              
         ------------------------------------------------------------

  ==> Geometry <==

    Molecular point group: c1
    Full point group: C1

    Geometry (in Angstrom), charge = 1, multiplicity = 1:

       Center              X                  Y                   Z               Mass       
    ------------   -----------------  -----------------  -----------------  -----------------
         C           -0.024825413638    -0.007616040380    -0.175515798699    12.000000000000
         C            0.003525095962     1.214278473061     0.513666936267    12.000000000000
         C            0.025272398088     1.210255551260     1.907096236971    12.000000000000
         C            0.007080210428     0.000127474853     2.606003309347    12.000000000000
         C           -0.018939848243    -1.214088457534     1.914594044850    12.000000000000
         C           -0.021007442836    -1.226091773115     0.521285433922    12.000000000000
         C           -0.013251497795    -0.012546946191    -1.651900528680    12.000000000000
         H            0.026943183947     2.155215749107    -0.031546638394     1.007825032070
         H            0.062638365305     2.151894740508     2.445892102086     1.007825032070
         H            0.017424095877     0.003211312972     3.691612371526     1.007825032070
         H           -0.039699992701    -2.152717055423     2.458932690758     1.007825032070
         H           -0.042264263747    -2.169842664373    -0.018882336343     1.007825032070
         N            1.065865229298    -0.439648934500    -2.293924716666    14.003074004780
         N           -1.067110901434     0.447201865249    -2.313689811103    14.003074004780
         H           -1.115815679501     0.480373871707    -3.332091791064     1.007825032070
         H           -1.851753821421     0.830733988788    -1.790835338565     1.007825032070
         H            1.845372112099    -0.820791107832    -1.761064611796     1.007825032070
         H            1.140548170313    -0.449950048156    -3.308631554416     1.007825032070

  Nuclear repulsion =  416.216848374507606

  ==> Basis Set <==

  Basis Set: 6-31G*
    Blend: 6-31G*
    Number of shells: 72
    Number of basis function: 153
    Number of Cartesian functions: 153
    Spherical Harmonics?: false
    Max angular momentum: 2

  ==> DFJKGrad: Density-Fitted SCF Gradients <==

    Gradient:                    1
    J tasked:                  Yes
    K tasked:                  Yes
    wK tasked:                  No
    OpenMP threads:              4
    Integrals threads:           4
    Memory (MB):              2002
    Schwarz Cutoff:          0E+00
    Fitting Condition:       1E-12

   => Auxiliary Basis Set <=

  Basis Set: (6-31G* AUX)
    Blend: CC-PVDZ-JKFIT
    Number of shells: 297
    Number of basis function: 954
    Number of Cartesian functions: 954
    Spherical Harmonics?: false
    Max angular momentum: 3

  ==> DFT Potential <==

   => Composite Functional: B3LYP-D3ZERO <= 

    B3LYP-d3zero Hyb-GGA Exchange-Correlation Functional

    P. J. Stephens, F. J. Devlin, C. F. Chabalowski, and M. J. Frisch, J. Phys. Chem. 98, 11623 (1994)

    Deriv               =              1
    GGA                 =           TRUE
    Meta                =          FALSE

    Exchange Hybrid     =           TRUE
    MP2 Hybrid          =          FALSE

   => Exchange Functionals <=

    0.0800   Slater exchange
    0.7200         Becke 88

   => Exact (HF) Exchange <=

    0.2000               HF 

   => Correlation Functionals <=

    0.1900   Vosko, Wilk & Nusair (VWN5_RPA)
    0.8100   Lee, Yang & Parr

   => Molecular Quadrature <=

    Radial Scheme       =       TREUTLER
    Pruning Scheme      =           FLAT
    Nuclear Scheme      =       TREUTLER

    BS radius alpha     =              1
    Pruning alpha       =              1
    Radial Points       =             75
    Spherical Points    =            302
    Total Points        =         397224
    Total Blocks        =           2999
    Max Points          =            256
    Max Functions       =            151


  -Total Gradient:
     Atom            X                  Y                   Z
    ------   -----------------  -----------------  -----------------
       1       -0.002056744778     0.001871543704    -0.003048355823
       2        0.002520851346    -0.001502284396     0.001170130396
       3       -0.000113198856     0.000078124810    -0.000426031315
       4       -0.000119612813    -0.000090882328     0.000413740073
       5        0.000071354133     0.000061422883    -0.000342030093
       6       -0.000821036250     0.000792273626     0.001140260158
       7       -0.000759216247    -0.004296125896     0.004252179456
       8        0.000091651253     0.000778546382    -0.000268267507
       9        0.000220777578     0.000101810682     0.000153747692
      10        0.000045107491    -0.000012788996     0.000074395936
      11       -0.000226401049     0.000035579801    -0.000014480898
      12        0.000179058634    -0.000660658579    -0.000318998162
      13       -0.000783161978     0.005699198495    -0.001120363591
      14        0.001030526248    -0.003426955875     0.000550459840
      15       -0.000056079399    -0.001489294465    -0.004900113755
      16       -0.002499330009     0.003617304628     0.002727509729
      17        0.003185765954    -0.003305764402     0.002552333300
      18        0.000088028420     0.001743469352    -0.002594441285


*** tstop() called on rosa.prib.upf.edu at Sat Sep 29 20:52:04 2018
Module time:
	user time   =      27.50 seconds =       0.46 minutes
	system time =       0.35 seconds =       0.01 minutes
	total time  =          7 seconds =       0.12 minutes
Total time:
	user time   =     233.06 seconds =       3.88 minutes
	system time =       2.42 seconds =       0.04 minutes
	total time  =         64 seconds =       1.07 minutes

			-----------------------------------------
			 OPTKING 2.0: for geometry optimizations 
			  - R.A. King,  Bethel University        
			-----------------------------------------
	At level 1: Red. Int., RFO, no backsteps, dynamic trust

	Previous internal coordinate definitions found.
	---Fragment 1 Geometry and Gradient---
	 C          -0.0469132329       -0.0143922305       -0.3316767915
	 C           0.0066614660        2.2946537631        0.9706898331
	 C           0.0477579111        2.2870515427        3.6038895969
	 C           0.0133796587        0.0002408926        4.9246325561
	 C          -0.0357911262       -2.2942946858        3.6180584004
	 C          -0.0396983137       -2.3169776650        0.9850867072
	 C          -0.0250417017       -0.0237102921       -3.1216395980
	 H           0.0509152388        4.0727675231       -0.0596145070
	 H           0.1183693558        4.0664917264        4.6220662235
	 H           0.0329267693        0.0060685020        6.9761363710
	 H          -0.0750221137       -4.0680456763        4.6467093647
	 H          -0.0798678837       -4.1004083871       -0.0356824444
	 N           2.0141933779       -0.8308160808       -4.3348894840
	 N          -2.0165473571        0.8450890514       -4.3722400994
	 H          -2.1085860490        0.9077750589       -6.2967409347
	 H          -3.4993075880        1.5698597281       -3.3841883390
	 H           3.4872479051       -1.5510704061       -3.3279298186
	 H           2.1553236833       -0.8502823645       -6.2524075125
	            -0.0020567448        0.0018715437       -0.0030483558
	             0.0025208513       -0.0015022844        0.0011701304
	            -0.0001131989        0.0000781248       -0.0004260313
	            -0.0001196128       -0.0000908823        0.0004137401
	             0.0000713541        0.0000614229       -0.0003420301
	            -0.0008210363        0.0007922736        0.0011402602
	            -0.0007592162       -0.0042961259        0.0042521795
	             0.0000916513        0.0007785464       -0.0002682675
	             0.0002207776        0.0001018107        0.0001537477
	             0.0000451075       -0.0000127890        0.0000743959
	            -0.0002264010        0.0000355798       -0.0000144809
	             0.0001790586       -0.0006606586       -0.0003189982
	            -0.0007831620        0.0056991985       -0.0011203636
	             0.0010305262       -0.0034269559        0.0005504598
	            -0.0000560794       -0.0014892945       -0.0049001138
	            -0.0024993300        0.0036173046        0.0027275097
	             0.0031857660       -0.0033057644        0.0025523333
	             0.0000880284        0.0017434694       -0.0025944413

	---Fragment 1 Intrafragment Coordinates---
	 - Coordinate -           - BOHR/RAD -       - ANG/DEG -
	 R(1,2)           =         2.651551	       1.403140
	 R(1,6)           =         2.652512	       1.403649
	 R(1,7)           =         2.790064	       1.476438
	 R(2,3)           =         2.633531	       1.393605
	 R(2,8)           =         2.055523	       1.087736
	 R(3,4)           =         2.641031	       1.397574
	 R(3,9)           =         2.051360	       1.085533
	 R(4,5)           =         2.640918	       1.397514
	 R(4,10)          =         2.051605	       1.085663
	 R(5,6)           =         2.633072	       1.393362
	 R(5,11)          =         2.050818	       1.085246
	 R(6,12)          =         2.055288	       1.087612
	 R(7,13)          =         2.506367	       1.326312
	 R(7,14)          =         2.506972	       1.326632
	 R(13,17)         =         1.924220	       1.018254
	 R(13,18)         =         1.922803	       1.017504
	 R(14,15)         =         1.927720	       1.020105
	 R(14,16)         =         1.923569	       1.017909
	 B(1,2,3)         =         2.081638	     119.269047
	 B(1,2,8)         =         2.103129	     120.500428
	 B(1,6,5)         =         2.081657	     119.270165
	 B(1,6,12)        =         2.102093	     120.441055
	 B(1,7,13)        =         2.084611	     119.439424
	 B(1,7,14)        =         2.084546	     119.435683
	 B(2,1,6)         =         2.108382	     120.801373
	 B(2,1,7)         =         2.087370	     119.597488
	 B(2,3,4)         =         2.097075	     120.153574
	 B(2,3,9)         =         2.087841	     119.624452
	 B(3,2,8)         =         2.098251	     120.220899
	 B(3,4,5)         =         2.100338	     120.340518
	 B(3,4,10)        =         2.091485	     119.833271
	 B(4,3,9)         =         2.098250	     120.220886
	 B(4,5,6)         =         2.096979	     120.148037
	 B(4,5,11)        =         2.098629	     120.242579
	 B(5,4,10)        =         2.091353	     119.825712
	 B(5,6,12)        =         2.099182	     120.274297
	 B(6,1,7)         =         2.086886	     119.569761
	 B(6,5,11)        =         2.087575	     119.609265
	 B(7,13,17)       =         2.082972	     119.345478
	 B(7,13,18)       =         2.148039	     123.073547
	 B(7,14,15)       =         2.149827	     123.176033
	 B(7,14,16)       =         2.079085	     119.122799
	 B(13,7,14)       =         2.113499	     121.094560
	 B(15,14,16)      =         2.053010	     117.628830
	 B(17,13,18)      =         2.050923	     117.509214
	 D(1,2,3,4)       =        -0.009707	      -0.556144
	 D(1,2,3,9)       =         3.125278	     179.065250
	 D(1,6,5,4)       =        -0.022957	      -1.315365
	 D(1,6,5,11)      =         3.116458	     178.559905
	 D(1,7,13,17)     =         0.076404	       4.377639
	 D(1,7,13,18)     =        -3.120337	    -178.782151
	 D(1,7,14,15)     =         3.128876	     179.271374
	 D(1,7,14,16)     =         0.042595	       2.440516
	 D(2,1,6,5)       =         0.024971	       1.430721
	 D(2,1,6,12)      =        -3.140716	    -179.949756
	*D(2,1,7,13)      =         1.919862	     110.000000
	 D(2,1,7,14)      =        -1.187156	     -68.019047
	 D(2,3,4,5)       =         0.011658	       0.667940
	 D(2,3,4,10)      =        -3.134429	    -179.589573
	 D(3,2,1,6)       =        -0.008650	      -0.495586
	 D(3,2,1,7)       =        -3.114529	    -178.449345
	 D(3,4,5,6)       =         0.004914	       0.281533
	 D(3,4,5,11)      =        -3.134488	    -179.592942
	 D(4,3,2,8)       =        -3.131701	    -179.433268
	 D(4,5,6,12)      =        -3.140497	    -179.937240
	 D(5,4,3,9)       =        -3.123287	    -178.951179
	 D(5,6,1,7)       =         3.130860	     179.385043
	 D(6,1,2,8)       =         3.113289	     178.378325
	 D(6,1,7,13)      =        -1.186461	     -67.979197
	 D(6,1,7,14)      =         1.989706	     114.001755
	 D(6,5,4,10)      =        -3.132185	    -179.460974
	 D(7,1,2,8)       =         0.007410	       0.424565
	 D(7,1,6,12)      =        -0.034827	      -1.995434
	 D(8,2,3,9)       =         0.003283	       0.188126
	 D(9,3,4,10)      =         0.013811	       0.791307
	 D(10,4,5,11)     =         0.011599	       0.664552
	 D(11,5,6,12)     =        -0.001082	      -0.061970
	 D(13,7,14,15)    =         0.022445	       1.286021
	 D(13,7,14,16)    =        -3.063835	    -175.544837
	 D(14,7,13,17)    =        -3.100352	    -177.637083
	 D(14,7,13,18)    =        -0.013908	      -0.796873

	Current energy   :      -381.4654462040

	Energy change for the previous step:
		Projected    :        -0.0056098453
		Actual       :        -0.0028304755

	Performing BFGS update.
	Previous computed or guess Hessian on step 1.
	Steps to be used in Hessian update: 1
	Taking RFO optimization step.
	Going to follow RFO solution 1.
	Using RFO vector 1.
	Norm of target step-size    0.29365
	Projected energy change by RFO approximation:         0.0001538052

	Back-transformation to cartesian coordinates...
	Could not converge backtransformation.
	Using first guess instead.

	Back-transformation to cartesian coordinates to adjust frozen coordinates...
	Successfully converged to displaced geometry.

	--- Internal Coordinate Step in ANG or DEG, aJ/ANG or AJ/DEG ---
	 ---------------------------------------------------------------------------
	   Coordinate                Previous        Force       Change         New 
	   ----------                --------       ------       ------       ------
	    1 R(1,2)          =      1.403140    -0.001251    -0.000727     1.402413
	    2 R(1,6)          =      1.403649    -0.002984    -0.000641     1.403007
	    3 R(1,7)          =      1.476438     0.012032     0.004451     1.480889
	    4 R(2,3)          =      1.393605     0.000068     0.000499     1.394104
	    5 R(2,8)          =      1.087736    -0.006673    -0.001146     1.086590
	    6 R(3,4)          =      1.397574    -0.000011     0.000054     1.397627
	    7 R(3,9)          =      1.085533    -0.001419    -0.000170     1.085362
	    8 R(4,5)          =      1.397514     0.000920     0.000092     1.397606
	    9 R(4,10)         =      1.085663    -0.000615    -0.000029     1.085634
	   10 R(5,6)          =      1.393362     0.001109     0.000703     1.394065
	   11 R(5,11)         =      1.085246     0.000279     0.000350     1.085596
	   12 R(6,12)         =      1.087612    -0.005999    -0.001061     1.086551
	   13 R(7,13)         =      1.326312    -0.010358    -0.001573     1.324739
	   14 R(7,14)         =      1.326632    -0.012940    -0.001469     1.325163
	   15 R(13,17)        =      1.018254    -0.041289    -0.003233     1.015020
	   16 R(13,18)        =      1.017504    -0.021225    -0.000145     1.017359
	   17 R(14,15)        =      1.020105    -0.039927    -0.001460     1.018645
	   18 R(14,16)        =      1.017909    -0.038643    -0.000959     1.016950
	   19 B(1,2,3)        =    119.269047    -0.000039    -0.216628   119.052419
	   20 B(1,2,8)        =    120.500428     0.000007     0.004275   120.504703
	   21 B(1,6,5)        =    119.270165    -0.000034    -0.182213   119.087952
	   22 B(1,6,12)       =    120.441055     0.000013     0.008897   120.449952
	   23 B(1,7,13)       =    119.439424    -0.000078    -0.410552   119.028873
	   24 B(1,7,14)       =    119.435683    -0.000081    -0.411346   119.024338
	   25 B(2,1,6)        =    120.801373     0.000069     0.331923   121.133296
	   26 B(2,1,7)        =    119.597488    -0.000067    -0.364216   119.233272
	   27 B(2,3,4)        =    120.153574    -0.000008    -0.012701   120.140873
	   28 B(2,3,9)        =    119.624452    -0.000003    -0.035396   119.589056
	   29 B(3,2,8)        =    120.220899     0.000032     0.216683   120.437582
	   30 B(3,4,5)        =    120.340518     0.000028     0.124725   120.465243
	   31 B(3,4,10)       =    119.833271    -0.000015    -0.062033   119.771238
	   32 B(4,3,9)        =    120.220886     0.000010     0.047448   120.268334
	   33 B(4,5,6)        =    120.148037    -0.000016    -0.060929   120.087108
	   34 B(4,5,11)       =    120.242579     0.000008     0.031509   120.274089
	   35 B(5,4,10)       =    119.825712    -0.000013    -0.063191   119.762522
	   36 B(5,6,12)       =    120.274297     0.000021     0.170501   120.444798
	   37 B(6,1,7)        =    119.569761    -0.000003    -0.120388   119.449372
	   38 B(6,5,11)       =    119.609265     0.000008     0.029491   119.638757
	   39 B(7,13,17)      =    119.345478    -0.000033    -0.430321   118.915157
	   40 B(7,13,18)      =    123.073547     0.000073     0.435476   123.509023
	   41 B(7,14,15)      =    123.176033     0.000058     0.472730   123.648763
	   42 B(7,14,16)      =    119.122799     0.000006    -0.483744   118.639055
	   43 B(13,7,14)      =    121.094560     0.000159     0.793092   121.887651
	   44 B(15,14,16)     =    117.628830    -0.000062     0.078578   117.707408
	   45 B(17,13,18)     =    117.509214    -0.000039     0.003337   117.512551
	   46 D(1,2,3,4)      =     -0.556144     0.000003     0.858951     0.302807
	   47 D(1,2,3,9)      =    179.065250     0.000003     0.759327   179.824577
	   48 D(1,6,5,4)      =     -1.315365     0.000001    -0.024044    -1.339409
	   49 D(1,6,5,11)     =    178.559905     0.000002     0.179067   178.738972
	   50 D(1,7,13,17)    =      4.377639    -0.000022    -4.729850    -0.352211
	   51 D(1,7,13,18)    =   -178.782151    -0.000021    -4.538176  -183.320327
	   52 D(1,7,14,15)    =    179.271374    -0.000021    -4.838496   174.432878
	   53 D(1,7,14,16)    =      2.440516    -0.000033    -7.193444    -4.752928
	   54 D(2,1,6,5)      =      1.430721     0.000002     0.806890     2.237611
	   55 D(2,1,6,12)     =   -179.949756     0.000003     0.681255  -179.268501
	   56 *D(2,1,7,13)    =    110.000000    -0.000000     0.000000   110.000000
	   57 D(2,1,7,14)     =    -68.019047     0.000001     0.762208   -67.256840
	   58 D(2,3,4,5)      =      0.667940    -0.000001    -0.100493     0.567447
	   59 D(2,3,4,10)     =   -179.589573    -0.000001    -0.207120  -179.796693
	   60 D(3,2,1,6)      =     -0.495586    -0.000004    -1.223157    -1.718742
	   61 D(3,2,1,7)      =   -178.449345     0.000005     1.688585  -176.760760
	   62 D(3,4,5,6)      =      0.281533    -0.000001    -0.321674    -0.040141
	   63 D(3,4,5,11)     =   -179.592942    -0.000002    -0.526083  -180.119025
	   64 D(4,3,2,8)      =   -179.433268     0.000002     0.568990  -178.864278
	   65 D(4,5,6,12)     =   -179.937240     0.000000     0.103864  -179.833377
	   66 D(5,4,3,9)      =   -178.951179    -0.000001     0.000132  -178.951047
	   67 D(5,6,1,7)      =    179.385043    -0.000008    -2.115963   177.269080
	   68 D(6,1,2,8)      =    178.378325    -0.000002    -0.930556   177.447769
	   69 D(6,1,7,13)     =    -67.979197     0.000009     2.852573   -65.126624
	   70 D(6,1,7,14)     =    114.001755     0.000011     3.614780   117.616535
	   71 D(6,5,4,10)     =   -179.460974    -0.000001    -0.215059  -179.676033
	   72 D(7,1,2,8)      =      0.424565     0.000007     1.981186     2.405751
	   73 D(7,1,6,12)     =     -1.995434    -0.000007    -2.241598    -4.237032
	   74 D(8,2,3,9)      =      0.188126     0.000002     0.469365     0.657492
	   75 D(9,3,4,10)     =      0.791307    -0.000001    -0.106495     0.684813
	   76 D(10,4,5,11)    =      0.664552    -0.000002    -0.419468     0.245084
	   77 D(11,5,6,12)    =     -0.061970     0.000001     0.306974     0.245005
	   78 D(13,7,14,15)   =      1.286021    -0.000019    -4.028214    -2.742193
	   79 D(13,7,14,16)   =   -175.544837    -0.000030    -6.383162  -181.927999
	   80 D(14,7,13,17)   =   -177.637083    -0.000024    -5.540181  -183.177264
	   81 D(14,7,13,18)   =     -0.796873    -0.000024    -5.348508    -6.145380
	 ---------------------------------------------------------------------------
	Successfully symmetrized geometry.

  ==> Convergence Check <==

  Measures of convergence in internal coordinates in au.
  Criteria marked as inactive (o), active & met (*), and active & unmet ( ).
  ---------------------------------------------------------------------------------------------
   Step     Total Energy     Delta E     MAX Force     RMS Force      MAX Disp      RMS Disp   
  ---------------------------------------------------------------------------------------------
    Convergence Criteria    1.00e-06 *    3.00e-04 *             o    1.20e-03 *             o
  ---------------------------------------------------------------------------------------------
      2    -381.46544620   -2.83e-03      5.01e-03      1.19e-03 o    1.26e-01      3.25e-02 o  ~
  ---------------------------------------------------------------------------------------------

	Writing optimization data to binary file.
	Structure for next step:
	Cartesian Geometry (in Angstrom)
	    C    -0.0584815241  -0.0104832824  -0.1760034597
	    C    -0.0156889495   1.2133341266   0.5075185583
	    C     0.0209804689   1.2094801549   1.9011345233
	    C     0.0212958688  -0.0009794196   2.5998119284
	    C    -0.0030997380  -1.2167778612   1.9109427614
	    C    -0.0288446156  -1.2299303796   0.5171776743
	    C    -0.0245208185  -0.0135473061  -1.6564997914
	    H     0.0024530132   2.1511238101  -0.0410237308
	    H     0.0571188297   2.1515585667   2.4389021417
	    H     0.0466136391   0.0030693736   3.6851429822
	    H    -0.0008337203  -2.1551954097   2.4567314511
	    H    -0.0506099851  -2.1717436876  -0.0242149406
	    N     1.0582170795  -0.4625846126  -2.2737345188
	    N    -1.0555054877   0.4836254407  -2.3242928981
	    H    -1.0727852448   0.5919598756  -3.3370135425
	    H    -1.8738249479   0.7869991166  -1.8022736795
	    H     1.8411450881  -0.7889326254  -1.7162522288
	    H     1.1363710440  -0.5409758808  -3.2850532305
			--------------------------
			 OPTKING Finished Execution 
			--------------------------

    Structure for next step:
    Molecular point group: c1
    Full point group: C1

    Geometry (in Angstrom), charge = 1, multiplicity = 1:

    C           -0.058481524110    -0.010483282389    -0.176003459698
    C           -0.015688949492     1.213334126647     0.507518558277
    C            0.020980468895     1.209480154943     1.901134523260
    C            0.021295868834    -0.000979419641     2.599811928429
    C           -0.003099737980    -1.216777861213     1.910942761429
    C           -0.028844615610    -1.229930379587     0.517177674323
    C           -0.024520818496    -0.013547306068    -1.656499791416
    H            0.002453013200     2.151123810089    -0.041023730798
    H            0.057118829688     2.151558566663     2.438902141703
    H            0.046613639123     0.003069373588     3.685142982207
    H           -0.000833720264    -2.155195409709     2.456731451133
    H           -0.050609985103    -2.171743687568    -0.024214940645
    N            1.058217079506    -0.462584612565    -2.273734518772
    N           -1.055505487717     0.483625440711    -2.324292898067
    H           -1.072785244757     0.591959875614    -3.337013542535
    H           -1.873824947856     0.786999116605    -1.802273679538
    H            1.841145088133    -0.788932625367    -1.716252228811
    H            1.136371044007    -0.540975880752    -3.285053230481

gradient() will perform analytic gradient computation.

*** tstart() called on rosa.prib.upf.edu
*** at Sat Sep 29 20:52:04 2018

   => Loading Basis Set <=

    Name: 6-31G*
    Role: ORBITAL
    Keyword: BASIS
    atoms 1-7         entry C          line   111 file /shared/joao/test_parameterize/miniconda3/share/psi4/basis/6-31gs.gbs 
    atoms 8-12, 15-18 entry H          line    44 file /shared/joao/test_parameterize/miniconda3/share/psi4/basis/6-31gs.gbs 
    atoms 13-14       entry N          line   128 file /shared/joao/test_parameterize/miniconda3/share/psi4/basis/6-31gs.gbs 


         ---------------------------------------------------------
                                   SCF
            by Justin Turney, Rob Parrish, Andy Simmonett
                             and Daniel Smith
                              RKS Reference
                        4 Threads,   2861 MiB Core
         ---------------------------------------------------------

  ==> Geometry <==

    Molecular point group: c1
    Full point group: C1

    Geometry (in Angstrom), charge = 1, multiplicity = 1:

       Center              X                  Y                   Z               Mass       
    ------------   -----------------  -----------------  -----------------  -----------------
[...]
	             0.0000319808       -0.0000106759       -0.0000005770
	            -0.0000688309       -0.0000084775       -0.0000315493
	            -0.0006269709       -0.0066189052       -0.0000539384
	            -0.0000202141        0.0000006623        0.0000063299
	             0.0000005740        0.0000002729       -0.0000002517
	            -0.0000011671        0.0000018952        0.0000021600
	            -0.0000026838        0.0000013779        0.0000013461
	             0.0000176389       -0.0000018849        0.0000029938
	             0.0018799129        0.0045095774        0.0000822857
	            -0.0000075042       -0.0000246067        0.0000463448
	             0.0000015930        0.0000184256        0.0000076695
	            -0.0000002347        0.0000173059       -0.0000231655
	             0.0000219416       -0.0000009217       -0.0000046201
	             0.0000011892       -0.0000027352       -0.0000022577

	---Fragment 1 Intrafragment Coordinates---
	 - Coordinate -           - BOHR/RAD -       - ANG/DEG -
	 R(1,2)           =         2.652606	       1.403699
	 R(1,6)           =         2.652595	       1.403693
	 R(1,7)           =         2.793221	       1.478109
	 R(2,3)           =         2.633444	       1.393558
	 R(2,8)           =         2.052866	       1.086330
	 R(3,4)           =         2.641009	       1.397562
	 R(3,9)           =         2.050879	       1.085279
	 R(4,5)           =         2.641689	       1.397921
	 R(4,10)          =         2.051548	       1.085632
	 R(5,6)           =         2.632934	       1.393289
	 R(5,11)          =         2.050845	       1.085260
	 R(6,12)          =         2.053108	       1.086458
	 R(7,13)          =         2.504465	       1.325306
	 R(7,14)          =         2.504430	       1.325287
	 R(13,17)         =         1.913265	       1.012456
	 R(13,18)         =         1.917263	       1.014572
	 R(14,15)         =         1.917116	       1.014494
	 R(14,16)         =         1.913225	       1.012435
	 B(1,2,3)         =         2.079374	     119.139381
	 B(1,2,8)         =         2.101828	     120.425901
	 B(1,6,5)         =         2.080152	     119.183952
	 B(1,6,12)        =         2.101254	     120.392996
	 B(1,7,13)        =         2.079381	     119.139744
	 B(1,7,14)        =         2.081656	     119.270093
	 B(2,1,6)         =         2.111385	     120.973476
	 B(2,1,7)         =         2.078347	     119.080537
	 B(2,3,4)         =         2.096291	     120.108633
	 B(2,3,9)         =         2.088240	     119.647343
	 B(3,2,8)         =         2.101940	     120.432298
	 B(3,4,5)         =         2.103028	     120.494649
	 B(3,4,10)        =         2.090046	     119.750792
	 B(4,3,9)         =         2.098630	     120.242648
	 B(4,5,6)         =         2.095374	     120.056101
	 B(4,5,11)        =         2.098535	     120.237177
	 B(5,4,10)        =         2.090096	     119.753651
	 B(5,6,12)        =         2.101405	     120.401655
	 B(6,1,7)         =         2.088867	     119.683289
	 B(6,5,11)        =         2.089270	     119.706354
	 B(7,13,17)       =         2.079575	     119.150892
	 B(7,13,18)       =         2.154551	     123.446691
	 B(7,14,15)       =         2.155524	     123.502449
	 B(7,14,16)       =         2.080245	     119.189256
	 B(13,7,14)       =         2.120253	     121.481548
	 B(15,14,16)      =         2.047209	     117.296410
	 B(17,13,18)      =         2.048156	     117.350716
	 D(1,2,3,4)       =         0.002640	       0.151282
	 D(1,2,3,9)       =         3.136804	     179.725639
	 D(1,6,5,4)       =        -0.031107	      -1.782305
	 D(1,6,5,11)      =         3.114328	     178.437832
	 D(1,7,13,17)     =        -0.013041	      -0.747200
	 D(1,7,13,18)     =         3.081652	     176.565639
	 D(1,7,14,15)     =         3.039210	     174.133919
	 D(1,7,14,16)     =        -0.124886	      -7.155451
	 D(2,1,6,5)       =         0.045247	       2.592479
	 D(2,1,6,12)      =        -3.125593	    -179.083267
	*D(2,1,7,13)      =         1.919862	     110.000000
	 D(2,1,7,14)      =        -1.156595	     -66.267991
	 D(2,3,4,5)       =         0.011064	       0.633928
	 D(2,3,4,10)      =        -3.136593	    -179.713528
	 D(3,2,1,6)       =        -0.030995	      -1.775868
	 D(3,2,1,7)       =        -3.069499	    -175.869330
	 D(3,4,5,6)       =         0.003397	       0.194656
	 D(3,4,5,11)      =         3.141127	     179.973340
	 D(4,3,2,8)       =        -3.129118	    -179.285233
	 D(4,5,6,12)      =         3.139735	     179.893589
	 D(5,4,3,9)       =        -3.123055	    -178.937873
	 D(5,6,1,7)       =         3.083137	     176.650724
	 D(6,1,2,8)       =         3.100764	     177.660685
	 D(6,1,7,13)      =        -1.119996	     -64.171035
	 D(6,1,7,14)      =         2.086733	     119.560973
	 D(6,5,4,10)      =        -3.132131	    -179.457878
	 D(7,1,2,8)       =         0.062260	       3.567223
	 D(7,1,6,12)      =        -0.087703	      -5.025021
	 D(8,2,3,9)       =         0.005046	       0.289123
	 D(9,3,4,10)      =         0.012473	       0.714671
	 D(10,4,5,11)     =         0.005599	       0.320806
	 D(11,5,6,12)     =         0.001985	       0.113726
	 D(13,7,14,15)    =        -0.035669	      -2.043676
	 D(13,7,14,16)    =         3.083420	     176.666953
	 D(14,7,13,17)    =         3.061923	     175.435261
	 D(14,7,13,18)    =        -0.126570	      -7.251900

	Current energy   :      -381.4663051846

	Energy change for the previous step:
		Projected    :        -0.0000010468
		Actual       :        -0.0000016866

	Performing BFGS update.
	Previous computed or guess Hessian on step 1.
	Steps to be used in Hessian update: 5 4
	Taking RFO optimization step.
	Going to follow RFO solution 1.
	Rejecting RFO root 1 because normalization gives large value.
	Using RFO vector 2.
	Norm of target step-size    0.00271
	Projected energy change by RFO approximation:        -0.0000006849

	Back-transformation to cartesian coordinates...
	Successfully converged to displaced geometry.

	Back-transformation to cartesian coordinates to adjust frozen coordinates...
	Successfully converged to displaced geometry.

	--- Internal Coordinate Step in ANG or DEG, aJ/ANG or AJ/DEG ---
	 ---------------------------------------------------------------------------
	   Coordinate                Previous        Force       Change         New 
	   ----------                --------       ------       ------       ------
	    1 R(1,2)          =      1.403699     0.000251     0.000045     1.403744
	    2 R(1,6)          =      1.403693     0.000068     0.000014     1.403707
	    3 R(1,7)          =      1.478109     0.000111    -0.000003     1.478106
	    4 R(2,3)          =      1.393558     0.000014    -0.000001     1.393557
	    5 R(2,8)          =      1.086330     0.000022     0.000002     1.086332
	    6 R(3,4)          =      1.397562    -0.000009    -0.000001     1.397561
	    7 R(3,9)          =      1.085279     0.000002     0.000000     1.085279
	    8 R(4,5)          =      1.397921    -0.000075    -0.000009     1.397912
	    9 R(4,10)         =      1.085632    -0.000015    -0.000003     1.085629
	   10 R(5,6)          =      1.393289     0.000008    -0.000004     1.393285
	   11 R(5,11)         =      1.085260     0.000005     0.000002     1.085263
	   12 R(6,12)         =      1.086458    -0.000001    -0.000001     1.086457
	   13 R(7,13)         =      1.325306     0.000079     0.000013     1.325319
	   14 R(7,14)         =      1.325287     0.000083     0.000012     1.325299
	   15 R(13,17)        =      1.012456    -0.000135    -0.000017     1.012440
	   16 R(13,18)        =      1.014572    -0.000020     0.000006     1.014578
	   17 R(14,15)        =      1.014494     0.000040     0.000017     1.014512
	   18 R(14,16)        =      1.012435     0.000069     0.000018     1.012453
	   19 B(1,2,3)        =    119.139381     0.000001     0.002711   119.142092
	   20 B(1,2,8)        =    120.425901    -0.000001    -0.003452   120.422449
	   21 B(1,6,5)        =    119.183952     0.000001     0.002776   119.186728
	   22 B(1,6,12)       =    120.392996    -0.000001    -0.003542   120.389453
	   23 B(1,7,13)       =    119.139744     0.000001     0.003140   119.142885
	   24 B(1,7,14)       =    119.270093     0.000000     0.001322   119.271415
	   25 B(2,1,6)        =    120.973476    -0.000002    -0.006318   120.967157
	   26 B(2,1,7)        =    119.080537    -0.000000    -0.002051   119.078487
	   27 B(2,3,4)        =    120.108633     0.000000     0.000877   120.109509
	   28 B(2,3,9)        =    119.647343    -0.000000    -0.000264   119.647079
	   29 B(3,2,8)        =    120.432298     0.000000     0.000221   120.432519
	   30 B(3,4,5)        =    120.494649    -0.000000    -0.002131   120.492518
	   31 B(3,4,10)       =    119.750792     0.000000     0.001651   119.752443
	   32 B(4,3,9)        =    120.242648    -0.000000    -0.000433   120.242215
	   33 B(4,5,6)        =    120.056101     0.000001     0.001123   120.057223
	   34 B(4,5,11)       =    120.237177    -0.000000    -0.000114   120.237063
	   35 B(5,4,10)       =    119.753651     0.000000     0.000448   119.754099
	   36 B(5,6,12)       =    120.401655    -0.000000    -0.000597   120.401057
	   37 B(6,1,7)        =    119.683289     0.000003     0.008064   119.691353
	   38 B(6,5,11)       =    119.706354    -0.000000    -0.001115   119.705239
	   39 B(7,13,17)      =    119.150892    -0.000001    -0.006400   119.144492
	   40 B(7,13,18)      =    123.446691     0.000000     0.001661   123.448352
	   41 B(7,14,15)      =    123.502449     0.000001     0.003701   123.506150
	   42 B(7,14,16)      =    119.189256    -0.000002    -0.010368   119.178888
	   43 B(13,7,14)      =    121.481548    -0.000002    -0.004088   121.477460
	   44 B(15,14,16)     =    117.296410     0.000001     0.005349   117.301759
	   45 B(17,13,18)     =    117.350716     0.000001     0.004011   117.354728
	   46 D(1,2,3,4)      =      0.151282    -0.000000    -0.054919     0.096363
	   47 D(1,2,3,9)      =    179.725639    -0.000000    -0.026163   179.699476
	   48 D(1,6,5,4)      =     -1.782305    -0.000000    -0.049782    -1.832087
	   49 D(1,6,5,11)     =    178.437832    -0.000000    -0.019900   178.417932
	   50 D(1,7,13,17)    =     -0.747200     0.000000     0.015021    -0.732179
	   51 D(1,7,13,18)    =    176.565639    -0.000000    -0.003717   176.561923
	   52 D(1,7,14,15)    =    174.133919     0.000000     0.045849   174.179768
	   53 D(1,7,14,16)    =     -7.155451    -0.000000    -0.023712    -7.179163
	   54 D(2,1,6,5)      =      2.592479     0.000000     0.024259     2.616738
	   55 D(2,1,6,12)     =   -179.083267    -0.000000    -0.028297  -179.111564
	   56 *D(2,1,7,13)    =    110.000000    -0.000000     0.000000   110.000000
	   57 D(2,1,7,14)     =    -66.267991    -0.000000    -0.006278   -66.274269
	   58 D(2,3,4,5)      =      0.633928     0.000000     0.030063     0.663991
	   59 D(2,3,4,10)     =   -179.713528     0.000000     0.023914  -179.689614
	   60 D(3,2,1,6)      =     -1.775868     0.000000     0.028089    -1.747779
	   61 D(3,2,1,7)      =   -175.869330     0.000000     0.031025  -175.838305
	   62 D(3,4,5,6)      =      0.194656     0.000000     0.023097     0.217753
	   63 D(3,4,5,11)     =    179.973340    -0.000000    -0.006947   179.966393
	   64 D(4,3,2,8)      =   -179.285233     0.000000     0.002711  -179.282523
	   65 D(4,5,6,12)     =    179.893589     0.000000     0.002831   179.896420
	   66 D(5,4,3,9)      =   -178.937873     0.000000     0.001134  -178.936739
	   67 D(5,6,1,7)      =    176.650724     0.000000     0.020708   176.671432
	   68 D(6,1,2,8)      =    177.660685    -0.000000    -0.029514   177.631171
	   69 D(6,1,7,13)     =    -64.171035     0.000000     0.003754   -64.167281
	   70 D(6,1,7,14)     =    119.560973    -0.000000    -0.002524   119.558449
	   71 D(6,5,4,10)     =   -179.457878     0.000000     0.029242  -179.428636
	   72 D(7,1,2,8)      =      3.567223    -0.000000    -0.026578     3.540645
	   73 D(7,1,6,12)     =     -5.025021    -0.000000    -0.031848    -5.056869
	   74 D(8,2,3,9)      =      0.289123     0.000000     0.031466     0.320590
	   75 D(9,3,4,10)     =      0.714671    -0.000000    -0.005015     0.709656
	   76 D(10,4,5,11)    =      0.320806     0.000000    -0.000802     0.320003
	   77 D(11,5,6,12)    =      0.113726     0.000000     0.032713     0.146438
	   78 D(13,7,14,15)   =     -2.043676     0.000000     0.039135    -2.004542
	   79 D(13,7,14,16)   =    176.666953    -0.000000    -0.030427   176.636527
	   80 D(14,7,13,17)   =    175.435261     0.000000     0.021659   175.456920
	   81 D(14,7,13,18)   =     -7.251900     0.000000     0.002922    -7.248978
	 ---------------------------------------------------------------------------
	Successfully symmetrized geometry.

  ==> Convergence Check <==

  Measures of convergence in internal coordinates in au.
  Criteria marked as inactive (o), active & met (*), and active & unmet ( ).
  ---------------------------------------------------------------------------------------------
   Step     Total Energy     Delta E     MAX Force     RMS Force      MAX Disp      RMS Disp   
  ---------------------------------------------------------------------------------------------
    Convergence Criteria    1.00e-06 *    3.00e-04 *             o    1.20e-03 *             o
  ---------------------------------------------------------------------------------------------
      6    -381.46630518   -1.69e-06      3.37e-05 *    1.15e-05 o    9.59e-04 *    3.01e-04 o  ~
  ---------------------------------------------------------------------------------------------


  **** Optimization is complete! (in 6 steps) ****

  ==> Optimization Summary <==

  Measures of convergence in internal coordinates in au.
  --------------------------------------------------------------------------------------------------------------- ~
   Step         Total Energy             Delta E       MAX Force       RMS Force        MAX Disp        RMS Disp  ~
  --------------------------------------------------------------------------------------------------------------- ~
      1    -381.462615728507   -381.462615728507      0.00657112      0.00182939      0.14660326      0.04415518  ~
      2    -381.465446204036     -0.002830475530      0.00501164      0.00118746      0.12554927      0.03252777  ~
      3    -381.466205667019     -0.000759462983      0.00392546      0.00076500      0.02834281      0.00699243  ~
      4    -381.466295522852     -0.000089855832      0.00076135      0.00014269      0.01476703      0.00306866  ~
      5    -381.466303497939     -0.000007975087      0.00032049      0.00006784      0.00512381      0.00127764  ~
      6    -381.466305184586     -0.000001686648      0.00003367      0.00001149      0.00095851      0.00030099  ~
  --------------------------------------------------------------------------------------------------------------- ~

	Writing optimization data to binary file.
	Final energy is   -381.4663051845864
	Final (previous) structure:
	Cartesian Geometry (in Angstrom)
	    C    -0.0719623150  -0.0161214340  -0.1757389766
	    C    -0.0279193162   1.2093243003   0.5074247010
	    C     0.0212827479   1.2084355966   1.9001138680
	    C     0.0295916915  -0.0008966609   2.6005605886
	    C     0.0021201531  -1.2184182280   1.9142147117
	    C    -0.0297749308  -1.2337439787   0.5213753760
	    C    -0.0310699760  -0.0168064749  -1.6532819407
	    H    -0.0229318328   2.1460214257  -0.0427449597
	    H     0.0600670841   2.1510856779   2.4365242734
	    H     0.0633037337   0.0052487958   3.6856521179
	    H     0.0091367117  -2.1550608403   2.4623398062
	    H    -0.0494842597  -2.1767753183  -0.0177859058
	    N     1.0523877886  -0.4682926814  -2.2686803965
	    N    -1.0458020829   0.5018427173  -2.3298231895
	    H    -1.0479352952   0.6132152768  -3.3381834096
	    H    -1.8774325946   0.7895235103  -1.8291689179
	    H     1.8350198016  -0.7931316860  -1.7145738810
	    H     1.1314028911  -0.5454499981  -3.2772238653
	Saving final (previous) structure.
	Removing binary optimization data file.
			--------------------------
			 OPTKING Finished Execution 
			--------------------------

    Final optimized geometry and variables:
    Molecular point group: c1
    Full point group: C1

    Geometry (in Angstrom), charge = 1, multiplicity = 1:

    C           -0.071962314958    -0.016121434014    -0.175738976642
    C           -0.027919316205     1.209324300307     0.507424700991
    C            0.021282747862     1.208435596557     1.900113867960
    C            0.029591691517    -0.000896660911     2.600560588577
    C            0.002120153071    -1.218418227981     1.914214711696
    C           -0.029774930827    -1.233743978722     0.521375375990
    C           -0.031069975950    -0.016806474944    -1.653281940732
    H           -0.022931832756     2.146021425689    -0.042744959678
    H            0.060067084078     2.151085677893     2.436524273409
    H            0.063303733692     0.005248795765     3.685652117937
    H            0.009136711665    -2.155060840313     2.462339806155
    H           -0.049484259749    -2.176775318318    -0.017785905799
    N            1.052387788637    -0.468292681381    -2.268680396475
    N           -1.045802082920     0.501842717300    -2.329823189549
    H           -1.047935295183     0.613215276832    -3.338183409558
    H           -1.877432594609     0.789523510305    -1.829168917942
    H            1.835019801581    -0.793131685977    -1.714573881025
    H            1.131402891053    -0.545449998087    -3.277223865315

	Removing binary optimization data file.
	Cleaning optimization helper files.


Properties will be evaluated at   0.000000,   0.000000,   0.000000 [a0]
OEProp: No title given, name of density matrix used for the following properties is 'SCF density'
  Nuclear Dipole Moment: [e a0]
     X:    -0.9432      Y:    -0.2642      Z:    -0.2583

  Electronic Dipole Moment: [e a0]
     X:     0.9648      Y:     0.2662      Z:    -2.2133

  Dipole Moment: [e a0]
     X:     0.0215      Y:     0.0020      Z:    -2.4716     Total:     2.4717

  Dipole Moment: [D]
     X:     0.0548      Y:     0.0050      Z:    -6.2821     Total:     6.2823

  Quadrupole Moment: [D A]
    XX:   -44.1429     YY:   -42.9292     ZZ:   -13.6067
    XY:    -4.7753     XZ:     0.3335     YZ:    -0.3200

  Traceless Quadrupole Moment: [D A]
    XX:   -10.5833     YY:    -9.3696     ZZ:    19.9529
    XY:    -4.7753     XZ:     0.3335     YZ:    -0.3200

  Mulliken Charges: (a.u.)
   Center  Symbol    Alpha    Beta     Spin     Total
       1     C     2.98551  2.98551  0.00000  0.02898
       2     C     3.07113  3.07113  0.00000 -0.14227
       3     C     3.06231  3.06231  0.00000 -0.12463
       4     C     3.05303  3.05303  0.00000 -0.10606
       5     C     3.06305  3.06305  0.00000 -0.12610
       6     C     3.07564  3.07564  0.00000 -0.15129
       7     C     2.74206  2.74206  0.00000  0.51588
       8     H     0.41332  0.41332  0.00000  0.17337
       9     H     0.40678  0.40678  0.00000  0.18645
      10     H     0.40596  0.40596  0.00000  0.18808
      11     H     0.40681  0.40681  0.00000  0.18639
      12     H     0.41356  0.41356  0.00000  0.17288
      13     N     3.84776  3.84776  0.00000 -0.69552
      14     N     3.84962  3.84962  0.00000 -0.69924
      15     H     0.30529  0.30529  0.00000  0.38942
      16     H     0.29638  0.29638  0.00000  0.40723
      17     H     0.29650  0.29650  0.00000  0.40699
      18     H     0.30528  0.30528  0.00000  0.38944

   Total alpha = 32.00000, Total beta = 32.00000, Total charge =  1.00000


    Psi4 stopped on: Saturday, 29 September 2018 08:53PM
    Psi4 wall time for execution: 0:02:56.12

*** Psi4 exiting successfully. Buy a developer a beer!
