
    -----------------------------------------------------------------------
          Psi4: An Open-Source Ab Initio Electronic Structure Package
                               Psi4 1.2.1 release

                         Git: Rev {HEAD} 406f4de 


    R. M. Parrish, L. A. Burns, D. G. A. Smith, A. C. Simmonett,
    A. E. DePrince III, E. G. Hohenstein, U. Bozkaya, A. Yu. Sokolov,
    R. Di Remigio, R. M. Richard, J. F. Gonthier, A. M. James,
    H. R. McAlexander, A. Kumar, M. Saitow, X. Wang, B. P. Pritchard,
    P. Verma, H. F. Schaefer III, K. Patkowski, R. A. King, E. F. Valeev,
    F. A. Evangelista, J. M. Turney, T. D. Crawford, and C. D. Sherrill,
    J. Chem. Theory Comput. 13(7) pp 3185--3197 (2017).
    (doi: 10.1021/acs.jctc.7b00174)


                         Additional Contributions by
    P. Kraus, H. Kruse, M. H. Lechner, M. C. Schieber, and R. A. Shaw

    -----------------------------------------------------------------------


    Psi4 started on: Saturday, 29 September 2018 04:50PM

    Process ID: 4968
    Host:       loro.prib.upf.edu
    PSIDATADIR: /shared/joao/test_parameterize/miniconda3/share/psi4
    Memory:     500.0 MiB
    Threads:    1
    
  ==> Input File <==

--------------------------------------------------------------------------
set_num_threads(1)
set_memory('5348 MB')

set { scf_mem_safety_factor 0.7 }

set { reference rks }
set { basis cc-pVDZ }

molecule MOL {
    0 1
    noreorient
    nocom
    symmetry c1
    O    1.141000   0.017000   0.083000
    C    2.558000   0.086000  -0.005000
    C    3.192000  -0.789000   1.067000
    O    4.610000  -0.719000   0.979000
    H    0.789000   0.590000  -0.620000
    H    2.874000   1.128000   0.115000
    H    2.871000  -0.243000  -1.001000
    H    2.876000  -1.830000   0.947000
    H    2.879000  -0.459000   2.064000
    H    4.923368  -1.624905   0.811600
}

set optking { frozen_dihedral = (" 2 3 4 10 ") }

energy, wfn = energy('B3LYP-D3', return_wfn=True)

import os
os.chdir(os.environ['HTMD_PSI4_WORKDIR'])

oeprop(wfn, 'DIPOLE', 'QUADRUPOLE', 'MULLIKEN_CHARGES')

with open('psi4out.xyz', 'w') as f:
    f.write('10 ' )
    f.write('%.12f\n' % energy)
    f.write(MOL.save_string_xyz())
--------------------------------------------------------------------------
  Threads set to 1 by Python driver.

  Memory set to   4.981 GiB by Python driver.

*** tstart() called on loro.prib.upf.edu
*** at Sat Sep 29 16:50:07 2018

   => Loading Basis Set <=

    Name: CC-PVDZ
    Role: ORBITAL
    Keyword: BASIS
    atoms 1, 4 entry O          line   198 file /shared/joao/test_parameterize/miniconda3/share/psi4/basis/cc-pvdz.gbs 
    atoms 2-3  entry C          line   138 file /shared/joao/test_parameterize/miniconda3/share/psi4/basis/cc-pvdz.gbs 
    atoms 5-10 entry H          line    22 file /shared/joao/test_parameterize/miniconda3/share/psi4/basis/cc-pvdz.gbs 


         ---------------------------------------------------------
                                   SCF
            by Justin Turney, Rob Parrish, Andy Simmonett
                             and Daniel Smith
                              RKS Reference
                        1 Threads,   5100 MiB Core
         ---------------------------------------------------------

  ==> Geometry <==

    Molecular point group: c1
    Full point group: C1

    Geometry (in Angstrom), charge = 0, multiplicity = 1:

       Center              X                  Y                   Z               Mass       
    ------------   -----------------  -----------------  -----------------  -----------------
         O            1.141000000000     0.017000000000     0.083000000000    15.994914619560
         C            2.558000000000     0.086000000000    -0.005000000000    12.000000000000
         C            3.192000000000    -0.789000000000     1.067000000000    12.000000000000
         O            4.610000000000    -0.719000000000     0.979000000000    15.994914619560
         H            0.789000000000     0.590000000000    -0.620000000000     1.007825032070
         H            2.874000000000     1.128000000000     0.115000000000     1.007825032070
         H            2.871000000000    -0.243000000000    -1.001000000000     1.007825032070
         H            2.876000000000    -1.830000000000     0.947000000000     1.007825032070
         H            2.879000000000    -0.459000000000     2.064000000000     1.007825032070
         H            4.923368000000    -1.624905000000     0.811600000000     1.007825032070

  Running in c1 symmetry.

  Rotational constants: A =      0.81857  B =      0.02541  C =      0.02493 [cm^-1]
  Rotational constants: A =  24540.14493  B =    761.91325  C =    747.35216 [MHz]
  Nuclear repulsion =  129.566880864842318

  Charge       = 0
  Multiplicity = 1
  Electrons    = 34
  Nalpha       = 17
  Nbeta        = 17

  ==> Algorithm <==

  SCF Algorithm Type is DF.
  DIIS enabled.
  MOM disabled.
  Fractional occupation disabled.
  Guess Type is SAD.
  Energy threshold   = 1.00e-06
  Density threshold  = 1.00e-06
  Integral threshold = 0.00e+00

  ==> Primary Basis <==

  Basis Set: CC-PVDZ
    Blend: CC-PVDZ
    Number of shells: 42
    Number of basis function: 86
    Number of Cartesian functions: 90
    Spherical Harmonics?: true
    Max angular momentum: 2

  ==> DFT Potential <==

   => Composite Functional: B3LYP-D3ZERO <= 

    B3LYP-d3zero Hyb-GGA Exchange-Correlation Functional

    P. J. Stephens, F. J. Devlin, C. F. Chabalowski, and M. J. Frisch, J. Phys. Chem. 98, 11623 (1994)

    Deriv               =              1
    GGA                 =           TRUE
    Meta                =          FALSE

    Exchange Hybrid     =           TRUE
    MP2 Hybrid          =          FALSE

   => Exchange Functionals <=

    0.0800   Slater exchange
    0.7200         Becke 88

   => Exact (HF) Exchange <=

    0.2000               HF 

   => Correlation Functionals <=

    0.1900   Vosko, Wilk & Nusair (VWN5_RPA)
    0.8100   Lee, Yang & Parr

   => Molecular Quadrature <=

    Radial Scheme       =       TREUTLER
    Pruning Scheme      =           FLAT
    Nuclear Scheme      =       TREUTLER

    BS radius alpha     =              1
    Pruning alpha       =              1
    Radial Points       =             75
    Spherical Points    =            302
    Total Points        =         222557
    Total Blocks        =           1731
    Max Points          =            256
    Max Functions       =             86

   => -D3ZERO: Empirical Dispersion <=

    Grimme's -D3 (zero-damping) Dispersion Correction
    Grimme S.; Antony J.; Ehrlich S.; Krieg H. (2010), J. Chem. Phys., 132: 154104

        S6 =   1.000000E+00
        S8 =   1.703000E+00
       SR6 =   1.261000E+00
       SR8 =   1.000000E+00
    ALPHA6 =   1.400000E+01

   => Loading Basis Set <=

    Name: (CC-PVDZ AUX)
    Role: JKFIT
    Keyword: DF_BASIS_SCF
    atoms 1, 4 entry O          line   221 file /shared/joao/test_parameterize/miniconda3/share/psi4/basis/cc-pvdz-jkfit.gbs 
    atoms 2-3  entry C          line   121 file /shared/joao/test_parameterize/miniconda3/share/psi4/basis/cc-pvdz-jkfit.gbs 
    atoms 5-10 entry H          line    51 file /shared/joao/test_parameterize/miniconda3/share/psi4/basis/cc-pvdz-jkfit.gbs 

  ==> Pre-Iterations <==

   -------------------------------------------------------
    Irrep   Nso     Nmo     Nalpha   Nbeta   Ndocc  Nsocc
   -------------------------------------------------------
     A         86      86       0       0       0       0
   -------------------------------------------------------
    Total      86      86      17      17      17       0
   -------------------------------------------------------

  ==> Integral Setup <==

  DFHelper Memory: AOs need 0.030 [GiB]; user supplied 3.486 [GiB]. Using in-core AOs.

  ==> MemDFJK: Density-Fitted J/K Matrices <==

    J tasked:                   Yes
    K tasked:                   Yes
    wK tasked:                   No
    OpenMP threads:               1
    Memory (MB):               3570
    Algorithm:                 Core
    Schwarz Cutoff:           1E-12
    Mask sparsity (%):       0.5138
    Fitting Condition:        1E-12

   => Auxiliary Basis Set <=

  Basis Set: (CC-PVDZ AUX)
    Blend: CC-PVDZ-JKFIT
    Number of shells: 150
    Number of basis function: 418
    Number of Cartesian functions: 474
    Spherical Harmonics?: true
    Max angular momentum: 3

  Minimum eigenvalue in the overlap matrix is 5.1846498989E-03.
  Using Symmetric Orthogonalization.

  SCF Guess: Superposition of Atomic Densities via on-the-fly atomic UHF.

  ==> Iterations <==

                           Total Energy        Delta E     RMS |[F,P]|

   @DF-RKS iter   0:  -231.04964380516765   -2.31050e+02   4.14196e-02 
   @DF-RKS iter   1:  -230.19218784292752    8.57456e-01   4.65363e-03 
   @DF-RKS iter   2:  -230.16493003447823    2.72578e-02   5.86361e-03 DIIS
   @DF-RKS iter   3:  -230.25550443789726   -9.05744e-02   6.85736e-04 DIIS
   @DF-RKS iter   4:  -230.25675066705347   -1.24623e-03   2.12650e-04 DIIS
   @DF-RKS iter   5:  -230.25690881195104   -1.58145e-04   4.67990e-05 DIIS
   @DF-RKS iter   6:  -230.25691648245666   -7.67051e-06   5.56021e-06 DIIS
   @DF-RKS iter   7:  -230.25691653912929   -5.66726e-08   3.59925e-06 DIIS
   @DF-RKS iter   8:  -230.25691657332212   -3.41928e-08   5.06862e-07 DIIS

  ==> Post-Iterations <==

    Orbital Energies [Eh]
    ---------------------

    Doubly Occupied:                                                      

       1A    -19.133428     2A    -19.130503     3A    -10.226765  
       4A    -10.223759     5A     -1.019462     6A     -1.008708  
       7A     -0.730979     8A     -0.606652     9A     -0.525530  
      10A     -0.491291    11A     -0.457112    12A     -0.420680  
      13A     -0.395947    14A     -0.340442    15A     -0.323391  
      16A     -0.268049    17A     -0.263261  

    Virtual:                                                              

      18A      0.041670    19A      0.053482    20A      0.108015  
      21A      0.121326    22A      0.124577    23A      0.164571  
      24A      0.188847    25A      0.248006    26A      0.249688  
      27A      0.434481    28A      0.442812    29A      0.503764  
      30A      0.533184    31A      0.558522    32A      0.588739  
      33A      0.605003    34A      0.623625    35A      0.631526  
      36A      0.650466    37A      0.657227    38A      0.679621  
      39A      0.885005    40A      0.906337    41A      0.909445  
      42A      0.970562    43A      1.014812    44A      1.058213  
      45A      1.060644    46A      1.113026    47A      1.200990  
      48A      1.209883    49A      1.252210    50A      1.341559  
      51A      1.347595    52A      1.394641    53A      1.461742  
      54A      1.535023    55A      1.595572    56A      1.609478  
      57A      1.636765    58A      1.651072    59A      1.671743  
      60A      1.695558    61A      1.746403    62A      1.755765  
      63A      1.809711    64A      1.846906    65A      1.909934  
      66A      1.999903    67A      2.025257    68A      2.080396  
      69A      2.110923    70A      2.142787    71A      2.244403  
      72A      2.290168    73A      2.404339    74A      2.448688  
      75A      2.468323    76A      2.526410    77A      2.921547  
      78A      2.940559    79A      2.972019    80A      3.023834  
      81A      3.071636    82A      3.147314    83A      3.190368  
      84A      3.224156    85A      3.665162    86A      3.696769  

    Final Occupation by Irrep:
              A 
    DOCC [    17 ]

  Energy converged.

  @DF-RKS Final Energy:  -230.25691657332212

   => Energetics <=

    Nuclear Repulsion Energy =            129.5668808648423180
    One-Electron Energy =                -570.8826623141123946
    Two-Electron Energy =                 235.6024621730362583
    DFT Exchange-Correlation Energy =     -24.5391465570883227
    Empirical Dispersion Energy =          -0.0044507400000000
    VV10 Nonlocal Energy =                  0.0000000000000000
    Total Energy =                       -230.2569165733221155



Properties will be evaluated at   0.000000,   0.000000,   0.000000 [a0]

Properties computed using the SCF density matrix

  Nuclear Dipole Moment: [e a0]
     X:   184.6647      Y:   -23.1924      Z:    32.4742

  Electronic Dipole Moment: [e a0]
     X:  -184.6754      Y:    22.9687      Z:   -32.9678

  Dipole Moment: [e a0]
     X:    -0.0107      Y:    -0.2237      Z:    -0.4936     Total:     0.5420

  Dipole Moment: [D]
     X:    -0.0272      Y:    -0.5687      Z:    -1.2545     Total:     1.3777


*** tstop() called on loro.prib.upf.edu at Sat Sep 29 16:50:23 2018
Module time:
	user time   =      12.80 seconds =       0.21 minutes
	system time =       0.24 seconds =       0.00 minutes
	total time  =         16 seconds =       0.27 minutes
Total time:
	user time   =      12.80 seconds =       0.21 minutes
	system time =       0.24 seconds =       0.00 minutes
	total time  =         16 seconds =       0.27 minutes


Properties will be evaluated at   0.000000,   0.000000,   0.000000 [a0]
OEProp: No title given, name of density matrix used for the following properties is 'SCF density'
  Nuclear Dipole Moment: [e a0]
     X:   184.6647      Y:   -23.1924      Z:    32.4742

  Electronic Dipole Moment: [e a0]
     X:  -184.6754      Y:    22.9687      Z:   -32.9678

  Dipole Moment: [e a0]
     X:    -0.0107      Y:    -0.2237      Z:    -0.4936     Total:     0.5420

  Dipole Moment: [D]
     X:    -0.0272      Y:    -0.5687      Z:    -1.2545     Total:     1.3777

  Quadrupole Moment: [D A]
    XX:   -26.9695     YY:   -20.3422     ZZ:   -24.5477
    XY:    -6.5520     XZ:    -2.1876     YZ:    -1.7452

  Traceless Quadrupole Moment: [D A]
    XX:    -3.0164     YY:     3.6109     ZZ:    -0.5946
    XY:    -6.5520     XZ:    -2.1876     YZ:    -1.7452

  Mulliken Charges: (a.u.)
   Center  Symbol    Alpha    Beta     Spin     Total
       1     O     4.14101  4.14101  0.00000 -0.28203
       2     C     2.93538  2.93538  0.00000  0.12923
       3     C     2.93748  2.93748  0.00000  0.12505
       4     O     4.14000  4.14000  0.00000 -0.28000
       5     H     0.42797  0.42797  0.00000  0.14406
       6     H     0.49774  0.49774  0.00000  0.00452
       7     H     0.50408  0.50408  0.00000 -0.00816
       8     H     0.49741  0.49741  0.00000  0.00518
       9     H     0.49160  0.49160  0.00000  0.01680
      10     H     0.42733  0.42733  0.00000  0.14535

   Total alpha = 17.00000, Total beta = 17.00000, Total charge =  0.00000


    Psi4 stopped on: Saturday, 29 September 2018 04:50PM
    Psi4 wall time for execution: 0:00:16.09

*** Psi4 exiting successfully. Buy a developer a beer!
