
    -----------------------------------------------------------------------
          Psi4: An Open-Source Ab Initio Electronic Structure Package
                               Psi4 1.2.1 release

                         Git: Rev {HEAD} 406f4de 


    R. M. Parrish, L. A. Burns, D. G. A. Smith, A. C. Simmonett,
    A. E. DePrince III, E. G. Hohenstein, U. Bozkaya, A. Yu. Sokolov,
    R. Di Remigio, R. M. Richard, J. F. Gonthier, A. M. James,
    H. R. McAlexander, A. Kumar, M. Saitow, X. Wang, B. P. Pritchard,
    P. Verma, H. F. Schaefer III, K. Patkowski, R. A. King, E. F. Valeev,
    F. A. Evangelista, J. M. Turney, T. D. Crawford, and C. D. Sherrill,
    J. Chem. Theory Comput. 13(7) pp 3185--3197 (2017).
    (doi: 10.1021/acs.jctc.7b00174)


                         Additional Contributions by
    P. Kraus, H. Kruse, M. H. Lechner, M. C. Schieber, and R. A. Shaw

    -----------------------------------------------------------------------


    Psi4 started on: Saturday, 29 September 2018 04:50PM

    Process ID: 5702
    Host:       loro.prib.upf.edu
    PSIDATADIR: /shared/joao/test_parameterize/miniconda3/share/psi4
    Memory:     500.0 MiB
    Threads:    1
    
  ==> Input File <==

--------------------------------------------------------------------------
set_num_threads(1)
set_memory('5348 MB')

set { scf_mem_safety_factor 0.7 }

set { reference rks }
set { basis cc-pVDZ }

molecule MOL {
    0 1
    noreorient
    nocom
    symmetry c1
    O    1.141000   0.017000   0.083000
    C    2.558000   0.086000  -0.005000
    C    3.192000  -0.789000   1.067000
    O    4.610000  -0.719000   0.979000
    H    0.789000   0.590000  -0.620000
    H    2.874000   1.128000   0.115000
    H    2.871000  -0.243000  -1.001000
    H    2.876000  -1.830000   0.947000
    H    2.879000  -0.459000   2.064000
    H    4.862928   0.174700   1.269195
}

set optking { frozen_dihedral = (" 2 3 4 10 ") }

energy, wfn = energy('B3LYP-D3', return_wfn=True)

import os
os.chdir(os.environ['HTMD_PSI4_WORKDIR'])

oeprop(wfn, 'DIPOLE', 'QUADRUPOLE', 'MULLIKEN_CHARGES')

with open('psi4out.xyz', 'w') as f:
    f.write('10 ' )
    f.write('%.12f\n' % energy)
    f.write(MOL.save_string_xyz())
--------------------------------------------------------------------------
  Threads set to 1 by Python driver.

  Memory set to   4.981 GiB by Python driver.

*** tstart() called on loro.prib.upf.edu
*** at Sat Sep 29 16:50:39 2018

   => Loading Basis Set <=

    Name: CC-PVDZ
    Role: ORBITAL
    Keyword: BASIS
    atoms 1, 4 entry O          line   198 file /shared/joao/test_parameterize/miniconda3/share/psi4/basis/cc-pvdz.gbs 
    atoms 2-3  entry C          line   138 file /shared/joao/test_parameterize/miniconda3/share/psi4/basis/cc-pvdz.gbs 
    atoms 5-10 entry H          line    22 file /shared/joao/test_parameterize/miniconda3/share/psi4/basis/cc-pvdz.gbs 


         ---------------------------------------------------------
                                   SCF
            by Justin Turney, Rob Parrish, Andy Simmonett
                             and Daniel Smith
                              RKS Reference
                        1 Threads,   5100 MiB Core
         ---------------------------------------------------------

  ==> Geometry <==

    Molecular point group: c1
    Full point group: C1

    Geometry (in Angstrom), charge = 0, multiplicity = 1:

       Center              X                  Y                   Z               Mass       
    ------------   -----------------  -----------------  -----------------  -----------------
         O            1.141000000000     0.017000000000     0.083000000000    15.994914619560
         C            2.558000000000     0.086000000000    -0.005000000000    12.000000000000
         C            3.192000000000    -0.789000000000     1.067000000000    12.000000000000
         O            4.610000000000    -0.719000000000     0.979000000000    15.994914619560
         H            0.789000000000     0.590000000000    -0.620000000000     1.007825032070
         H            2.874000000000     1.128000000000     0.115000000000     1.007825032070
         H            2.871000000000    -0.243000000000    -1.001000000000     1.007825032070
         H            2.876000000000    -1.830000000000     0.947000000000     1.007825032070
         H            2.879000000000    -0.459000000000     2.064000000000     1.007825032070
         H            4.862928000000     0.174700000000     1.269195000000     1.007825032070

  Running in c1 symmetry.

  Rotational constants: A =      0.81930  B =      0.02550  C =      0.02501 [cm^-1]
  Rotational constants: A =  24562.06665  B =    764.47310  C =    749.89605 [MHz]
  Nuclear repulsion =  129.836625322512759

  Charge       = 0
  Multiplicity = 1
  Electrons    = 34
  Nalpha       = 17
  Nbeta        = 17

  ==> Algorithm <==

  SCF Algorithm Type is DF.
  DIIS enabled.
  MOM disabled.
  Fractional occupation disabled.
  Guess Type is SAD.
  Energy threshold   = 1.00e-06
  Density threshold  = 1.00e-06
  Integral threshold = 0.00e+00

  ==> Primary Basis <==

  Basis Set: CC-PVDZ
    Blend: CC-PVDZ
    Number of shells: 42
    Number of basis function: 86
    Number of Cartesian functions: 90
    Spherical Harmonics?: true
    Max angular momentum: 2

  ==> DFT Potential <==

   => Composite Functional: B3LYP-D3ZERO <= 

    B3LYP-d3zero Hyb-GGA Exchange-Correlation Functional

    P. J. Stephens, F. J. Devlin, C. F. Chabalowski, and M. J. Frisch, J. Phys. Chem. 98, 11623 (1994)

    Deriv               =              1
    GGA                 =           TRUE
    Meta                =          FALSE

    Exchange Hybrid     =           TRUE
    MP2 Hybrid          =          FALSE

   => Exchange Functionals <=

    0.0800   Slater exchange
    0.7200         Becke 88

   => Exact (HF) Exchange <=

    0.2000               HF 

   => Correlation Functionals <=

    0.1900   Vosko, Wilk & Nusair (VWN5_RPA)
    0.8100   Lee, Yang & Parr

   => Molecular Quadrature <=

    Radial Scheme       =       TREUTLER
    Pruning Scheme      =           FLAT
    Nuclear Scheme      =       TREUTLER

    BS radius alpha     =              1
    Pruning alpha       =              1
    Radial Points       =             75
    Spherical Points    =            302
    Total Points        =         222549
    Total Blocks        =           1745
    Max Points          =            256
    Max Functions       =             86

   => -D3ZERO: Empirical Dispersion <=

    Grimme's -D3 (zero-damping) Dispersion Correction
    Grimme S.; Antony J.; Ehrlich S.; Krieg H. (2010), J. Chem. Phys., 132: 154104

        S6 =   1.000000E+00
        S8 =   1.703000E+00
       SR6 =   1.261000E+00
       SR8 =   1.000000E+00
    ALPHA6 =   1.400000E+01

   => Loading Basis Set <=

    Name: (CC-PVDZ AUX)
    Role: JKFIT
    Keyword: DF_BASIS_SCF
    atoms 1, 4 entry O          line   221 file /shared/joao/test_parameterize/miniconda3/share/psi4/basis/cc-pvdz-jkfit.gbs 
    atoms 2-3  entry C          line   121 file /shared/joao/test_parameterize/miniconda3/share/psi4/basis/cc-pvdz-jkfit.gbs 
    atoms 5-10 entry H          line    51 file /shared/joao/test_parameterize/miniconda3/share/psi4/basis/cc-pvdz-jkfit.gbs 

  ==> Pre-Iterations <==

   -------------------------------------------------------
    Irrep   Nso     Nmo     Nalpha   Nbeta   Ndocc  Nsocc
   -------------------------------------------------------
     A         86      86       0       0       0       0
   -------------------------------------------------------
    Total      86      86      17      17      17       0
   -------------------------------------------------------

  ==> Integral Setup <==

  DFHelper Memory: AOs need 0.030 [GiB]; user supplied 3.486 [GiB]. Using in-core AOs.

  ==> MemDFJK: Density-Fitted J/K Matrices <==

    J tasked:                   Yes
    K tasked:                   Yes
    wK tasked:                   No
    OpenMP threads:               1
    Memory (MB):               3570
    Algorithm:                 Core
    Schwarz Cutoff:           1E-12
    Mask sparsity (%):       0.2704
    Fitting Condition:        1E-12

   => Auxiliary Basis Set <=

  Basis Set: (CC-PVDZ AUX)
    Blend: CC-PVDZ-JKFIT
    Number of shells: 150
    Number of basis function: 418
    Number of Cartesian functions: 474
    Spherical Harmonics?: true
    Max angular momentum: 3

  Minimum eigenvalue in the overlap matrix is 5.0548911025E-03.
  Using Symmetric Orthogonalization.

  SCF Guess: Superposition of Atomic Densities via on-the-fly atomic UHF.

  ==> Iterations <==

                           Total Energy        Delta E     RMS |[F,P]|

   @DF-RKS iter   0:  -231.04686697637649   -2.31047e+02   4.14013e-02 
   @DF-RKS iter   1:  -230.19319794721235    8.53669e-01   4.66922e-03 
   @DF-RKS iter   2:  -230.16372958523698    2.94684e-02   5.94558e-03 DIIS
   @DF-RKS iter   3:  -230.25729923578629   -9.35697e-02   6.98673e-04 DIIS
   @DF-RKS iter   4:  -230.25860633284412   -1.30710e-03   2.15394e-04 DIIS
   @DF-RKS iter   5:  -230.25876832774415   -1.61995e-04   4.89649e-05 DIIS
   @DF-RKS iter   6:  -230.25877658897494   -8.26123e-06   7.65875e-06 DIIS
   @DF-RKS iter   7:  -230.25877670080669   -1.11832e-07   4.48411e-06 DIIS
   @DF-RKS iter   8:  -230.25877675447458   -5.36679e-08   4.36811e-07 DIIS

  ==> Post-Iterations <==

    Orbital Energies [Eh]
    ---------------------

    Doubly Occupied:                                                      

       1A    -19.135207     2A    -19.133262     3A    -10.227481  
       4A    -10.227282     5A     -1.021866     6A     -1.010635  
       7A     -0.731373     8A     -0.615699     9A     -0.520165  
      10A     -0.495615    11A     -0.453460    12A     -0.429961  
      13A     -0.397950    14A     -0.342586    15A     -0.325201  
      16A     -0.269739    17A     -0.266729  

    Virtual:                                                              

      18A      0.044783    19A      0.049787    20A      0.103707  
      21A      0.116614    22A      0.127674    23A      0.164012  
      24A      0.187832    25A      0.239110    26A      0.250529  
      27A      0.436587    28A      0.441488    29A      0.500849  
      30A      0.513206    31A      0.551104    32A      0.578545  
      33A      0.602546    34A      0.623913    35A      0.638046  
      36A      0.649870    37A      0.668854    38A      0.683012  
      39A      0.879626    40A      0.900383    41A      0.906947  
      42A      0.972345    43A      1.015389    44A      1.056022  
      45A      1.062263    46A      1.095180    47A      1.200650  
      48A      1.213949    49A      1.288358    50A      1.341725  
      51A      1.351937    52A      1.371372    53A      1.445617  
      54A      1.514138    55A      1.597508    56A      1.610287  
      57A      1.648220    58A      1.652327    59A      1.663126  
      60A      1.700503    61A      1.719946    62A      1.774467  
      63A      1.836622    64A      1.865650    65A      1.915805  
      66A      1.977187    67A      2.027697    68A      2.053626  
      69A      2.101852    70A      2.153193    71A      2.239925  
      72A      2.290670    73A      2.405698    74A      2.433815  
      75A      2.470460    76A      2.516943    77A      2.912044  
      78A      2.958131    79A      2.964429    80A      3.015025  
      81A      3.072400    82A      3.126574    83A      3.189003  
      84A      3.240785    85A      3.672234    86A      3.686407  

    Final Occupation by Irrep:
              A 
    DOCC [    17 ]

  Energy converged.

  @DF-RKS Final Energy:  -230.25877675447458

   => Energetics <=

    Nuclear Repulsion Energy =            129.8366253225127593
    One-Electron Energy =                -571.3497242094293824
    Two-Electron Energy =                 235.7970640138052545
    DFT Exchange-Correlation Energy =     -24.5380996213631803
    Empirical Dispersion Energy =          -0.0046422600000000
    VV10 Nonlocal Energy =                  0.0000000000000000
    Total Energy =                       -230.2587767544745532



Properties will be evaluated at   0.000000,   0.000000,   0.000000 [a0]

Properties computed using the SCF density matrix

  Nuclear Dipole Moment: [e a0]
     X:   184.5505      Y:   -19.7917      Z:    33.3389

  Electronic Dipole Moment: [e a0]
     X:  -184.6259      Y:    20.5899      Z:   -33.5675

  Dipole Moment: [e a0]
     X:    -0.0754      Y:     0.7982      Z:    -0.2286     Total:     0.8337

  Dipole Moment: [D]
     X:    -0.1916      Y:     2.0289      Z:    -0.5811     Total:     2.1191


*** tstop() called on loro.prib.upf.edu at Sat Sep 29 16:50:54 2018
Module time:
	user time   =      12.48 seconds =       0.21 minutes
	system time =       0.21 seconds =       0.00 minutes
	total time  =         15 seconds =       0.25 minutes
Total time:
	user time   =      12.48 seconds =       0.21 minutes
	system time =       0.21 seconds =       0.00 minutes
	total time  =         15 seconds =       0.25 minutes


Properties will be evaluated at   0.000000,   0.000000,   0.000000 [a0]
OEProp: No title given, name of density matrix used for the following properties is 'SCF density'
  Nuclear Dipole Moment: [e a0]
     X:   184.5505      Y:   -19.7917      Z:    33.3389

  Electronic Dipole Moment: [e a0]
     X:  -184.6259      Y:    20.5899      Z:   -33.5675

  Dipole Moment: [e a0]
     X:    -0.0754      Y:     0.7982      Z:    -0.2286     Total:     0.8337

  Dipole Moment: [D]
     X:    -0.1916      Y:     2.0289      Z:    -0.5811     Total:     2.1191

  Quadrupole Moment: [D A]
    XX:   -28.3486     YY:   -24.3164     ZZ:   -23.0402
    XY:     7.3619     XZ:     1.2458     YZ:     0.6353

  Traceless Quadrupole Moment: [D A]
    XX:    -3.1135     YY:     0.9186     ZZ:     2.1949
    XY:     7.3619     XZ:     1.2458     YZ:     0.6353

  Mulliken Charges: (a.u.)
   Center  Symbol    Alpha    Beta     Spin     Total
       1     O     4.13992  4.13992  0.00000 -0.27984
       2     C     2.94375  2.94375  0.00000  0.11250
       3     C     2.92934  2.92934  0.00000  0.14132
       4     O     4.13928  4.13928  0.00000 -0.27856
       5     H     0.42818  0.42818  0.00000  0.14364
       6     H     0.50812  0.50812  0.00000 -0.01624
       7     H     0.49803  0.49803  0.00000  0.00395
       8     H     0.48578  0.48578  0.00000  0.02843
       9     H     0.49700  0.49700  0.00000  0.00601
      10     H     0.43060  0.43060  0.00000  0.13880

   Total alpha = 17.00000, Total beta = 17.00000, Total charge = -0.00000


    Psi4 stopped on: Saturday, 29 September 2018 04:50PM
    Psi4 wall time for execution: 0:00:15.13

*** Psi4 exiting successfully. Buy a developer a beer!
