
    -----------------------------------------------------------------------
          Psi4: An Open-Source Ab Initio Electronic Structure Package
                               Psi4 1.2.1 release

                         Git: Rev {HEAD} 406f4de 


    R. M. Parrish, L. A. Burns, D. G. A. Smith, A. C. Simmonett,
    A. E. DePrince III, E. G. Hohenstein, U. Bozkaya, A. Yu. Sokolov,
    R. Di Remigio, R. M. Richard, J. F. Gonthier, A. M. James,
    H. R. McAlexander, A. Kumar, M. Saitow, X. Wang, B. P. Pritchard,
    P. Verma, H. F. Schaefer III, K. Patkowski, R. A. King, E. F. Valeev,
    F. A. Evangelista, J. M. Turney, T. D. Crawford, and C. D. Sherrill,
    J. Chem. Theory Comput. 13(7) pp 3185--3197 (2017).
    (doi: 10.1021/acs.jctc.7b00174)


                         Additional Contributions by
    P. Kraus, H. Kruse, M. H. Lechner, M. C. Schieber, and R. A. Shaw

    -----------------------------------------------------------------------


    Psi4 started on: Saturday, 29 September 2018 08:43PM

    Process ID: 32523
    Host:       arancio.prib.upf.edu
    PSIDATADIR: /shared/joao/test_parameterize/miniconda3/share/psi4
    Memory:     500.0 MiB
    Threads:    1
    
  ==> Input File <==

--------------------------------------------------------------------------
set_num_threads(4)
set_memory('3000 MB')

set { scf_mem_safety_factor 0.7 }

set { reference rks }
set { basis 6-31G* }

molecule MOL {
    1 1
    noreorient
    nocom
    symmetry c1
    C   -0.000000  -0.000000  -0.177864
    C    0.036678   1.219374   0.524165
    C    0.031765   1.213120   1.915444
    C    0.000000   0.000000   2.610107
    C   -0.031765  -1.213120   1.915444
    C   -0.036678  -1.219375   0.524165
    C   -0.000000   0.000000  -1.644734
    H    0.018170   2.164705  -0.010854
    H    0.042402   2.152895   2.457886
    H    0.000000   0.000000   3.695756
    H   -0.042402  -2.152895   2.457886
    H   -0.018170  -2.164705  -0.010853
    N   -1.094470  -0.361476  -2.308461
    N    1.094470   0.361476  -2.308460
    H    1.117362   0.466897  -3.315997
    H    1.968877   0.477788  -1.813316
    H   -1.968877  -0.477787  -1.813317
    H   -1.117363  -0.466896  -3.315997
}

set optking { frozen_dihedral = (" 2 1 7 13 ") }

set optking { dynamic_level = 1 
 geom_maxiter = 250
 print_trajectory_xyz_file = True }

energy, wfn = optimize('B3LYP-D3', return_wfn=True)

import os
os.chdir(os.environ['HTMD_PSI4_WORKDIR'])

oeprop(wfn, 'DIPOLE', 'QUADRUPOLE', 'MULLIKEN_CHARGES')

with open('psi4out.xyz', 'w') as f:
    f.write('18 ' )
    f.write('%.12f\n' % energy)
    f.write(MOL.save_string_xyz())
--------------------------------------------------------------------------
  Threads set to 4 by Python driver.

  Memory set to   2.794 GiB by Python driver.
gradient() will perform analytic gradient computation.

*** tstart() called on arancio.prib.upf.edu
*** at Sat Sep 29 20:43:01 2018

   => Loading Basis Set <=

    Name: 6-31G*
    Role: ORBITAL
    Keyword: BASIS
    atoms 1-7         entry C          line   111 file /shared/joao/test_parameterize/miniconda3/share/psi4/basis/6-31gs.gbs 
    atoms 8-12, 15-18 entry H          line    44 file /shared/joao/test_parameterize/miniconda3/share/psi4/basis/6-31gs.gbs 
    atoms 13-14       entry N          line   128 file /shared/joao/test_parameterize/miniconda3/share/psi4/basis/6-31gs.gbs 


         ---------------------------------------------------------
                                   SCF
            by Justin Turney, Rob Parrish, Andy Simmonett
                             and Daniel Smith
                              RKS Reference
                        4 Threads,   2861 MiB Core
         ---------------------------------------------------------

  ==> Geometry <==

    Molecular point group: c1
    Full point group: C1

    Geometry (in Angstrom), charge = 1, multiplicity = 1:

       Center              X                  Y                   Z               Mass       
    ------------   -----------------  -----------------  -----------------  -----------------
         C            0.000000000000     0.000000000000    -0.177864000000    12.000000000000
         C            0.036678000000     1.219374000000     0.524165000000    12.000000000000
         C            0.031765000000     1.213120000000     1.915444000000    12.000000000000
         C            0.000000000000     0.000000000000     2.610107000000    12.000000000000
         C           -0.031765000000    -1.213120000000     1.915444000000    12.000000000000
         C           -0.036678000000    -1.219375000000     0.524165000000    12.000000000000
         C            0.000000000000     0.000000000000    -1.644734000000    12.000000000000
         H            0.018170000000     2.164705000000    -0.010854000000     1.007825032070
         H            0.042402000000     2.152895000000     2.457886000000     1.007825032070
         H            0.000000000000     0.000000000000     3.695756000000     1.007825032070
         H           -0.042402000000    -2.152895000000     2.457886000000     1.007825032070
         H           -0.018170000000    -2.164705000000    -0.010853000000     1.007825032070
         N           -1.094470000000    -0.361476000000    -2.308461000000    14.003074004780
         N            1.094470000000     0.361476000000    -2.308460000000    14.003074004780
         H            1.117362000000     0.466897000000    -3.315997000000     1.007825032070
         H            1.968877000000     0.477788000000    -1.813316000000     1.007825032070
         H           -1.968877000000    -0.477787000000    -1.813317000000     1.007825032070
         H           -1.117363000000    -0.466896000000    -3.315997000000     1.007825032070

  Running in c1 symmetry.

  Rotational constants: A =      0.12190  B =      0.03727  C =      0.03290 [cm^-1]
  Rotational constants: A =   3654.48754  B =   1117.22153  C =    986.34248 [MHz]
  Nuclear repulsion =  415.955054663802684

  Charge       = 1
  Multiplicity = 1
  Electrons    = 64
  Nalpha       = 32
  Nbeta        = 32

  ==> Algorithm <==

  SCF Algorithm Type is DF.
  DIIS enabled.
  MOM disabled.
  Fractional occupation disabled.
  Guess Type is SAD.
  Energy threshold   = 1.00e-08
  Density threshold  = 1.00e-08
  Integral threshold = 0.00e+00

  ==> Primary Basis <==

  Basis Set: 6-31G*
    Blend: 6-31G*
    Number of shells: 72
    Number of basis function: 153
    Number of Cartesian functions: 153
    Spherical Harmonics?: false
    Max angular momentum: 2

  ==> DFT Potential <==

   => Composite Functional: B3LYP-D3ZERO <= 

    B3LYP-d3zero Hyb-GGA Exchange-Correlation Functional

    P. J. Stephens, F. J. Devlin, C. F. Chabalowski, and M. J. Frisch, J. Phys. Chem. 98, 11623 (1994)

    Deriv               =              1
    GGA                 =           TRUE
    Meta                =          FALSE

    Exchange Hybrid     =           TRUE
    MP2 Hybrid          =          FALSE

   => Exchange Functionals <=

    0.0800   Slater exchange
    0.7200         Becke 88

   => Exact (HF) Exchange <=

    0.2000               HF 

   => Correlation Functionals <=

    0.1900   Vosko, Wilk & Nusair (VWN5_RPA)
    0.8100   Lee, Yang & Parr

   => Molecular Quadrature <=

    Radial Scheme       =       TREUTLER
    Pruning Scheme      =           FLAT
    Nuclear Scheme      =       TREUTLER

    BS radius alpha     =              1
    Pruning alpha       =              1
    Radial Points       =             75
    Spherical Points    =            302
    Total Points        =         397304
    Total Blocks        =           3008
    Max Points          =            256
    Max Functions       =            148

   => -D3ZERO: Empirical Dispersion <=

    Grimme's -D3 (zero-damping) Dispersion Correction
    Grimme S.; Antony J.; Ehrlich S.; Krieg H. (2010), J. Chem. Phys., 132: 154104

        S6 =   1.000000E+00
        S8 =   1.703000E+00
       SR6 =   1.261000E+00
       SR8 =   1.000000E+00
    ALPHA6 =   1.400000E+01

   => Loading Basis Set <=

    Name: (6-31G* AUX)
    Role: JKFIT
    Keyword: DF_BASIS_SCF
    atoms 1-7         entry C          line   121 file /shared/joao/test_parameterize/miniconda3/share/psi4/basis/cc-pvdz-jkfit.gbs 
    atoms 8-12, 15-18 entry H          line    51 file /shared/joao/test_parameterize/miniconda3/share/psi4/basis/cc-pvdz-jkfit.gbs 
    atoms 13-14       entry N          line   171 file /shared/joao/test_parameterize/miniconda3/share/psi4/basis/cc-pvdz-jkfit.gbs 

  ==> Pre-Iterations <==

   -------------------------------------------------------
    Irrep   Nso     Nmo     Nalpha   Nbeta   Ndocc  Nsocc
   -------------------------------------------------------
     A        153     153       0       0       0       0
   -------------------------------------------------------
    Total     153     153      32      32      32       0
   -------------------------------------------------------

  ==> Integral Setup <==

  ==> DiskDFJK: Density-Fitted J/K Matrices <==

    J tasked:                  Yes
    K tasked:                  Yes
    wK tasked:                  No
    OpenMP threads:              4
    Integrals threads:           4
    Memory (MB):              2002
    Algorithm:                Core
    Integral Cache:           NONE
    Schwarz Cutoff:          1E-12
    Fitting Condition:       1E-12

   => Auxiliary Basis Set <=

  Basis Set: (6-31G* AUX)
    Blend: CC-PVDZ-JKFIT
    Number of shells: 297
    Number of basis function: 954
    Number of Cartesian functions: 954
    Spherical Harmonics?: false
    Max angular momentum: 3

  Minimum eigenvalue in the overlap matrix is 4.8864939302E-04.
  Using Symmetric Orthogonalization.

  SCF Guess: Superposition of Atomic Densities via on-the-fly atomic UHF.

  ==> Iterations <==

                           Total Energy        Delta E     RMS |[F,P]|

   @DF-RKS iter   0:  -379.69726200157436   -3.79697e+02   6.85318e-02 
   @DF-RKS iter   1:  -381.05917290240671   -1.36191e+00   1.15452e-02 
   @DF-RKS iter   2:  -381.00485109787485    5.43218e-02   1.24021e-02 DIIS
   @DF-RKS iter   3:  -381.46046900908658   -4.55618e-01   1.23489e-03 DIIS
   @DF-RKS iter   4:  -381.46370901681064   -3.24001e-03   6.30333e-04 DIIS
   @DF-RKS iter   5:  -381.46473922553923   -1.03021e-03   2.16846e-04 DIIS
   @DF-RKS iter   6:  -381.46486806134038   -1.28836e-04   8.76839e-05 DIIS
   @DF-RKS iter   7:  -381.46489234483545   -2.42835e-05   1.33849e-05 DIIS
   @DF-RKS iter   8:  -381.46489277611943   -4.31284e-07   4.96871e-06 DIIS
   @DF-RKS iter   9:  -381.46489284698157   -7.08621e-08   8.27886e-07 DIIS
   @DF-RKS iter  10:  -381.46489284777300   -7.91431e-10   6.64475e-07 DIIS
   @DF-RKS iter  11:  -381.46489284916998   -1.39698e-09   1.00263e-07 DIIS
   @DF-RKS iter  12:  -381.46489284919426   -2.42721e-11   5.24707e-08 DIIS
   @DF-RKS iter  13:  -381.46489284920244   -8.18545e-12   1.15816e-08 DIIS
   @DF-RKS iter  14:  -381.46489284920261   -1.70530e-13   4.04592e-09 DIIS

  ==> Post-Iterations <==

    Orbital Energies [Eh]
    ---------------------

    Doubly Occupied:                                                      

       1A    -14.574131     2A    -14.574124     3A    -10.502452  
       4A    -10.368634     5A    -10.350277     6A    -10.350269  
       7A    -10.335380     8A    -10.334292     9A    -10.334158  
      10A     -1.188077    11A     -1.095790    12A     -1.009503  
      13A     -0.924155    14A     -0.896079    15A     -0.845113  
      16A     -0.787636    17A     -0.764406    18A     -0.752187  
      19A     -0.728964    20A     -0.691668    21A     -0.668163  
      22A     -0.620929    23A     -0.618388    24A     -0.575913  
      25A     -0.574899    26A     -0.566971    27A     -0.515894  
      28A     -0.498641    29A     -0.491481    30A     -0.478042  
      31A     -0.405964    32A     -0.399534  

    Virtual:                                                              

      33A     -0.205701    34A     -0.156084    35A     -0.148525  
      36A     -0.112759    37A     -0.066809    38A     -0.063102  
      39A     -0.035089    40A     -0.027847    41A      0.008435  
      42A      0.013851    43A      0.024620    44A      0.057903  
      45A      0.059093    46A      0.074071    47A      0.141372  
      48A      0.145836    49A      0.164618    50A      0.175431  
      51A      0.202632    52A      0.223767    53A      0.292562  
      54A      0.345961    55A      0.356753    56A      0.379248  
      57A      0.392780    58A      0.398949    59A      0.405535  
      60A      0.425071    61A      0.442380    62A      0.451831  
      63A      0.454735    64A      0.466492    65A      0.477189  
      66A      0.480675    67A      0.484420    68A      0.495685  
      69A      0.511858    70A      0.532326    71A      0.561530  
      72A      0.580622    73A      0.595901    74A      0.633939  
      75A      0.666683    76A      0.679792    77A      0.682604  
      78A      0.689172    79A      0.699894    80A      0.710414  
      81A      0.730285    82A      0.749658    83A      0.779114  
      84A      0.788391    85A      0.811724    86A      0.830365  
      87A      0.852266    88A      0.940108    89A      0.967572  
      90A      1.003151    91A      1.018092    92A      1.027453  
      93A      1.033070    94A      1.088349    95A      1.142249  
      96A      1.186967    97A      1.197161    98A      1.290261  
      99A      1.292087   100A      1.327328   101A      1.328151  
     102A      1.352632   103A      1.361750   104A      1.373142  
     105A      1.449655   106A      1.460822   107A      1.491894  
     108A      1.603524   109A      1.604791   110A      1.665815  
     111A      1.666264   112A      1.736762   113A      1.761948  
     114A      1.796055   115A      1.829016   116A      1.845518  
     117A      1.891858   118A      1.910863   119A      1.978572  
     120A      1.985187   121A      1.998435   122A      2.002675  
     123A      2.041477   124A      2.063431   125A      2.122900  
     126A      2.128960   127A      2.165587   128A      2.204087  
     129A      2.214396   130A      2.273571   131A      2.382572  
     132A      2.394230   133A      2.403680   134A      2.442432  
     135A      2.504548   136A      2.571379   137A      2.585973  
     138A      2.589527   139A      2.602237   140A      2.629230  
     141A      2.721255   142A      2.887104   143A      2.927328  
     144A      3.258085   145A      3.631259   146A      3.634023  
     147A      3.941834   148A      3.969801   149A      3.976905  
     150A      4.102715   151A      4.181458   152A      4.262326  
     153A      4.552811  

    Final Occupation by Irrep:
              A 
    DOCC [    32 ]

  Energy converged.

  @DF-RKS Final Energy:  -381.46489284920261

   => Energetics <=

    Nuclear Repulsion Energy =            415.9550546638026844
    One-Electron Energy =               -1327.2505936736167769
    Two-Electron Energy =                 574.2448298454525002
    DFT Exchange-Correlation Energy =     -44.4025438048410521
    Empirical Dispersion Energy =          -0.0116398800000000
    VV10 Nonlocal Energy =                  0.0000000000000000
    Total Energy =                       -381.4648928492026698



Properties will be evaluated at   0.000000,   0.000000,   0.000000 [a0]

Properties computed using the SCF density matrix

  Nuclear Dipole Moment: [e a0]
     X:    -0.0000      Y:    -0.0000      Z:     0.0248

  Electronic Dipole Moment: [e a0]
     X:     0.0000      Y:     0.0000      Z:    -2.5181

  Dipole Moment: [e a0]
     X:     0.0000      Y:     0.0000      Z:    -2.4934     Total:     2.4934

  Dipole Moment: [D]
     X:     0.0000      Y:     0.0000      Z:    -6.3375     Total:     6.3375


*** tstop() called on arancio.prib.upf.edu at Sat Sep 29 20:43:27 2018
Module time:
	user time   =      91.74 seconds =       1.53 minutes
	system time =       0.50 seconds =       0.01 minutes
	total time  =         26 seconds =       0.43 minutes
Total time:
	user time   =      91.74 seconds =       1.53 minutes
	system time =       0.50 seconds =       0.01 minutes
	total time  =         26 seconds =       0.43 minutes

*** tstart() called on arancio.prib.upf.edu
*** at Sat Sep 29 20:43:27 2018


         ------------------------------------------------------------
                                   SCF GRAD                          
                          Rob Parrish, Justin Turney,                
                       Andy Simmonett, and Alex Sokolov              
         ------------------------------------------------------------

  ==> Geometry <==

    Molecular point group: c1
    Full point group: C1

    Geometry (in Angstrom), charge = 1, multiplicity = 1:

       Center              X                  Y                   Z               Mass       
    ------------   -----------------  -----------------  -----------------  -----------------
         C            0.000000000000     0.000000000000    -0.177864000000    12.000000000000
         C            0.036678000000     1.219374000000     0.524165000000    12.000000000000
         C            0.031765000000     1.213120000000     1.915444000000    12.000000000000
         C            0.000000000000     0.000000000000     2.610107000000    12.000000000000
         C           -0.031765000000    -1.213120000000     1.915444000000    12.000000000000
         C           -0.036678000000    -1.219375000000     0.524165000000    12.000000000000
         C            0.000000000000     0.000000000000    -1.644734000000    12.000000000000
         H            0.018170000000     2.164705000000    -0.010854000000     1.007825032070
         H            0.042402000000     2.152895000000     2.457886000000     1.007825032070
         H            0.000000000000     0.000000000000     3.695756000000     1.007825032070
         H           -0.042402000000    -2.152895000000     2.457886000000     1.007825032070
         H           -0.018170000000    -2.164705000000    -0.010853000000     1.007825032070
         N           -1.094470000000    -0.361476000000    -2.308461000000    14.003074004780
         N            1.094470000000     0.361476000000    -2.308460000000    14.003074004780
         H            1.117362000000     0.466897000000    -3.315997000000     1.007825032070
         H            1.968877000000     0.477788000000    -1.813316000000     1.007825032070
         H           -1.968877000000    -0.477787000000    -1.813317000000     1.007825032070
         H           -1.117363000000    -0.466896000000    -3.315997000000     1.007825032070

  Nuclear repulsion =  415.955054663802684

  ==> Basis Set <==

  Basis Set: 6-31G*
    Blend: 6-31G*
    Number of shells: 72
    Number of basis function: 153
    Number of Cartesian functions: 153
    Spherical Harmonics?: false
    Max angular momentum: 2

  ==> DFJKGrad: Density-Fitted SCF Gradients <==

    Gradient:                    1
    J tasked:                  Yes
    K tasked:                  Yes
    wK tasked:                  No
    OpenMP threads:              4
    Integrals threads:           4
    Memory (MB):              2002
    Schwarz Cutoff:          0E+00
    Fitting Condition:       1E-12

   => Auxiliary Basis Set <=

  Basis Set: (6-31G* AUX)
    Blend: CC-PVDZ-JKFIT
    Number of shells: 297
    Number of basis function: 954
    Number of Cartesian functions: 954
    Spherical Harmonics?: false
    Max angular momentum: 3

  ==> DFT Potential <==

   => Composite Functional: B3LYP-D3ZERO <= 

    B3LYP-d3zero Hyb-GGA Exchange-Correlation Functional

    P. J. Stephens, F. J. Devlin, C. F. Chabalowski, and M. J. Frisch, J. Phys. Chem. 98, 11623 (1994)

    Deriv               =              1
    GGA                 =           TRUE
    Meta                =          FALSE

    Exchange Hybrid     =           TRUE
    MP2 Hybrid          =          FALSE

   => Exchange Functionals <=

    0.0800   Slater exchange
    0.7200         Becke 88

   => Exact (HF) Exchange <=

    0.2000               HF 

   => Correlation Functionals <=

    0.1900   Vosko, Wilk & Nusair (VWN5_RPA)
    0.8100   Lee, Yang & Parr

   => Molecular Quadrature <=

    Radial Scheme       =       TREUTLER
    Pruning Scheme      =           FLAT
    Nuclear Scheme      =       TREUTLER

    BS radius alpha     =              1
    Pruning alpha       =              1
    Radial Points       =             75
    Spherical Points    =            302
    Total Points        =         397304
    Total Blocks        =           3008
    Max Points          =            256
    Max Functions       =            148


  -Total Gradient:
     Atom            X                  Y                   Z
    ------   -----------------  -----------------  -----------------
       1        0.000000075844     0.000000599642    -0.011723276850
       2        0.000068536986    -0.000365874060     0.003891394306
       3        0.000788104838     0.001964944181    -0.001661497160
       4        0.000000000787    -0.000000053131     0.000122918178
       5       -0.000788107244    -0.001964717418    -0.001661344682
       6       -0.000068533493     0.000364435675     0.003890972204
       7        0.000000202932     0.000000049342     0.012369524242
       8       -0.001858876268     0.000373839349     0.000962104737
       9       -0.000117494709    -0.000126877347     0.000138782300
      10        0.000000000818     0.000000004264    -0.000016978889
      11        0.000117492825     0.000126847137     0.000138743428
      12        0.001858865492    -0.000373093226     0.000962568391
      13       -0.003333474157    -0.000658757343    -0.003297850436
      14        0.003333235932     0.000658541322    -0.003296587464
      15       -0.000457771025     0.000604650264     0.001220178197
      16        0.000185313972    -0.001823210993    -0.001640146490
      17       -0.000185207866     0.001823240533    -0.001640215802
      18        0.000457634522    -0.000604568054     0.001221116410


*** tstop() called on arancio.prib.upf.edu at Sat Sep 29 20:43:34 2018
Module time:
	user time   =      26.27 seconds =       0.44 minutes
	system time =       0.20 seconds =       0.00 minutes
	total time  =          7 seconds =       0.12 minutes
Total time:
	user time   =     118.06 seconds =       1.97 minutes
	system time =       0.70 seconds =       0.01 minutes
	total time  =         33 seconds =       0.55 minutes

			-----------------------------------------
			 OPTKING 2.0: for geometry optimizations 
			  - R.A. King,  Bethel University        
			-----------------------------------------
	At level 1: Red. Int., RFO, no backsteps, dynamic trust

	Internal coordinates to be generated automatically.
	Detected frag 1 with atoms:  1 2 3 4 5 6 7 8 9 10 11 12 13 14 15 16 17 18
	---Fragment 1 Bond Connectivity---
	 1 : 2 6 7
	 2 : 1 3 8
	 3 : 2 4 9
	 4 : 3 5 10
	 5 : 4 6 11
	 6 : 1 5 12
	 7 : 1 13 14
	 8 : 2
	 9 : 3
	 10 : 4
	 11 : 5
	 12 : 6
	 13 : 7 17 18
	 14 : 7 15 16
	 15 : 14
	 16 : 14
	 17 : 13
	 18 : 13

	Assuming in current code that numbering for constraints corresponds to unified fragment.
	Frozen dihedral atom list: 
	     2     1     7    13
	---Fragment 1 Geometry and Gradient---
	 C           0.0000000000        0.0000000000       -0.3361142489
	 C           0.0693113751        2.3042829136        0.9905282984
	 C           0.0600271506        2.2924645663        3.6196645829
	 C           0.0000000000        0.0000000000        4.9323874075
	 C          -0.0600271506       -2.2924645663        3.6196645829
	 C          -0.0693113751       -2.3042848033        0.9905282984
	 C           0.0000000000        0.0000000000       -3.1080968214
	 H           0.0343363238        4.0906996085       -0.0205110874
	 H           0.0801281675        4.0683819429        4.6447314059
	 H           0.0000000000        0.0000000000        6.9839666940
	 H          -0.0801281675       -4.0683819429        4.6447314059
	 H          -0.0343363238       -4.0906996085       -0.0205091977
	 N          -2.0682485607       -0.6830906436       -4.3623590784
	 N           2.0682485607        0.6830906436       -4.3623571887
	 H           2.1115081713        0.8823074623       -6.2663261875
	 H           3.7206383193        0.9028884696       -3.4266706324
	 H          -3.7206383193       -0.9028865799       -3.4266725221
	 H          -2.1115100610       -0.8823055725       -6.2663261875
	             0.0000000758        0.0000005996       -0.0117232769
	             0.0000685370       -0.0003658741        0.0038913943
	             0.0007881048        0.0019649442       -0.0016614972
	             0.0000000008       -0.0000000531        0.0001229182
	            -0.0007881072       -0.0019647174       -0.0016613447
	            -0.0000685335        0.0003644357        0.0038909722
	             0.0000002029        0.0000000493        0.0123695242
	            -0.0018588763        0.0003738393        0.0009621047
	            -0.0001174947       -0.0001268773        0.0001387823
	             0.0000000008        0.0000000043       -0.0000169789
	             0.0001174928        0.0001268471        0.0001387434
	             0.0018588655       -0.0003730932        0.0009625684
	            -0.0033334742       -0.0006587573       -0.0032978504
	             0.0033332359        0.0006585413       -0.0032965875
	            -0.0004577710        0.0006046503        0.0012201782
	             0.0001853140       -0.0018232110       -0.0016401465
	            -0.0001852079        0.0018232405       -0.0016402158
	             0.0004576345       -0.0006045681        0.0012211164

	Previous optimization step data not found.  Starting new optimization.

	---Fragment 1 Intrafragment Coordinates---
	 - Coordinate -           - BOHR/RAD -       - ANG/DEG -
	 R(1,2)           =         2.659794	       1.407502
	 R(1,6)           =         2.659796	       1.407503
	 R(1,7)           =         2.771983	       1.466870
	 R(2,3)           =         2.629179	       1.391302
	 R(2,8)           =         2.052976	       1.086388
	 R(3,4)           =         2.642393	       1.398294
	 R(3,9)           =         2.050622	       1.085142
	 R(4,5)           =         2.642393	       1.398294
	 R(4,10)          =         2.051579	       1.085649
	 R(5,6)           =         2.629179	       1.391302
	 R(5,11)          =         2.050622	       1.085142
	 R(6,12)          =         2.052973	       1.086386
	 R(7,13)          =         2.513452	       1.330061
	 R(7,14)          =         2.513451	       1.330061
	 R(13,17)         =         1.911599	       1.011575
	 R(13,18)         =         1.914850	       1.013295
	 R(14,15)         =         1.914852	       1.013296
	 R(14,16)         =         1.911599	       1.011575
	 B(1,2,3)         =         2.088380	     119.655376
	 B(1,2,8)         =         2.103396	     120.515689
	 B(1,6,5)         =         2.088379	     119.655315
	 B(1,6,12)        =         2.103396	     120.515729
	 B(1,7,13)        =         2.093264	     119.935176
	 B(1,7,14)        =         2.093263	     119.935139
	 B(2,1,6)         =         2.097220	     120.161857
	 B(2,1,7)         =         2.092983	     119.919082
	 B(2,3,4)         =         2.095279	     120.050636
	 B(2,3,9)         =         2.089719	     119.732108
	 B(3,2,8)         =         2.090149	     119.756722
	 B(3,4,5)         =         2.101793	     120.423859
	 B(3,4,10)        =         2.090696	     119.788070
	 B(4,3,9)         =         2.098135	     120.214297
	 B(4,5,6)         =         2.095280	     120.050677
	 B(4,5,11)        =         2.098135	     120.214297
	 B(5,4,10)        =         2.090696	     119.788070
	 B(5,6,12)        =         2.090149	     119.756743
	 B(6,1,7)         =         2.092982	     119.919061
	 B(6,5,11)        =         2.089719	     119.732067
	 B(7,13,17)       =         2.092411	     119.886340
	 B(7,13,18)       =         2.144860	     122.891453
	 B(7,14,15)       =         2.144859	     122.891373
	 B(7,14,16)       =         2.092412	     119.886391
	 B(13,7,14)       =         2.096659	     120.129685
	 B(15,14,16)      =         2.043400	     117.078184
	 B(17,13,18)      =         2.043399	     117.078146
	 D(1,2,3,4)       =         0.007799	       0.446825
	 D(1,2,3,9)       =        -3.122896	    -178.928735
	 D(1,6,5,4)       =         0.007799	       0.446822
	 D(1,6,5,11)      =        -3.122896	    -178.928737
	 D(1,7,13,17)     =         0.187845	      10.762699
	 D(1,7,13,18)     =        -3.032165	    -173.730276
	 D(1,7,14,15)     =        -3.032164	    -173.730203
	 D(1,7,14,16)     =         0.187843	      10.762640
	 D(2,1,6,5)       =        -0.003906	      -0.223802
	 D(2,1,6,12)      =        -3.091437	    -177.126283
	*D(2,1,7,13)      =        -1.919862	    -109.999995
	 D(2,1,7,14)      =         1.221731	      70.000005
	 D(2,3,4,5)       =        -0.003942	      -0.225875
	 D(2,3,4,10)      =         3.137650	     179.774125
	 D(3,2,1,6)       =        -0.003906	      -0.223806
	 D(3,2,1,7)       =         3.137687	     179.776196
	 D(3,4,5,6)       =        -0.003942	      -0.225874
	 D(3,4,5,11)      =         3.126699	     179.146646
	 D(4,3,2,8)       =         3.095744	     177.373058
	 D(4,5,6,12)      =         3.095744	     177.373055
	 D(5,4,3,9)       =         3.126699	     179.146646
	 D(5,6,1,7)       =         3.137687	     179.776197
	 D(6,1,2,8)       =        -3.091437	    -177.126287
	 D(6,1,7,13)      =         1.221731	      70.000006
	 D(6,1,7,14)      =        -1.919862	    -109.999994
	 D(6,5,4,10)      =         3.137650	     179.774126
	 D(7,1,2,8)       =         0.050156	       2.873714
	 D(7,1,6,12)      =         0.050156	       2.873716
	 D(8,2,3,9)       =        -0.034950	      -2.002503
	 D(9,3,4,10)      =        -0.014894	      -0.853354
	 D(10,4,5,11)     =        -0.014894	      -0.853354
	 D(11,5,6,12)     =        -0.034950	      -2.002504
	 D(13,7,14,15)    =         0.109429	       6.269797
	 D(13,7,14,16)    =        -2.953749	    -169.237360
	 D(14,7,13,17)    =        -2.953748	    -169.237301
	 D(14,7,13,18)    =         0.109427	       6.269724

	Current energy   :      -381.4648928492

	Generating empirical Hessian (Schlegel '84) for each fragment.
	Taking RFO optimization step.
	Going to follow RFO solution 1.
	Using RFO vector 1.
	Norm of target step-size    0.31955
	Projected energy change by RFO approximation:        -0.0026740737

	Back-transformation to cartesian coordinates...
	Could not converge backtransformation.
	Using first guess instead.

	Back-transformation to cartesian coordinates to adjust frozen coordinates...
	Successfully converged to displaced geometry.

	--- Internal Coordinate Step in ANG or DEG, aJ/ANG or AJ/DEG ---
	 ---------------------------------------------------------------------------
	   Coordinate                Previous        Force       Change         New 
	   ----------                --------       ------       ------       ------
	    1 R(1,2)          =      1.407502    -0.023875    -0.003419     1.404083
	    2 R(1,6)          =      1.407503    -0.023873    -0.001825     1.405678
	    3 R(1,7)          =      1.466870     0.040729     0.007452     1.474322
	    4 R(2,3)          =      1.391302     0.012128     0.002002     1.393303
	    5 R(2,8)          =      1.086388     0.000967     0.002207     1.088595
	    6 R(3,4)          =      1.398294    -0.003200     0.000209     1.398503
	    7 R(3,9)          =      1.085142     0.000339     0.000240     1.085382
	    8 R(4,5)          =      1.398294    -0.003194    -0.000161     1.398133
	    9 R(4,10)         =      1.085649     0.000131     0.000292     1.085941
	   10 R(5,6)          =      1.391302     0.012139     0.001871     1.393173
	   11 R(5,11)         =      1.085142     0.000339     0.001451     1.086593
	   12 R(6,12)         =      1.086386     0.000975     0.002352     1.088739
	   13 R(7,13)         =      1.330061    -0.034766    -0.003132     1.326929
	   14 R(7,14)         =      1.330061    -0.034762     0.000119     1.330180
	   15 R(13,17)        =      1.011575     0.007017     0.007505     1.019079
	   16 R(13,18)        =      1.013295     0.009580     0.003389     1.016683
	   17 R(14,15)        =      1.013296     0.009572     0.001459     1.014755
	   18 R(14,16)        =      1.011575     0.007016     0.006610     1.018185
	   19 B(1,2,3)        =    119.655376    -0.000120    -0.401889   119.253487
	   20 B(1,2,8)        =    120.515689    -0.000016    -0.161138   120.354551
	   21 B(1,6,5)        =    119.655315    -0.000120    -0.391063   119.264252
	   22 B(1,6,12)       =    120.515729    -0.000017    -0.019374   120.496356
	   23 B(1,7,13)       =    119.935176    -0.000186    -0.564725   119.370451
	   24 B(1,7,14)       =    119.935139    -0.000186    -0.641226   119.293912
	   25 B(2,1,6)        =    120.161857     0.000236     0.628214   120.790070
	   26 B(2,1,7)        =    119.919082    -0.000118    -0.346793   119.572289
	   27 B(2,3,4)        =    120.050636     0.000011     0.087007   120.137643
	   28 B(2,3,9)        =    119.732108    -0.000020    -0.134029   119.598079
	   29 B(3,2,8)        =    119.756722     0.000138     0.633223   120.389945
	   30 B(3,4,5)        =    120.423859    -0.000020    -0.006236   120.417623
	   31 B(3,4,10)       =    119.788070     0.000010     0.027277   119.815347
	   32 B(4,3,9)        =    120.214297     0.000009     0.049944   120.264241
	   33 B(4,5,6)        =    120.050677     0.000011     0.043533   120.094210
	   34 B(4,5,11)       =    120.214297     0.000009     0.045441   120.259737
	   35 B(5,4,10)       =    119.788070     0.000010    -0.023483   119.764587
	   36 B(5,6,12)       =    119.756743     0.000139     0.473848   120.230591
	   37 B(6,1,7)        =    119.919061    -0.000118    -0.435093   119.483968
	   38 B(6,5,11)       =    119.732067    -0.000020    -0.089043   119.643023
	   39 B(7,13,17)      =    119.886340    -0.000110    -0.540525   119.345815
	   40 B(7,13,18)      =    122.891453     0.000074     0.274988   123.166441
	   41 B(7,14,15)      =    122.891373     0.000074     0.340692   123.232064
	   42 B(7,14,16)      =    119.886391    -0.000110    -0.232197   119.654194
	   43 B(13,7,14)      =    120.129685     0.000371     1.061016   121.190701
	   44 B(15,14,16)     =    117.078184     0.000041     0.005278   117.083462
	   45 B(17,13,18)     =    117.078146     0.000041     0.379063   117.457210
	   46 D(1,2,3,4)      =      0.446825    -0.000001    -0.487151    -0.040326
	   47 D(1,2,3,9)      =   -178.928735    -0.000006    -1.182063  -180.110798
	   48 D(1,6,5,4)      =      0.446822     0.000006     1.188851     1.635673
	   49 D(1,6,5,11)     =   -178.928737    -0.000001    -0.067035  -178.995772
	   50 D(1,7,13,17)    =     10.762699    -0.000041    -6.302712     4.459987
	   51 D(1,7,13,18)    =   -173.730276    -0.000023    -3.872508  -177.602784
	   52 D(1,7,14,15)    =   -173.730203    -0.000001     0.421927  -173.308276
	   53 D(1,7,14,16)    =     10.762640    -0.000019    -2.009421     8.753218
	   54 D(2,1,6,5)      =     -0.223802    -0.000011    -2.302934    -2.526735
	   55 D(2,1,6,12)     =   -177.126283    -0.000024    -4.323750  -181.450033
	   56 *D(2,1,7,13)    =   -109.999995     0.000000    -0.000000  -109.999995
	   57 D(2,1,7,14)     =     70.000005    -0.000022    -4.322982    65.677022
	   58 D(2,3,4,5)      =     -0.225875    -0.000003    -0.607575    -0.833450
	   59 D(2,3,4,10)     =    179.774125    -0.000001    -0.037732   179.736392
	   60 D(3,2,1,6)      =     -0.223806     0.000008     1.951916     1.728110
	   61 D(3,2,1,7)      =    179.776196    -0.000012    -2.577092   177.199104
	   62 D(3,4,5,6)      =     -0.225874     0.000001     0.248760     0.022885
	   63 D(3,4,5,11)     =    179.146646     0.000008     1.511613   180.658259
	   64 D(4,3,2,8)      =    177.373058     0.000013     2.071886   179.444944
	   65 D(4,5,6,12)     =    177.373055     0.000018     3.188837   180.561893
	   66 D(5,4,3,9)      =    179.146646     0.000002     0.090849   179.237495
	   67 D(5,6,1,7)      =    179.776197     0.000010     2.222113   181.998310
	   68 D(6,1,2,8)      =   -177.126287    -0.000008    -0.631059  -177.757346
	   69 D(6,1,7,13)     =     70.000006    -0.000020    -4.469341    65.530665
	   70 D(6,1,7,14)     =   -109.999994    -0.000042    -8.792323  -118.792317
	   71 D(6,5,4,10)     =    179.774126    -0.000002    -0.320794   179.453332
	   72 D(7,1,2,8)      =      2.873714    -0.000028    -5.160067    -2.286352
	   73 D(7,1,6,12)     =      2.873716    -0.000004     0.201297     3.075013
	   74 D(8,2,3,9)      =     -2.002503     0.000009     1.376974    -0.625528
	   75 D(9,3,4,10)     =     -0.853354     0.000004     0.660691    -0.192663
	   76 D(10,4,5,11)    =     -0.853354     0.000005     0.942059     0.088706
	   77 D(11,5,6,12)    =     -2.002504     0.000011     1.932951    -0.069552
	   78 D(13,7,14,15)   =      6.269797    -0.000023    -3.982163     2.287634
	   79 D(13,7,14,16)   =   -169.237360    -0.000041    -6.413511  -175.650872
	   80 D(14,7,13,17)   =   -169.237301    -0.000019    -1.895308  -171.132609
	   81 D(14,7,13,18)   =      6.269724    -0.000001     0.534896     6.804620
	 ---------------------------------------------------------------------------
	Successfully symmetrized geometry.

  ==> Convergence Check <==

  Measures of convergence in internal coordinates in au.
  Criteria marked as inactive (o), active & met (*), and active & unmet ( ).
  --------------------------------------------------------------------------------------------- ~
   Step     Total Energy     Delta E     MAX Force     RMS Force      MAX Disp      RMS Disp    ~
  --------------------------------------------------------------------------------------------- ~
    Convergence Criteria    1.00e-06 *    3.00e-04 *             o    1.20e-03 *             o  ~
  --------------------------------------------------------------------------------------------- ~
      1    -381.46489285   -3.81e+02      4.94e-03      1.53e-03 o    1.53e-01      3.56e-02 o  ~
  ---------------------------------------------------------------------------------------------

	Writing optimization data to binary file.
	Structure for next step:
	Cartesian Geometry (in Angstrom)
	    C     0.0535627422  -0.0198397110  -0.1765007598
	    C     0.0883220509   1.2054183103   0.5083238928
	    C     0.0532199445   1.2081580371   1.9011823069
	    C    -0.0167045234   0.0012118400   2.6041774968
	    C    -0.0694887100  -1.2157182528   1.9178324227
	    C    -0.0522111483  -1.2334333536   0.5248790399
	    C     0.0277093948  -0.0290200179  -1.6505674152
	    H     0.1336639906   2.1428320909  -0.0432542134
	    H     0.0816327544   2.1520328145   2.4362971312
	    H    -0.0394694068   0.0092578825   3.6898495844
	    H    -0.1345401190  -2.1513946057   2.4664330737
	    H    -0.1024307478  -2.1792837478  -0.0119610099
	    N    -1.0773081622  -0.4082608833  -2.2797356308
	    N     1.0819057493   0.4249593019  -2.3228400744
	    H     1.0918017658   0.5381911763  -3.3312088586
	    H     1.9407442161   0.6468738109  -1.8229892924
	    H    -1.9128760052  -0.6217825854  -1.7368199941
	    H    -1.1475347858  -0.4702011069  -3.2920976999
			--------------------------
			 OPTKING Finished Execution 
			--------------------------

    Structure for next step:
    Molecular point group: c1
    Full point group: C1

    Geometry (in Angstrom), charge = 1, multiplicity = 1:

    C            0.053562742239    -0.019839710987    -0.176500759843
    C            0.088322050947     1.205418310294     0.508323892813
    C            0.053219944469     1.208158037133     1.901182306918
    C           -0.016704523439     0.001211839986     2.604177496786
    C           -0.069488709993    -1.215718252786     1.917832422653
    C           -0.052211148298    -1.233433353593     0.524879039950
    C            0.027709394829    -0.029020017928    -1.650567415151
    H            0.133663990568     2.142832090872    -0.043254213363
    H            0.081632754427     2.152032814462     2.436297131154
    H           -0.039469406754     0.009257882527     3.689849584443
    H           -0.134540119033    -2.151394605717     2.466433073740
    H           -0.102430747832    -2.179283747825    -0.011961009915
    N           -1.077308162225    -0.408260883312    -2.279735630769
    N            1.081905749251     0.424959301899    -2.322840074421
    H            1.091801765788     0.538191176296    -3.331208858576
    H            1.940744216065     0.646873810937    -1.822989292414
    H           -1.912876005249    -0.621782585371    -1.736819994069
    H           -1.147534785761    -0.470201106888    -3.292097699936

gradient() will perform analytic gradient computation.

*** tstart() called on arancio.prib.upf.edu
*** at Sat Sep 29 20:43:35 2018

   => Loading Basis Set <=

    Name: 6-31G*
    Role: ORBITAL
    Keyword: BASIS
    atoms 1-7         entry C          line   111 file /shared/joao/test_parameterize/miniconda3/share/psi4/basis/6-31gs.gbs 
    atoms 8-12, 15-18 entry H          line    44 file /shared/joao/test_parameterize/miniconda3/share/psi4/basis/6-31gs.gbs 
    atoms 13-14       entry N          line   128 file /shared/joao/test_parameterize/miniconda3/share/psi4/basis/6-31gs.gbs 


         ---------------------------------------------------------
                                   SCF
            by Justin Turney, Rob Parrish, Andy Simmonett
                             and Daniel Smith
                              RKS Reference
                        4 Threads,   2861 MiB Core
         ---------------------------------------------------------

  ==> Geometry <==

    Molecular point group: c1
    Full point group: C1

    Geometry (in Angstrom), charge = 1, multiplicity = 1:

       Center              X                  Y                   Z               Mass       
    ------------   -----------------  -----------------  -----------------  -----------------
         C            0.053562742239    -0.019839710987    -0.176500759843    12.000000000000
         C            0.088322050947     1.205418310294     0.508323892813    12.000000000000
         C            0.053219944469     1.208158037133     1.901182306918    12.000000000000
         C           -0.016704523439     0.001211839986     2.604177496786    12.000000000000
         C           -0.069488709993    -1.215718252786     1.917832422653    12.000000000000
         C           -0.052211148298    -1.233433353593     0.524879039950    12.000000000000
         C            0.027709394829    -0.029020017928    -1.650567415151    12.000000000000
         H            0.133663990568     2.142832090872    -0.043254213363     1.007825032070
         H            0.081632754427     2.152032814462     2.436297131154     1.007825032070
         H           -0.039469406754     0.009257882527     3.689849584443     1.007825032070
         H           -0.134540119033    -2.151394605717     2.466433073740     1.007825032070
         H           -0.102430747832    -2.179283747825    -0.011961009915     1.007825032070
         N           -1.077308162225    -0.408260883312    -2.279735630769    14.003074004780
         N            1.081905749251     0.424959301899    -2.322840074421    14.003074004780
         H            1.091801765788     0.538191176296    -3.331208858576     1.007825032070
         H            1.940744216065     0.646873810937    -1.822989292414     1.007825032070
         H           -1.912876005249    -0.621782585371    -1.736819994069     1.007825032070
         H           -1.147534785761    -0.470201106888    -3.292097699936     1.007825032070

  Running in c1 symmetry.

  Rotational constants: A =      0.12141  B =      0.03774  C =      0.03278 [cm^-1]
  Rotational constants: A =   3639.88996  B =   1131.35270  C =    982.75258 [MHz]
  Nuclear repulsion =  416.159280071349087

  Charge       = 1
  Multiplicity = 1
  Electrons    = 64
  Nalpha       = 32
  Nbeta        = 32

  ==> Algorithm <==

  SCF Algorithm Type is DF.
  DIIS enabled.
  MOM disabled.
  Fractional occupation disabled.
  Guess Type is READ.
  Energy threshold   = 1.00e-08
  Density threshold  = 1.00e-08
  Integral threshold = 0.00e+00

  ==> Primary Basis <==

  Basis Set: 6-31G*
    Blend: 6-31G*
    Number of shells: 72
    Number of basis function: 153
    Number of Cartesian functions: 153
    Spherical Harmonics?: false
    Max angular momentum: 2

  ==> DFT Potential <==

   => Composite Functional: B3LYP-D3ZERO <= 

    B3LYP-d3zero Hyb-GGA Exchange-Correlation Functional

    P. J. Stephens, F. J. Devlin, C. F. Chabalowski, and M. J. Frisch, J. Phys. Chem. 98, 11623 (1994)

    Deriv               =              1
    GGA                 =           TRUE
    Meta                =          FALSE

    Exchange Hybrid     =           TRUE
    MP2 Hybrid          =          FALSE

   => Exchange Functionals <=

    0.0800   Slater exchange
    0.7200         Becke 88

   => Exact (HF) Exchange <=

    0.2000               HF 

   => Correlation Functionals <=

    0.1900   Vosko, Wilk & Nusair (VWN5_RPA)
    0.8100   Lee, Yang & Parr

   => Molecular Quadrature <=

    Radial Scheme       =       TREUTLER
    Pruning Scheme      =           FLAT
    Nuclear Scheme      =       TREUTLER

    BS radius alpha     =              1
    Pruning alpha       =              1
    Radial Points       =             75
    Spherical Points    =            302
    Total Points        =         397245
    Total Blocks        =           3001
    Max Points          =            256
    Max Functions       =            151

   => -D3ZERO: Empirical Dispersion <=

    Grimme's -D3 (zero-damping) Dispersion Correction
    Grimme S.; Antony J.; Ehrlich S.; Krieg H. (2010), J. Chem. Phys., 132: 154104

        S6 =   1.000000E+00
        S8 =   1.703000E+00
       SR6 =   1.261000E+00
       SR8 =   1.000000E+00
    ALPHA6 =   1.400000E+01

   => Loading Basis Set <=

    Name: (6-31G* AUX)
    Role: JKFIT
    Keyword: DF_BASIS_SCF
    atoms 1-7         entry C          line   121 file /shared/joao/test_parameterize/miniconda3/share/psi4/basis/cc-pvdz-jkfit.gbs 
    atoms 8-12, 15-18 entry H          line    51 file /shared/joao/test_parameterize/miniconda3/share/psi4/basis/cc-pvdz-jkfit.gbs 
    atoms 13-14       entry N          line   171 file /shared/joao/test_parameterize/miniconda3/share/psi4/basis/cc-pvdz-jkfit.gbs 

  Reading orbitals from file 180, no projection.

  ==> Pre-Iterations <==

   -------------------------------------------------------
    Irrep   Nso     Nmo     Nalpha   Nbeta   Ndocc  Nsocc
   -------------------------------------------------------
     A        153     153       0       0       0       0
   -------------------------------------------------------
    Total     153     153      32      32      32       0
   -------------------------------------------------------

  ==> Integral Setup <==

  ==> DiskDFJK: Density-Fitted J/K Matrices <==

    J tasked:                  Yes
    K tasked:                  Yes
    wK tasked:                  No
    OpenMP threads:              4
    Integrals threads:           4
    Memory (MB):              2002
    Algorithm:                Core
    Integral Cache:           NONE
    Schwarz Cutoff:          1E-12
    Fitting Condition:       1E-12

   => Auxiliary Basis Set <=

  Basis Set: (6-31G* AUX)
    Blend: CC-PVDZ-JKFIT
    Number of shells: 297
    Number of basis function: 954
    Number of Cartesian functions: 954
    Spherical Harmonics?: false
    Max angular momentum: 3

  Minimum eigenvalue in the overlap matrix is 4.8890040090E-04.
  Using Symmetric Orthogonalization.

  SCF Guess: Orbitals guess was supplied from a previous computation.

  ==> Iterations <==

                           Total Energy        Delta E     RMS |[F,P]|

   @DF-RKS iter   0:  -381.44219737786284   -3.81442e+02   2.11373e-03 
   @DF-RKS iter   1:  -381.46581862636793   -2.36212e-02   2.16529e-04 
   @DF-RKS iter   2:  -381.46576791874190    5.07076e-05   2.92413e-04 DIIS
   @DF-RKS iter   3:  -381.46603126298726   -2.63344e-04   6.93470e-05 DIIS
   @DF-RKS iter   4:  -381.46604476774132   -1.35048e-05   2.79569e-05 DIIS
   @DF-RKS iter   5:  -381.46604693942044   -2.17168e-06   8.48254e-06 DIIS
   @DF-RKS iter   6:  -381.46604713488239   -1.95462e-07   3.17179e-06 DIIS
   @DF-RKS iter   7:  -381.46604716249266   -2.76103e-08   7.15105e-07 DIIS
   @DF-RKS iter   8:  -381.46604716381381   -1.32115e-09   2.55397e-07 DIIS
   @DF-RKS iter   9:  -381.46604716400202   -1.88209e-10   5.35796e-08 DIIS
   @DF-RKS iter  10:  -381.46604716400964   -7.61702e-12   2.25299e-08 DIIS
   @DF-RKS iter  11:  -381.46604716401009   -4.54747e-13   5.61337e-09 DIIS

  ==> Post-Iterations <==

    Orbital Energies [Eh]
    ---------------------

    Doubly Occupied:                                                      

       1A    -14.574809     2A    -14.574117     3A    -10.501531  
       4A    -10.369019     5A    -10.351165     6A    -10.350487  
       7A    -10.335995     8A    -10.335284     9A    -10.335033  
      10A     -1.186835    11A     -1.095450    12A     -1.009823  
      13A     -0.923192    14A     -0.896423    15A     -0.844141  
      16A     -0.786003    17A     -0.766297    18A     -0.750793  
      19A     -0.728266    20A     -0.689481    21A     -0.667201  
      22A     -0.621494    23A     -0.617838    24A     -0.577916  
      25A     -0.574406    26A     -0.567856    27A     -0.516197  
      28A     -0.498770    29A     -0.492621    30A     -0.477419  
      31A     -0.406392    32A     -0.399958  

    Virtual:                                                              

      33A     -0.204288    34A     -0.153172    35A     -0.150509  
      36A     -0.113189    37A     -0.068220    38A     -0.065301  
      39A     -0.036322    40A     -0.031346    41A      0.008344  
      42A      0.013424    43A      0.023598    44A      0.057034  
      45A      0.059355    46A      0.074350    47A      0.140461  
      48A      0.142724    49A      0.163121    50A      0.175276  
      51A      0.200105    52A      0.226532    53A      0.293073  
      54A      0.343999    55A      0.357381    56A      0.383254  
      57A      0.387859    58A      0.398977    59A      0.408382  
      60A      0.425396    61A      0.445805    62A      0.450158  
      63A      0.451288    64A      0.466596    65A      0.475988  
      66A      0.480189    67A      0.484966    68A      0.498002  
      69A      0.512432    70A      0.533649    71A      0.555527  
      72A      0.583893    73A      0.586690    74A      0.641332  
      75A      0.663440    76A      0.679241    77A      0.680268  
      78A      0.688797    79A      0.698847    80A      0.709890  
      81A      0.729510    82A      0.748663    83A      0.778362  
      84A      0.794090    85A      0.812058    86A      0.833051  
      87A      0.851460    88A      0.939133    89A      0.968167  
      90A      1.002851    91A      1.010840    92A      1.027053  
      93A      1.035955    94A      1.084591    95A      1.146615  
      96A      1.187126    97A      1.202620    98A      1.284610  
      99A      1.304109   100A      1.321020   101A      1.329336  
     102A      1.346481   103A      1.360076   104A      1.375773  
     105A      1.449819   106A      1.456251   107A      1.485907  
     108A      1.591184   109A      1.619116   110A      1.657541  
     111A      1.669655   112A      1.738733   113A      1.763885  
     114A      1.795246   115A      1.824694   116A      1.850522  
     117A      1.894965   118A      1.912234   119A      1.972591  
     120A      1.985914   121A      1.999810   122A      2.000931  
     123A      2.042432   124A      2.069953   125A      2.123758  
     126A      2.133177   127A      2.163845   128A      2.180248  
     129A      2.219903   130A      2.271776   131A      2.374334  
     132A      2.388567   133A      2.410932   134A      2.446526  
     135A      2.501503   136A      2.565705   137A      2.582574  
     138A      2.591480   139A      2.597965   140A      2.630824  
     141A      2.722871   142A      2.885170   143A      2.932764  
     144A      3.258197   145A      3.630210   146A      3.639098  
     147A      3.939718   148A      3.969311   149A      3.972764  
     150A      4.095640   151A      4.182972   152A      4.261216  
     153A      4.551160  

    Final Occupation by Irrep:
              A 
    DOCC [    32 ]

  Energy converged.

  @DF-RKS Final Energy:  -381.46604716401009

   => Energetics <=

    Nuclear Repulsion Energy =            416.1592800713490874
    One-Electron Energy =               -1327.6667426613828411
    Two-Electron Energy =                 574.4473893247366050
    DFT Exchange-Correlation Energy =     -44.3941991587129436
    Empirical Dispersion Energy =          -0.0117747400000000
    VV10 Nonlocal Energy =                  0.0000000000000000
    Total Energy =                       -381.4660471640101491



Properties will be evaluated at   0.000000,   0.000000,   0.000000 [a0]

Properties computed using the SCF density matrix

  Nuclear Dipole Moment: [e a0]
     X:     0.8497      Y:    -0.5970      Z:    -0.1660

  Electronic Dipole Moment: [e a0]
     X:    -0.8776      Y:     0.6210      Z:    -2.3065

  Dipole Moment: [e a0]
     X:    -0.0279      Y:     0.0240      Z:    -2.4724     Total:     2.4727

  Dipole Moment: [D]
     X:    -0.0710      Y:     0.0609      Z:    -6.2843     Total:     6.2850


*** tstop() called on arancio.prib.upf.edu at Sat Sep 29 20:43:55 2018
Module time:
	user time   =      74.02 seconds =       1.23 minutes
	system time =       0.36 seconds =       0.01 minutes
	total time  =         20 seconds =       0.33 minutes
Total time:
	user time   =     193.23 seconds =       3.22 minutes
	system time =       1.13 seconds =       0.02 minutes
	total time  =         54 seconds =       0.90 minutes

*** tstart() called on arancio.prib.upf.edu
*** at Sat Sep 29 20:43:55 2018


         ------------------------------------------------------------
                                   SCF GRAD                          
                          Rob Parrish, Justin Turney,                
                       Andy Simmonett, and Alex Sokolov              
         ------------------------------------------------------------

  ==> Geometry <==

    Molecular point group: c1
    Full point group: C1

    Geometry (in Angstrom), charge = 1, multiplicity = 1:

       Center              X                  Y                   Z               Mass       
    ------------   -----------------  -----------------  -----------------  -----------------
         C            0.053562742239    -0.019839710987    -0.176500759843    12.000000000000
         C            0.088322050947     1.205418310294     0.508323892813    12.000000000000
         C            0.053219944469     1.208158037133     1.901182306918    12.000000000000
         C           -0.016704523439     0.001211839986     2.604177496786    12.000000000000
         C           -0.069488709993    -1.215718252786     1.917832422653    12.000000000000
         C           -0.052211148298    -1.233433353593     0.524879039950    12.000000000000
         C            0.027709394829    -0.029020017928    -1.650567415151    12.000000000000
         H            0.133663990568     2.142832090872    -0.043254213363     1.007825032070
         H            0.081632754427     2.152032814462     2.436297131154     1.007825032070
         H           -0.039469406754     0.009257882527     3.689849584443     1.007825032070
         H           -0.134540119033    -2.151394605717     2.466433073740     1.007825032070
         H           -0.102430747832    -2.179283747825    -0.011961009915     1.007825032070
         N           -1.077308162225    -0.408260883312    -2.279735630769    14.003074004780
         N            1.081905749251     0.424959301899    -2.322840074421    14.003074004780
         H            1.091801765788     0.538191176296    -3.331208858576     1.007825032070
         H            1.940744216065     0.646873810937    -1.822989292414     1.007825032070
         H           -1.912876005249    -0.621782585371    -1.736819994069     1.007825032070
         H           -1.147534785761    -0.470201106888    -3.292097699936     1.007825032070

  Nuclear repulsion =  416.159280071349087

  ==> Basis Set <==

  Basis Set: 6-31G*
    Blend: 6-31G*
    Number of shells: 72
    Number of basis function: 153
    Number of Cartesian functions: 153
    Spherical Harmonics?: false
    Max angular momentum: 2

  ==> DFJKGrad: Density-Fitted SCF Gradients <==

    Gradient:                    1
    J tasked:                  Yes
    K tasked:                  Yes
    wK tasked:                  No
    OpenMP threads:              4
    Integrals threads:           4
    Memory (MB):              2002
    Schwarz Cutoff:          0E+00
    Fitting Condition:       1E-12

   => Auxiliary Basis Set <=

  Basis Set: (6-31G* AUX)
    Blend: CC-PVDZ-JKFIT
    Number of shells: 297
    Number of basis function: 954
    Number of Cartesian functions: 954
    Spherical Harmonics?: false
    Max angular momentum: 3

  ==> DFT Potential <==

   => Composite Functional: B3LYP-D3ZERO <= 

    B3LYP-d3zero Hyb-GGA Exchange-Correlation Functional

    P. J. Stephens, F. J. Devlin, C. F. Chabalowski, and M. J. Frisch, J. Phys. Chem. 98, 11623 (1994)

    Deriv               =              1
    GGA                 =           TRUE
    Meta                =          FALSE

    Exchange Hybrid     =           TRUE
    MP2 Hybrid          =          FALSE

   => Exchange Functionals <=

    0.0800   Slater exchange
    0.7200         Becke 88

   => Exact (HF) Exchange <=

    0.2000               HF 

   => Correlation Functionals <=

    0.1900   Vosko, Wilk & Nusair (VWN5_RPA)
    0.8100   Lee, Yang & Parr

   => Molecular Quadrature <=

    Radial Scheme       =       TREUTLER
    Pruning Scheme      =           FLAT
    Nuclear Scheme      =       TREUTLER

    BS radius alpha     =              1
    Pruning alpha       =              1
    Radial Points       =             75
    Spherical Points    =            302
    Total Points        =         397245
    Total Blocks        =           3001
    Max Points          =            256
    Max Functions       =            151


  -Total Gradient:
     Atom            X                  Y                   Z
    ------   -----------------  -----------------  -----------------
       1        0.004779176665     0.004342228282    -0.003266171637
       2       -0.004792833422    -0.001366138326     0.001702087209
       3       -0.000421447500     0.000592512578    -0.000488936632
       4        0.000237706315    -0.000347355685     0.000499197593
       5        0.000608115404     0.000468607481    -0.000533213909
       6        0.000911816059     0.000464182415     0.001099912392
       7       -0.001119301679    -0.010349603328     0.004378474577
       8       -0.000091422043     0.001316189128    -0.000744947484
       9        0.000373856760     0.000084036534    -0.000000413973
      10       -0.000110490671    -0.000081408101     0.000235216747
      11       -0.000387215633    -0.000800722036     0.000392390534
      12       -0.000543617997    -0.001545362150    -0.000473839587
      13        0.001568607622     0.004379182166    -0.001698856497
      14       -0.000672369209     0.001176067179    -0.003602061752
      15       -0.000112816711     0.000260928104    -0.000181266877
      16        0.004695543349     0.001318886997     0.001666003021
      17       -0.005211355422    -0.000058543320     0.002912322381
      18        0.000291929736     0.000142331205    -0.001892635696


*** tstop() called on arancio.prib.upf.edu at Sat Sep 29 20:44:02 2018
Module time:
	user time   =      25.08 seconds =       0.42 minutes
	system time =       0.20 seconds =       0.00 minutes
	total time  =          7 seconds =       0.12 minutes
Total time:
	user time   =     218.37 seconds =       3.64 minutes
	system time =       1.34 seconds =       0.02 minutes
	total time  =         61 seconds =       1.02 minutes

			-----------------------------------------
			 OPTKING 2.0: for geometry optimizations 
			  - R.A. King,  Bethel University        
			-----------------------------------------
	At level 1: Red. Int., RFO, no backsteps, dynamic trust

	Previous internal coordinate definitions found.
	---Fragment 1 Geometry and Gradient---
	 C           0.1012189138       -0.0374916203       -0.3335380983
	 C           0.1669044878        2.2779104820        0.9605929442
	 C           0.1005711199        2.2830878154        3.5927138888
	 C          -0.0315669745        0.0022900457        4.9211822703
	 C          -0.1313146312       -2.2973745525        3.6241780476
	 C          -0.0986647714       -2.3308512415        0.9918776384
	 C           0.0523631675       -0.0548398863       -3.1191203785
	 H           0.2525883360        4.0493658005       -0.0817386173
	 H           0.1542635493        4.0667526483        4.6039343562
	 H          -0.0745863694        0.0174948625        6.9728051861
	 H          -0.2542439789       -4.0655466086        4.6608830345
	 H          -0.1935660610       -4.1182494492       -0.0226030330
	 N          -2.0358173873       -0.7715012602       -4.3080759975
	 N           2.0445055677        0.8030566982       -4.3895315911
	 H           2.0632063287        1.0170339303       -6.2950724342
	 H           3.6674750623        1.2224143452       -3.4449505058
	 H          -3.6148117761       -1.1749988005       -3.2821141309
	 H          -2.1685264730       -0.8885513194       -6.2211630556
	             0.0047791767        0.0043422283       -0.0032661716
	            -0.0047928334       -0.0013661383        0.0017020872
	            -0.0004214475        0.0005925126       -0.0004889366
	             0.0002377063       -0.0003473557        0.0004991976
	             0.0006081154        0.0004686075       -0.0005332139
	             0.0009118161        0.0004641824        0.0010999124
	            -0.0011193017       -0.0103496033        0.0043784746
	            -0.0000914220        0.0013161891       -0.0007449475
	             0.0003738568        0.0000840365       -0.0000004140
	            -0.0001104907       -0.0000814081        0.0002352167
	            -0.0003872156       -0.0008007220        0.0003923905
	            -0.0005436180       -0.0015453622       -0.0004738396
	             0.0015686076        0.0043791822       -0.0016988565
	            -0.0006723692        0.0011760672       -0.0036020618
	            -0.0001128167        0.0002609281       -0.0001812669
	             0.0046955433        0.0013188870        0.0016660030
	            -0.0052113554       -0.0000585433        0.0029123224
	             0.0002919297        0.0001423312       -0.0018926357

	---Fragment 1 Intrafragment Coordinates---
	 - Coordinate -           - BOHR/RAD -       - ANG/DEG -
	 R(1,2)           =         2.653333	       1.404083
	 R(1,6)           =         2.656347	       1.405678
	 R(1,7)           =         2.786065	       1.474322
	 R(2,3)           =         2.632962	       1.393303
	 R(2,8)           =         2.057146	       1.088595
	 R(3,4)           =         2.642788	       1.398503
	 R(3,9)           =         2.051075	       1.085382
	 R(4,5)           =         2.642088	       1.398133
	 R(4,10)          =         2.052130	       1.085941
	 R(5,6)           =         2.632716	       1.393173
	 R(5,11)          =         2.053363	       1.086593
	 R(6,12)          =         2.057418	       1.088739
	 R(7,13)          =         2.507532	       1.326929
	 R(7,14)          =         2.513675	       1.330180
	 R(13,17)         =         1.925781	       1.019079
	 R(13,18)         =         1.921253	       1.016683
	 R(14,15)         =         1.917608	       1.014755
	 R(14,16)         =         1.924090	       1.018185
	 B(1,2,3)         =         2.081366	     119.253487
	 B(1,2,8)         =         2.100583	     120.354551
	 B(1,6,5)         =         2.081554	     119.264252
	 B(1,6,12)        =         2.103058	     120.496356
	 B(1,7,13)        =         2.083407	     119.370451
	 B(1,7,14)        =         2.082072	     119.293912
	 B(2,1,6)         =         2.108184	     120.790070
	 B(2,1,7)         =         2.086930	     119.572289
	 B(2,3,4)         =         2.096797	     120.137643
	 B(2,3,9)         =         2.087380	     119.598079
	 B(3,2,8)         =         2.101201	     120.389945
	 B(3,4,5)         =         2.101684	     120.417623
	 B(3,4,10)        =         2.091172	     119.815347
	 B(4,3,9)         =         2.099007	     120.264241
	 B(4,5,6)         =         2.096039	     120.094210
	 B(4,5,11)        =         2.098928	     120.259737
	 B(5,4,10)        =         2.090286	     119.764587
	 B(5,6,12)        =         2.098420	     120.230591
	 B(6,1,7)         =         2.085389	     119.483968
	 B(6,5,11)        =         2.088165	     119.643023
	 B(7,13,17)       =         2.082977	     119.345815
	 B(7,13,18)       =         2.149660	     123.166441
	 B(7,14,15)       =         2.150805	     123.232064
	 B(7,14,16)       =         2.088360	     119.654194
	 B(13,7,14)       =         2.115177	     121.190701
	 B(15,14,16)      =         2.043492	     117.083462
	 B(17,13,18)      =         2.050015	     117.457210
	 D(1,2,3,4)       =        -0.000704	      -0.040326
	 D(1,2,3,9)       =         3.139659	     179.889202
	 D(1,6,5,4)       =         0.028548	       1.635673
	 D(1,6,5,11)      =        -3.124066	    -178.995772
	 D(1,7,13,17)     =         0.077841	       4.459987
	 D(1,7,13,18)     =        -3.099753	    -177.602784
	 D(1,7,14,15)     =        -3.024800	    -173.308276
	 D(1,7,14,16)     =         0.152772	       8.753218
	 D(2,1,6,5)       =        -0.044100	      -2.526735
	 D(2,1,6,12)      =         3.116285	     178.549967
	*D(2,1,7,13)      =        -1.919862	    -109.999995
	 D(2,1,7,14)      =         1.146280	      65.677022
	 D(2,3,4,5)       =        -0.014546	      -0.833450
	 D(2,3,4,10)      =         3.136992	     179.736392
	 D(3,2,1,6)       =         0.030161	       1.728110
	 D(3,2,1,7)       =         3.092708	     177.199104
	 D(3,4,5,6)       =         0.000399	       0.022885
	 D(3,4,5,11)      =        -3.130104	    -179.341741
	 D(4,3,2,8)       =         3.131905	     179.444944
	 D(4,5,6,12)      =        -3.131786	    -179.438107
	 D(5,4,3,9)       =         3.128284	     179.237495
	 D(5,6,1,7)       =        -3.106716	    -178.001690
	 D(6,1,2,8)       =        -3.102451	    -177.757346
	 D(6,1,7,13)      =         1.143726	      65.530665
	 D(6,1,7,14)      =        -2.073317	    -118.792317
	 D(6,5,4,10)      =         3.132051	     179.453332
	 D(7,1,2,8)       =        -0.039904	      -2.286352
	 D(7,1,6,12)      =         0.053669	       3.075013
	 D(8,2,3,9)       =        -0.010918	      -0.625528
	 D(9,3,4,10)      =        -0.003363	      -0.192663
	 D(10,4,5,11)     =         0.001548	       0.088706
	 D(11,5,6,12)     =        -0.001214	      -0.069552
	 D(13,7,14,15)    =         0.039927	       2.287634
	 D(13,7,14,16)    =        -3.065686	    -175.650872
	 D(14,7,13,17)    =        -2.986827	    -171.132609
	 D(14,7,13,18)    =         0.118763	       6.804620

	Current energy   :      -381.4660471640

	Energy change for the previous step:
		Projected    :        -0.0026740737
		Actual       :        -0.0011543148

	Performing BFGS update.
	Previous computed or guess Hessian on step 1.
	Steps to be used in Hessian update: 1
	Taking RFO optimization step.
	Going to follow RFO solution 1.
	Using RFO vector 1.
	Norm of target step-size    0.12641
	Projected energy change by RFO approximation:        -0.0007794269

	Back-transformation to cartesian coordinates...
	Could not converge backtransformation.
	Using first guess instead.

	Back-transformation to cartesian coordinates to adjust frozen coordinates...
	Successfully converged to displaced geometry.

	--- Internal Coordinate Step in ANG or DEG, aJ/ANG or AJ/DEG ---
	 ---------------------------------------------------------------------------
	   Coordinate                Previous        Force       Change         New 
	   ----------                --------       ------       ------       ------
	    1 R(1,2)          =      1.404083    -0.003401    -0.000844     1.403240
	    2 R(1,6)          =      1.405678    -0.011468    -0.001669     1.404009
	    3 R(1,7)          =      1.474322     0.012779     0.003354     1.477676
	    4 R(2,3)          =      1.393303    -0.000348     0.000334     1.393638
	    5 R(2,8)          =      1.088595    -0.012417    -0.001940     1.086655
	    6 R(3,4)          =      1.398503    -0.006259    -0.000786     1.397717
	    7 R(3,9)          =      1.085382    -0.000680    -0.000048     1.085334
	    8 R(4,5)          =      1.398133    -0.001862    -0.000319     1.397813
	    9 R(4,10)         =      1.085941    -0.001950    -0.000255     1.085685
	   10 R(5,6)          =      1.393173    -0.000435     0.000235     1.393408
	   11 R(5,11)         =      1.086593    -0.007503    -0.001175     1.085418
	   12 R(6,12)         =      1.088739    -0.013193    -0.002105     1.086633
	   13 R(7,13)         =      1.326929    -0.015145    -0.001871     1.325058
	   14 R(7,14)         =      1.330180    -0.042092    -0.004466     1.325713
	   15 R(13,17)        =      1.019079    -0.048091    -0.004061     1.015018
	   16 R(13,18)        =      1.016683    -0.015289    -0.001583     1.015100
	   17 R(14,15)        =      1.014755    -0.001717    -0.000014     1.014741
	   18 R(14,16)        =      1.018185    -0.041734    -0.005083     1.013102
	   19 B(1,2,3)        =    119.253487    -0.000024    -0.116696   119.136792
	   20 B(1,2,8)        =    120.354551     0.000010    -0.001704   120.352848
	   21 B(1,6,5)        =    119.264252    -0.000016    -0.090018   119.174234
	   22 B(1,6,12)       =    120.496356    -0.000022    -0.128154   120.368202
	   23 B(1,7,13)       =    119.370451    -0.000024    -0.117643   119.252807
	   24 B(1,7,14)       =    119.293912    -0.000010    -0.077370   119.216542
	   25 B(2,1,6)        =    120.790070     0.000045     0.176332   120.966403
	   26 B(2,1,7)        =    119.572289    -0.000089    -0.364798   119.207490
	   27 B(2,3,4)        =    120.137643    -0.000009    -0.005005   120.132638
	   28 B(2,3,9)        =    119.598079     0.000009     0.019238   119.617316
	   29 B(3,2,8)        =    120.389945     0.000014     0.118459   120.508404
	   30 B(3,4,5)        =    120.417623     0.000013     0.043350   120.460973
	   31 B(3,4,10)       =    119.815347    -0.000013    -0.047815   119.767532
	   32 B(4,3,9)        =    120.264241    -0.000000    -0.015319   120.248921
	   33 B(4,5,6)        =    120.094210    -0.000009    -0.024098   120.070113
	   34 B(4,5,11)       =    120.259737    -0.000001    -0.006304   120.253433
	   35 B(5,4,10)       =    119.764587     0.000000     0.005644   119.770231
	   36 B(5,6,12)       =    120.230591     0.000037     0.211916   120.442507
	   37 B(6,1,7)        =    119.483968     0.000042     0.005840   119.489808
	   38 B(6,5,11)       =    119.643023     0.000010     0.032532   119.675555
	   39 B(7,13,17)      =    119.345815    -0.000035    -0.242419   119.103396
	   40 B(7,13,18)      =    123.166441     0.000054     0.311329   123.477770
	   41 B(7,14,15)      =    123.232064     0.000049     0.265983   123.498047
	   42 B(7,14,16)      =    119.654194    -0.000094    -0.477755   119.176440
	   43 B(13,7,14)      =    121.190701     0.000037     0.265747   121.456448
	   44 B(15,14,16)     =    117.083462     0.000045     0.204132   117.287594
	   45 B(17,13,18)     =    117.457210    -0.000016    -0.050716   117.406493
	   46 D(1,2,3,4)      =     -0.040326     0.000000    -0.057703    -0.098030
	   47 D(1,2,3,9)      =    179.889202     0.000003     0.397612   180.286814
	   48 D(1,6,5,4)      =      1.635673     0.000001     0.378851     2.014525
	   49 D(1,6,5,11)     =   -178.995772     0.000004     0.666343  -178.329429
	   50 D(1,7,13,17)    =      4.459987    -0.000014    -2.692781     1.767206
	   51 D(1,7,13,18)    =   -177.602784     0.000006     0.682506  -176.920278
	   52 D(1,7,14,15)    =   -173.308276    -0.000008    -1.418194  -174.726471
	   53 D(1,7,14,16)    =      8.753218    -0.000005    -1.176742     7.576476
	   54 D(2,1,6,5)      =     -2.526735    -0.000001    -0.463476    -2.990212
	   55 D(2,1,6,12)     =    178.549967     0.000002    -0.134964   178.415003
	   56 *D(2,1,7,13)    =   -109.999995     0.000000     0.000000  -109.999995
	   57 D(2,1,7,14)     =     65.677022     0.000009     1.236901    66.913923
	   58 D(2,3,4,5)      =     -0.833450     0.000000    -0.016594    -0.850044
	   59 D(2,3,4,10)     =    179.736392    -0.000001    -0.176636   179.559756
	   60 D(3,2,1,6)      =      1.728110     0.000000     0.302654     2.030764
	   61 D(3,2,1,7)      =    177.199104    -0.000008    -1.861222   175.337882
	   62 D(3,4,5,6)      =      0.022885    -0.000001    -0.146905    -0.124019
	   63 D(3,4,5,11)     =   -179.341741    -0.000004    -0.436319  -179.778060
	   64 D(4,3,2,8)      =    179.444944    -0.000001    -0.049985   179.394959
	   65 D(4,5,6,12)     =   -179.438107    -0.000002     0.046347  -179.391760
	   66 D(5,4,3,9)      =    179.237495    -0.000003    -0.474833   178.762662
	   67 D(5,6,1,7)      =   -178.001690     0.000008     1.723015  -176.278675
	   68 D(6,1,2,8)      =   -177.757346     0.000002     0.294313  -177.463033
	   69 D(6,1,7,13)     =     65.530665    -0.000008    -2.123338    63.407327
	   70 D(6,1,7,14)     =   -118.792317     0.000002    -0.886438  -119.678755
	   71 D(6,5,4,10)     =    179.453332     0.000000     0.012838   179.466170
	   72 D(7,1,2,8)      =     -2.286352    -0.000006    -1.869563    -4.155915
	   73 D(7,1,6,12)     =      3.075013     0.000011     2.051527     5.126540
	   74 D(8,2,3,9)      =     -0.625528     0.000002     0.405331    -0.220198
	   75 D(9,3,4,10)     =     -0.192663    -0.000004    -0.634875    -0.827538
	   76 D(10,4,5,11)    =      0.088706    -0.000002    -0.276577    -0.187871
	   77 D(11,5,6,12)    =     -0.069552     0.000001     0.333839     0.264286
	   78 D(13,7,14,15)   =      2.287634     0.000000    -0.170568     2.117066
	   79 D(13,7,14,16)   =   -175.650872     0.000004     0.070885  -175.579987
	   80 D(14,7,13,17)   =   -171.132609    -0.000023    -3.942602  -175.075211
	   81 D(14,7,13,18)   =      6.804620    -0.000003    -0.567315     6.237305
	 ---------------------------------------------------------------------------
	Successfully symmetrized geometry.

  ==> Convergence Check <==

  Measures of convergence in internal coordinates in au.
  Criteria marked as inactive (o), active & met (*), and active & unmet ( ).
  ---------------------------------------------------------------------------------------------
   Step     Total Energy     Delta E     MAX Force     RMS Force      MAX Disp      RMS Disp   
  ---------------------------------------------------------------------------------------------
    Convergence Criteria    1.00e-06 *    3.00e-04 *             o    1.20e-03 *             o
  ---------------------------------------------------------------------------------------------
      2    -381.46604716   -1.15e-03      5.84e-03      1.19e-03 o    6.88e-02      1.40e-02 o  ~
  ---------------------------------------------------------------------------------------------

	Writing optimization data to binary file.
	Structure for next step:
	Cartesian Geometry (in Angstrom)
	    C     0.0781559932  -0.0163823268  -0.1754208981
	    C     0.1090936262   1.2079056312   0.5095926992
	    C     0.0550410669   1.2078305929   1.9021816144
	    C    -0.0308852798   0.0003841827   2.6009686215
	    C    -0.0812512093  -1.2149216404   1.9122186813
	    C    -0.0485643525  -1.2298819883   0.5192745735
	    C     0.0305002095  -0.0152832179  -1.6523276014
	    H     0.1660912966   2.1434696832  -0.0402163094
	    H     0.0737379081   2.1505038359   2.4397392618
	    H    -0.0654294552   0.0068698693   3.6860846367
	    H    -0.1515805099  -2.1504009862   2.4581719810
	    H    -0.0973024153  -2.1705507166  -0.0225179188
	    N    -1.0790031523  -0.4023611023  -2.2646602144
	    N     1.0767261789   0.4312112713  -2.3331873626
	    H     1.0857093354   0.5336018319  -3.3427093694
	    H     1.9308230206   0.6543457349  -1.8360909837
	    H    -1.8845023623  -0.6666029057  -1.7064406184
	    H    -1.1673608988  -0.4697367492  -3.2736607930
			--------------------------
			 OPTKING Finished Execution 
			--------------------------

    Structure for next step:
    Molecular point group: c1
    Full point group: C1

    Geometry (in Angstrom), charge = 1, multiplicity = 1:

    C            0.078155993237    -0.016382326785    -0.175420898094
    C            0.109093626247     1.207905631250     0.509592699213
    C            0.055041066892     1.207830592910     1.902181614360
    C           -0.030885279822     0.000384182723     2.600968621456
    C           -0.081251209262    -1.214921640358     1.912218681262
    C           -0.048564352480    -1.229881988265     0.519274573497
    C            0.030500209506    -0.015283217908    -1.652327601406
    H            0.166091296622     2.143469683195    -0.040216309356
    H            0.073737908063     2.150503835909     2.439739261778
    H           -0.065429455223     0.006869869261     3.686084636687
    H           -0.151580509940    -2.150400986232     2.458171980952
    H           -0.097302415336    -2.170550716605    -0.022517918831
    N           -1.079003152263    -0.402361102255    -2.264660214407
    N            1.076726178904     0.431211271266    -2.333187362645
    H            1.085709335364     0.533601831946    -3.342709369392
    H            1.930823020621     0.654345734901    -1.836090983736
    H           -1.884502362296    -0.666602905702    -1.706440618359
    H           -1.167360898833    -0.469736749249    -3.273660792978

gradient() will perform analytic gradient computation.

*** tstart() called on arancio.prib.upf.edu
*** at Sat Sep 29 20:44:02 2018

   => Loading Basis Set <=

    Name: 6-31G*
    Role: ORBITAL
    Keyword: BASIS
    atoms 1-7         entry C          line   111 file /shared/joao/test_parameterize/miniconda3/share/psi4/basis/6-31gs.gbs 
    atoms 8-12, 15-18 entry H          line    44 file /shared/joao/test_parameterize/miniconda3/share/psi4/basis/6-31gs.gbs 
    atoms 13-14       entry N          line   128 file /shared/joao/test_parameterize/miniconda3/share/psi4/basis/6-31gs.gbs 


         ---------------------------------------------------------
                                   SCF
            by Justin Turney, Rob Parrish, Andy Simmonett
                             and Daniel Smith
                              RKS Reference
                        4 Threads,   2861 MiB Core
         ---------------------------------------------------------

  ==> Geometry <==

    Molecular point group: c1
    Full point group: C1

    Geometry (in Angstrom), charge = 1, multiplicity = 1:

[...]
	             0.0000063303        0.0000006665        0.0000165777
	             0.0001850513       -0.0065870698       -0.0000655679
	            -0.0000053343        0.0000033736        0.0000010701
	             0.0000023949       -0.0000011491        0.0000016914
	             0.0000044366        0.0000010884        0.0000022602
	             0.0000010378        0.0000009561        0.0000044951
	             0.0000057870       -0.0000021855       -0.0000049995
	            -0.0016050345        0.0045896525        0.0000881064
	            -0.0000340838        0.0000174322       -0.0000025150
	             0.0000071742       -0.0000118145        0.0000024624
	             0.0000158203       -0.0000023582        0.0000104560
	             0.0000234884        0.0000132171       -0.0000167521
	             0.0000007611        0.0000068607       -0.0000044329

	---Fragment 1 Intrafragment Coordinates---
	 - Coordinate -           - BOHR/RAD -       - ANG/DEG -
	 R(1,2)           =         2.652681	       1.403738
	 R(1,6)           =         2.652607	       1.403699
	 R(1,7)           =         2.793336	       1.478170
	 R(2,3)           =         2.633466	       1.393570
	 R(2,8)           =         2.052878	       1.086336
	 R(3,4)           =         2.640976	       1.397544
	 R(3,9)           =         2.050880	       1.085279
	 R(4,5)           =         2.641689	       1.397921
	 R(4,10)          =         2.051547	       1.085632
	 R(5,6)           =         2.632913	       1.393277
	 R(5,11)          =         2.050850	       1.085263
	 R(6,12)          =         2.053125	       1.086467
	 R(7,13)          =         2.504446	       1.325296
	 R(7,14)          =         2.504426	       1.325285
	 R(13,17)         =         1.913168	       1.012405
	 R(13,18)         =         1.917262	       1.014571
	 R(14,15)         =         1.917115	       1.014493
	 R(14,16)         =         1.913280	       1.012464
	 B(1,2,3)         =         2.079403	     119.141017
	 B(1,2,8)         =         2.101792	     120.423819
	 B(1,6,5)         =         2.080191	     119.186179
	 B(1,6,12)        =         2.101168	     120.388081
	 B(1,7,13)        =         2.079346	     119.137777
	 B(1,7,14)        =         2.081665	     119.270647
	 B(2,1,6)         =         2.111305	     120.968842
	 B(2,1,7)         =         2.078242	     119.074512
	 B(2,3,4)         =         2.096308	     120.109612
	 B(2,3,9)         =         2.088236	     119.647092
	 B(3,2,8)         =         2.101939	     120.432215
	 B(3,4,5)         =         2.102996	     120.492822
	 B(3,4,10)        =         2.090072	     119.752321
	 B(4,3,9)         =         2.098620	     120.242066
	 B(4,5,6)         =         2.095398	     120.057480
	 B(4,5,11)        =         2.098515	     120.236029
	 B(5,4,10)        =         2.090101	     119.753977
	 B(5,6,12)        =         2.101433	     120.403243
	 B(6,1,7)         =         2.089073	     119.695071
	 B(6,5,11)        =         2.089265	     119.706064
	 B(7,13,17)       =         2.079461	     119.144351
	 B(7,13,18)       =         2.154586	     123.448702
	 B(7,14,15)       =         2.155599	     123.506733
	 B(7,14,16)       =         2.079974	     119.173754
	 B(13,7,14)       =         2.120290	     121.483660
	 B(15,14,16)      =         2.047340	     117.303961
	 B(17,13,18)      =         2.048270	     117.357231
	 D(1,2,3,4)       =        -0.001891	      -0.108319
	 D(1,2,3,9)       =        -3.136459	    -179.705867
	 D(1,6,5,4)       =         0.031646	       1.813178
	 D(1,6,5,11)      =        -3.114084	    -178.423864
	 D(1,7,13,17)     =         0.013340	       0.764321
	 D(1,7,13,18)     =        -3.082264	    -176.600716
	 D(1,7,14,15)     =        -3.041352	    -174.256628
	 D(1,7,14,16)     =         0.125981	       7.218169
	 D(2,1,6,5)       =        -0.045322	      -2.596767
	 D(2,1,6,12)      =         3.126259	     179.121452
	*D(2,1,7,13)      =        -1.919862	    -109.999995
	 D(2,1,7,14)      =         1.156806	      66.280084
	 D(2,3,4,5)       =        -0.011361	      -0.650952
	 D(2,3,4,10)      =         3.136202	     179.691123
	 D(3,2,1,6)       =         0.030425	       1.743249
	 D(3,2,1,7)       =         3.069162	     175.850013
	 D(3,4,5,6)       =        -0.003754	      -0.215115
	 D(3,4,5,11)      =        -3.141188	    -179.976804
	 D(4,3,2,8)       =         3.128848	     179.269758
	 D(4,5,6,12)      =        -3.139940	    -179.905308
	 D(5,4,3,9)       =         3.123165	     178.944181
	 D(5,6,1,7)       =        -3.083427	    -176.667349
	 D(6,1,2,8)       =        -3.100314	    -177.634881
	 D(6,1,7,13)      =         1.120208	      64.183198
	 D(6,1,7,14)      =        -2.086309	    -119.536722
	 D(6,5,4,10)      =         3.131868	     179.442804
	 D(7,1,2,8)       =        -0.061577	      -3.528117
	 D(7,1,6,12)      =         0.088154	       5.050870
	 D(8,2,3,9)       =        -0.005721	      -0.327790
	 D(9,3,4,10)      =        -0.012457	      -0.713744
	 D(10,4,5,11)     =        -0.005566	      -0.318885
	 D(11,5,6,12)     =        -0.002484	      -0.142350
	 D(13,7,14,15)    =         0.033741	       1.933190
	 D(13,7,14,16)    =        -3.082112	    -176.592013
	 D(14,7,13,17)    =        -3.061839	    -175.430441
	 D(14,7,13,18)    =         0.125743	       7.204523

	Current energy   :      -381.4663052120

	Energy change for the previous step:
		Projected    :        -0.0000010402
		Actual       :        -0.0000003219

	Performing BFGS update.
	Previous computed or guess Hessian on step 1.
	Steps to be used in Hessian update: 5 4
	Taking RFO optimization step.
	Going to follow RFO solution 1.
	Rejecting RFO root 1 because normalization gives large value.
	Rejecting RFO root 2 because normalization gives large value.
	Using RFO vector 3.
	Norm of target step-size    0.00135
	Projected energy change by RFO approximation:         0.0000000010

	Back-transformation to cartesian coordinates...
	Successfully converged to displaced geometry.

	Back-transformation to cartesian coordinates to adjust frozen coordinates...
	Successfully converged to displaced geometry.

	--- Internal Coordinate Step in ANG or DEG, aJ/ANG or AJ/DEG ---
	 ---------------------------------------------------------------------------
	   Coordinate                Previous        Force       Change         New 
	   ----------                --------       ------       ------       ------
	    1 R(1,2)          =      1.403738     0.000026     0.000009     1.403747
	    2 R(1,6)          =      1.403699    -0.000029    -0.000011     1.403688
	    3 R(1,7)          =      1.478170    -0.000223    -0.000045     1.478125
	    4 R(2,3)          =      1.393570    -0.000090    -0.000013     1.393557
	    5 R(2,8)          =      1.086336    -0.000017    -0.000001     1.086335
	    6 R(3,4)          =      1.397544     0.000101     0.000015     1.397559
	    7 R(3,9)          =      1.085279     0.000004     0.000001     1.085280
	    8 R(4,5)          =      1.397921    -0.000068    -0.000011     1.397910
	    9 R(4,10)         =      1.085632    -0.000015    -0.000002     1.085629
	   10 R(5,6)          =      1.393277     0.000045     0.000007     1.393285
	   11 R(5,11)         =      1.085263    -0.000011    -0.000002     1.085262
	   12 R(6,12)         =      1.086467    -0.000037    -0.000004     1.086462
	   13 R(7,13)         =      1.325296     0.000144     0.000019     1.325315
	   14 R(7,14)         =      1.325285     0.000134     0.000011     1.325296
	   15 R(13,17)        =      1.012405     0.000245     0.000044     1.012449
	   16 R(13,18)        =      1.014571    -0.000031    -0.000001     1.014570
	   17 R(14,15)        =      1.014493     0.000024     0.000004     1.014497
	   18 R(14,16)        =      1.012464    -0.000131    -0.000015     1.012450
	   19 B(1,2,3)        =    119.141017     0.000000     0.001468   119.142485
	   20 B(1,2,8)        =    120.423819    -0.000000    -0.001240   120.422580
	   21 B(1,6,5)        =    119.186179     0.000000     0.000782   119.186961
	   22 B(1,6,12)       =    120.388081     0.000000     0.001734   120.389815
	   23 B(1,7,13)       =    119.137777     0.000001     0.004750   119.142527
	   24 B(1,7,14)       =    119.270647    -0.000001    -0.001120   119.269528
	   25 B(2,1,6)        =    120.968842    -0.000000    -0.001909   120.966933
	   26 B(2,1,7)        =    119.074512     0.000001     0.002033   119.076546
	   27 B(2,3,4)        =    120.109612     0.000000    -0.000069   120.109543
	   28 B(2,3,9)        =    119.647092    -0.000000    -0.000548   119.646544
	   29 B(3,2,8)        =    120.432215     0.000000    -0.000160   120.432055
	   30 B(3,4,5)        =    120.492822    -0.000000    -0.001272   120.491550
	   31 B(3,4,10)       =    119.752321     0.000000     0.001119   119.753440
	   32 B(4,3,9)        =    120.242066     0.000000     0.000628   120.242694
	   33 B(4,5,6)        =    120.057480     0.000000     0.000822   120.058301
	   34 B(4,5,11)       =    120.236029     0.000000     0.001106   120.237135
	   35 B(5,4,10)       =    119.753977     0.000000     0.000057   119.754034
	   36 B(5,6,12)       =    120.403243    -0.000000    -0.002397   120.400846
	   37 B(6,1,7)        =    119.695071    -0.000001    -0.000090   119.694981
	   38 B(6,5,11)       =    119.706064    -0.000000    -0.001893   119.704171
	   39 B(7,13,17)      =    119.144351    -0.000000    -0.000584   119.143766
	   40 B(7,13,18)      =    123.448702     0.000000    -0.000525   123.448176
	   41 B(7,14,15)      =    123.506733    -0.000000    -0.001198   123.505535
	   42 B(7,14,16)      =    119.173754     0.000000     0.002053   119.175807
	   43 B(13,7,14)      =    121.483660    -0.000001    -0.003351   121.480309
	   44 B(15,14,16)     =    117.303961    -0.000000     0.000182   117.304143
	   45 B(17,13,18)     =    117.357231    -0.000000    -0.000459   117.356772
	   46 D(1,2,3,4)      =     -0.108319    -0.000000     0.001225    -0.107094
	   47 D(1,2,3,9)      =   -179.705867     0.000000    -0.000528  -179.706395
	   48 D(1,6,5,4)      =      1.813178     0.000000    -0.007484     1.805694
	   49 D(1,6,5,11)     =   -178.423864     0.000000     0.002229  -178.421635
	   50 D(1,7,13,17)    =      0.764321    -0.000000    -0.016569     0.747752
	   51 D(1,7,13,18)    =   -176.600716     0.000000     0.024672  -176.576044
	   52 D(1,7,14,15)    =   -174.256628     0.000000     0.028254  -174.228374
	   53 D(1,7,14,16)    =      7.218169    -0.000000    -0.021745     7.196425
	   54 D(2,1,6,5)      =     -2.596767    -0.000000    -0.004224    -2.600991
	   55 D(2,1,6,12)     =    179.121452    -0.000000    -0.008744   179.112708
	   56 *D(2,1,7,13)    =   -109.999995     0.000000    -0.000000  -109.999995
	   57 D(2,1,7,14)     =     66.280084    -0.000000     0.004694    66.284778
	   58 D(2,3,4,5)      =     -0.650952    -0.000000    -0.012991    -0.663943
	   59 D(2,3,4,10)     =    179.691123     0.000000     0.005126   179.696249
	   60 D(3,2,1,6)      =      1.743249     0.000000     0.007376     1.750625
	   61 D(3,2,1,7)      =    175.850013     0.000000     0.007760   175.857773
	   62 D(3,4,5,6)      =     -0.215115     0.000000     0.016186    -0.198928
	   63 D(3,4,5,11)     =   -179.976804     0.000000     0.006428  -179.970376
	   64 D(4,3,2,8)      =    179.269758     0.000000     0.008436   179.278194
	   65 D(4,5,6,12)     =   -179.905308     0.000000    -0.002890  -179.908198
	   66 D(5,4,3,9)      =    178.944181    -0.000000    -0.011233   178.932948
	   67 D(5,6,1,7)      =   -176.667349    -0.000000    -0.004732  -176.672081
	   68 D(6,1,2,8)      =   -177.634881     0.000000     0.000159  -177.634722
	   69 D(6,1,7,13)     =     64.183198    -0.000000     0.000267    64.183465
	   70 D(6,1,7,14)     =   -119.536722    -0.000000     0.004961  -119.531761
	   71 D(6,5,4,10)     =    179.442804    -0.000000    -0.001927   179.440877
	   72 D(7,1,2,8)      =     -3.528117    -0.000000     0.000542    -3.527575
	   73 D(7,1,6,12)     =      5.050870    -0.000000    -0.009253     5.041617
	   74 D(8,2,3,9)      =     -0.327790     0.000000     0.006683    -0.321107
	   75 D(9,3,4,10)     =     -0.713744     0.000000     0.006884    -0.706860
	   76 D(10,4,5,11)    =     -0.318885    -0.000000    -0.011685    -0.330570
	   77 D(11,5,6,12)    =     -0.142350     0.000000     0.006823    -0.135527
	   78 D(13,7,14,15)   =      1.933190     0.000000     0.033374     1.966565
	   79 D(13,7,14,16)   =   -176.592013    -0.000000    -0.016624  -176.608637
	   80 D(14,7,13,17)   =   -175.430441    -0.000000    -0.021465  -175.451906
	   81 D(14,7,13,18)   =      7.204523     0.000000     0.019776     7.224299
	 ---------------------------------------------------------------------------
	Successfully symmetrized geometry.

  ==> Convergence Check <==

  Measures of convergence in internal coordinates in au.
  Criteria marked as inactive (o), active & met (*), and active & unmet ( ).
  ---------------------------------------------------------------------------------------------
   Step     Total Energy     Delta E     MAX Force     RMS Force      MAX Disp      RMS Disp   
  ---------------------------------------------------------------------------------------------
    Convergence Criteria    1.00e-06 *    3.00e-04 *             o    1.20e-03 *             o
  ---------------------------------------------------------------------------------------------
      6    -381.46630521   -3.22e-07 *    2.97e-05 *    7.18e-06 o    5.82e-04 *    1.49e-04 o  ~
  ---------------------------------------------------------------------------------------------


  **** Optimization is complete! (in 6 steps) ****

  ==> Optimization Summary <==

  Measures of convergence in internal coordinates in au.
  --------------------------------------------------------------------------------------------------------------- ~
   Step         Total Energy             Delta E       MAX Force       RMS Force        MAX Disp        RMS Disp  ~
  --------------------------------------------------------------------------------------------------------------- ~
      1    -381.464892849203   -381.464892849203      0.00494364      0.00152657      0.15345499      0.03556222  ~
      2    -381.466047164010     -0.001154314807      0.00583725      0.00118708      0.06881139      0.01402678  ~
      3    -381.466277611266     -0.000230447255      0.00226838      0.00031166      0.01765045      0.00532877  ~
      4    -381.466300526498     -0.000022915233      0.00064668      0.00013305      0.00584711      0.00161655  ~
      5    -381.466304890106     -0.000004363607      0.00017827      0.00002913      0.00210776      0.00057417  ~
      6    -381.466305211976     -0.000000321870      0.00002969      0.00000718      0.00058249      0.00014948  ~
  --------------------------------------------------------------------------------------------------------------- ~

	Writing optimization data to binary file.
	Final energy is   -381.4663052119760
	Final (previous) structure:
	Cartesian Geometry (in Angstrom)
	    C     0.0705941499  -0.0208572139  -0.1757613271
	    C     0.1081545671   1.2048969592   0.5073174169
	    C     0.0586322036   1.2074595599   1.9000052640
	    C    -0.0295526748   0.0014357985   2.6006191544
	    C    -0.0825651999  -1.2153197511   1.9144122786
	    C    -0.0521716694  -1.2328878443   0.5215772092
	    C     0.0297072317  -0.0187904459  -1.6533642231
	    H     0.1648108894   2.1398206565  -0.0429865791
	    H     0.0823039229   2.1506809842   2.4362916993
	    H    -0.0627060719   0.0099200335   3.6857115048
	    H    -0.1513899856  -2.1493848331   2.4626655690
	    H    -0.0946089792  -2.1752398975  -0.0174793538
	    N    -1.0814023145  -0.3972207868  -2.2686970534
	    N     1.0767523295   0.4310192317  -2.3299358751
	    H     1.0869591446   0.5403426433  -3.3384700050
	    H     1.9259587574   0.6616043028  -1.8291738160
	    H    -1.8838557082  -0.6690184672  -1.7144780986
	    H    -1.1656215926  -0.4684599297  -3.2772537650
	Saving final (previous) structure.
	Removing binary optimization data file.
			--------------------------
			 OPTKING Finished Execution 
			--------------------------

    Final optimized geometry and variables:
    Molecular point group: c1
    Full point group: C1

    Geometry (in Angstrom), charge = 1, multiplicity = 1:

    C            0.070594149900    -0.020857213942    -0.175761327085
    C            0.108154567108     1.204896959158     0.507317416944
    C            0.058632203554     1.207459559877     1.900005263979
    C           -0.029552674754     0.001435798530     2.600619154378
    C           -0.082565199897    -1.215319751070     1.914412278639
    C           -0.052171669381    -1.232887844349     0.521577209211
    C            0.029707231676    -0.018790445878    -1.653364223071
    H            0.164810889423     2.139820656542    -0.042986579140
    H            0.082303922900     2.150680984220     2.436291699297
    H           -0.062706071933     0.009920033478     3.685711504819
    H           -0.151389985564    -2.149384833125     2.462665568982
    H           -0.094608979218    -2.175239897527    -0.017479353776
    N           -1.081402314549    -0.397220786835    -2.268697053394
    N            1.076752329498     0.431019231728    -2.329935875140
    H            1.086959144641     0.540342643273    -3.338470005020
    H            1.925958757392     0.661604302793    -1.829173816009
    H           -1.883855708226    -0.669018467222    -1.714478098609
    H           -1.165621592570    -0.468459929652    -3.277253765003

	Removing binary optimization data file.
	Cleaning optimization helper files.


Properties will be evaluated at   0.000000,   0.000000,   0.000000 [a0]
OEProp: No title given, name of density matrix used for the following properties is 'SCF density'
  Nuclear Dipole Moment: [e a0]
     X:     0.9186      Y:    -0.3166      Z:    -0.2585

  Electronic Dipole Moment: [e a0]
     X:    -0.9396      Y:     0.3188      Z:    -2.2135

  Dipole Moment: [e a0]
     X:    -0.0211      Y:     0.0022      Z:    -2.4720     Total:     2.4721

  Dipole Moment: [D]
     X:    -0.0535      Y:     0.0056      Z:    -6.2832     Total:     6.2834

  Quadrupole Moment: [D A]
    XX:   -43.4979     YY:   -43.5767     ZZ:   -13.6018
    XY:     4.8000     XZ:    -0.3563     YZ:    -0.2868

  Traceless Quadrupole Moment: [D A]
    XX:    -9.9391     YY:   -10.0179     ZZ:    19.9570
    XY:     4.8000     XZ:    -0.3563     YZ:    -0.2868

  Mulliken Charges: (a.u.)
   Center  Symbol    Alpha    Beta     Spin     Total
       1     C     2.98556  2.98556  0.00000  0.02889
       2     C     3.07114  3.07114  0.00000 -0.14228
       3     C     3.06231  3.06231  0.00000 -0.12463
       4     C     3.05303  3.05303  0.00000 -0.10606
       5     C     3.06305  3.06305  0.00000 -0.12610
       6     C     3.07564  3.07564  0.00000 -0.15128
       7     C     2.74207  2.74207  0.00000  0.51586
       8     H     0.41330  0.41330  0.00000  0.17340
       9     H     0.40678  0.40678  0.00000  0.18645
      10     H     0.40596  0.40596  0.00000  0.18808
      11     H     0.40681  0.40681  0.00000  0.18638
      12     H     0.41356  0.41356  0.00000  0.17288
      13     N     3.84774  3.84774  0.00000 -0.69548
      14     N     3.84960  3.84960  0.00000 -0.69921
      15     H     0.30529  0.30529  0.00000  0.38942
      16     H     0.29638  0.29638  0.00000  0.40724
      17     H     0.29650  0.29650  0.00000  0.40699
      18     H     0.30528  0.30528  0.00000  0.38944

   Total alpha = 32.00000, Total beta = 32.00000, Total charge =  1.00000


    Psi4 stopped on: Saturday, 29 September 2018 08:45PM
    Psi4 wall time for execution: 0:02:37.86

*** Psi4 exiting successfully. Buy a developer a beer!
