
    -----------------------------------------------------------------------
          Psi4: An Open-Source Ab Initio Electronic Structure Package
                               Psi4 1.2.1 release

                         Git: Rev {HEAD} 406f4de 


    R. M. Parrish, L. A. Burns, D. G. A. Smith, A. C. Simmonett,
    A. E. DePrince III, E. G. Hohenstein, U. Bozkaya, A. Yu. Sokolov,
    R. Di Remigio, R. M. Richard, J. F. Gonthier, A. M. James,
    H. R. McAlexander, A. Kumar, M. Saitow, X. Wang, B. P. Pritchard,
    P. Verma, H. F. Schaefer III, K. Patkowski, R. A. King, E. F. Valeev,
    F. A. Evangelista, J. M. Turney, T. D. Crawford, and C. D. Sherrill,
    J. Chem. Theory Comput. 13(7) pp 3185--3197 (2017).
    (doi: 10.1021/acs.jctc.7b00174)


                         Additional Contributions by
    P. Kraus, H. Kruse, M. H. Lechner, M. C. Schieber, and R. A. Shaw

    -----------------------------------------------------------------------


    Psi4 started on: Saturday, 29 September 2018 05:10PM

    Process ID: 14096
    Host:       loro.prib.upf.edu
    PSIDATADIR: /shared/joao/test_parameterize/miniconda3/share/psi4
    Memory:     500.0 MiB
    Threads:    1
    
  ==> Input File <==

--------------------------------------------------------------------------
set_num_threads(1)
set_memory('5348 MB')

set { scf_mem_safety_factor 0.7 }

set { reference rks }
set { basis cc-pVDZ }

molecule MOL {
    0 1
    noreorient
    nocom
    symmetry c1
    O    1.050400   0.042900  -0.048100
    C    2.474100   0.047400  -0.029000
    C    3.002600  -1.068900  -0.932000
    N    4.462700  -1.072400  -1.006800
    H    0.783258  -0.435770  -0.851544
    H    2.809900  -0.097900   1.003200
    H    2.817400   1.026800  -0.378600
    H    2.581000  -0.963300  -1.938400
    H    2.653800  -2.036400  -0.553400
    H    4.779000  -0.221000  -1.470000
    H    4.758600  -1.842500  -1.606500
}

set optking { frozen_dihedral = (" 3 2 1 5 ") }

energy, wfn = energy('B3LYP-D3', return_wfn=True)

import os
os.chdir(os.environ['HTMD_PSI4_WORKDIR'])

oeprop(wfn, 'DIPOLE', 'QUADRUPOLE', 'MULLIKEN_CHARGES')

with open('psi4out.xyz', 'w') as f:
    f.write('11 ' )
    f.write('%.12f\n' % energy)
    f.write(MOL.save_string_xyz())
--------------------------------------------------------------------------
  Threads set to 1 by Python driver.

  Memory set to   4.981 GiB by Python driver.

*** tstart() called on loro.prib.upf.edu
*** at Sat Sep 29 17:10:43 2018

   => Loading Basis Set <=

    Name: CC-PVDZ
    Role: ORBITAL
    Keyword: BASIS
    atoms 1    entry O          line   198 file /shared/joao/test_parameterize/miniconda3/share/psi4/basis/cc-pvdz.gbs 
    atoms 2-3  entry C          line   138 file /shared/joao/test_parameterize/miniconda3/share/psi4/basis/cc-pvdz.gbs 
    atoms 4    entry N          line   168 file /shared/joao/test_parameterize/miniconda3/share/psi4/basis/cc-pvdz.gbs 
    atoms 5-11 entry H          line    22 file /shared/joao/test_parameterize/miniconda3/share/psi4/basis/cc-pvdz.gbs 


         ---------------------------------------------------------
                                   SCF
            by Justin Turney, Rob Parrish, Andy Simmonett
                             and Daniel Smith
                              RKS Reference
                        1 Threads,   5100 MiB Core
         ---------------------------------------------------------

  ==> Geometry <==

    Molecular point group: c1
    Full point group: C1

    Geometry (in Angstrom), charge = 0, multiplicity = 1:

       Center              X                  Y                   Z               Mass       
    ------------   -----------------  -----------------  -----------------  -----------------
         O            1.050400000000     0.042900000000    -0.048100000000    15.994914619560
         C            2.474100000000     0.047400000000    -0.029000000000    12.000000000000
         C            3.002600000000    -1.068900000000    -0.932000000000    12.000000000000
         N            4.462700000000    -1.072400000000    -1.006800000000    14.003074004780
         H            0.783258000000    -0.435770000000    -0.851544000000     1.007825032070
         H            2.809900000000    -0.097900000000     1.003200000000     1.007825032070
         H            2.817400000000     1.026800000000    -0.378600000000     1.007825032070
         H            2.581000000000    -0.963300000000    -1.938400000000     1.007825032070
         H            2.653800000000    -2.036400000000    -0.553400000000     1.007825032070
         H            4.779000000000    -0.221000000000    -1.470000000000     1.007825032070
         H            4.758600000000    -1.842500000000    -1.606500000000     1.007825032070

  Running in c1 symmetry.

  Rotational constants: A =      0.74553  B =      0.02759  C =      0.02695 [cm^-1]
  Rotational constants: A =  22350.38479  B =    827.12231  C =    808.00076 [MHz]
  Nuclear repulsion =  131.088846458016064

  Charge       = 0
  Multiplicity = 1
  Electrons    = 34
  Nalpha       = 17
  Nbeta        = 17

  ==> Algorithm <==

  SCF Algorithm Type is DF.
  DIIS enabled.
  MOM disabled.
  Fractional occupation disabled.
  Guess Type is SAD.
  Energy threshold   = 1.00e-06
  Density threshold  = 1.00e-06
  Integral threshold = 0.00e+00

  ==> Primary Basis <==

  Basis Set: CC-PVDZ
    Blend: CC-PVDZ
    Number of shells: 45
    Number of basis function: 91
    Number of Cartesian functions: 95
    Spherical Harmonics?: true
    Max angular momentum: 2

  ==> DFT Potential <==

   => Composite Functional: B3LYP-D3ZERO <= 

    B3LYP-d3zero Hyb-GGA Exchange-Correlation Functional

    P. J. Stephens, F. J. Devlin, C. F. Chabalowski, and M. J. Frisch, J. Phys. Chem. 98, 11623 (1994)

    Deriv               =              1
    GGA                 =           TRUE
    Meta                =          FALSE

    Exchange Hybrid     =           TRUE
    MP2 Hybrid          =          FALSE

   => Exchange Functionals <=

    0.0800   Slater exchange
    0.7200         Becke 88

   => Exact (HF) Exchange <=

    0.2000               HF 

   => Correlation Functionals <=

    0.1900   Vosko, Wilk & Nusair (VWN5_RPA)
    0.8100   Lee, Yang & Parr

   => Molecular Quadrature <=

    Radial Scheme       =       TREUTLER
    Pruning Scheme      =           FLAT
    Nuclear Scheme      =       TREUTLER

    BS radius alpha     =              1
    Pruning alpha       =              1
    Radial Points       =             75
    Spherical Points    =            302
    Total Points        =         245058
    Total Blocks        =           1906
    Max Points          =            256
    Max Functions       =             91

   => -D3ZERO: Empirical Dispersion <=

    Grimme's -D3 (zero-damping) Dispersion Correction
    Grimme S.; Antony J.; Ehrlich S.; Krieg H. (2010), J. Chem. Phys., 132: 154104

        S6 =   1.000000E+00
        S8 =   1.703000E+00
       SR6 =   1.261000E+00
       SR8 =   1.000000E+00
    ALPHA6 =   1.400000E+01

   => Loading Basis Set <=

    Name: (CC-PVDZ AUX)
    Role: JKFIT
    Keyword: DF_BASIS_SCF
    atoms 1    entry O          line   221 file /shared/joao/test_parameterize/miniconda3/share/psi4/basis/cc-pvdz-jkfit.gbs 
    atoms 2-3  entry C          line   121 file /shared/joao/test_parameterize/miniconda3/share/psi4/basis/cc-pvdz-jkfit.gbs 
    atoms 4    entry N          line   171 file /shared/joao/test_parameterize/miniconda3/share/psi4/basis/cc-pvdz-jkfit.gbs 
    atoms 5-11 entry H          line    51 file /shared/joao/test_parameterize/miniconda3/share/psi4/basis/cc-pvdz-jkfit.gbs 

  ==> Pre-Iterations <==

   -------------------------------------------------------
    Irrep   Nso     Nmo     Nalpha   Nbeta   Ndocc  Nsocc
   -------------------------------------------------------
     A         91      91       0       0       0       0
   -------------------------------------------------------
    Total      91      91      17      17      17       0
   -------------------------------------------------------

  ==> Integral Setup <==

  DFHelper Memory: AOs need 0.036 [GiB]; user supplied 3.486 [GiB]. Using in-core AOs.

  ==> MemDFJK: Density-Fitted J/K Matrices <==

    J tasked:                   Yes
    K tasked:                   Yes
    wK tasked:                   No
    OpenMP threads:               1
    Memory (MB):               3570
    Algorithm:                 Core
    Schwarz Cutoff:           1E-12
    Mask sparsity (%):       0.2415
    Fitting Condition:        1E-12

   => Auxiliary Basis Set <=

  Basis Set: (CC-PVDZ AUX)
    Blend: CC-PVDZ-JKFIT
    Number of shells: 159
    Number of basis function: 441
    Number of Cartesian functions: 499
    Spherical Harmonics?: true
    Max angular momentum: 3

  Minimum eigenvalue in the overlap matrix is 4.3727983194E-03.
  Using Symmetric Orthogonalization.

  SCF Guess: Superposition of Atomic Densities via on-the-fly atomic UHF.

  ==> Iterations <==

                           Total Energy        Delta E     RMS |[F,P]|

   @DF-RKS iter   0:  -210.87565634414469   -2.10876e+02   3.66914e-02 
   @DF-RKS iter   1:  -210.21719054251190    6.58466e-01   7.00652e-03 
   @DF-RKS iter   2:  -210.07631425049181    1.40876e-01   9.56428e-03 DIIS
   @DF-RKS iter   3:  -210.38962485199465   -3.13311e-01   5.84977e-04 DIIS
   @DF-RKS iter   4:  -210.39038259031904   -7.57738e-04   3.62909e-04 DIIS
   @DF-RKS iter   5:  -210.39086663128111   -4.84041e-04   5.37179e-05 DIIS
   @DF-RKS iter   6:  -210.39087451060999   -7.87933e-06   2.58705e-05 DIIS
   @DF-RKS iter   7:  -210.39087686645919   -2.35585e-06   1.82632e-06 DIIS
   @DF-RKS iter   8:  -210.39087687935398   -1.28948e-08   5.04413e-07 DIIS

  ==> Post-Iterations <==

    Orbital Energies [Eh]
    ---------------------

    Doubly Occupied:                                                      

       1A    -19.126736     2A    -14.312135     3A    -10.224192  
       4A    -10.212532     5A     -1.010577     6A     -0.884137  
       7A     -0.712411     8A     -0.618575     9A     -0.506381  
      10A     -0.471202    11A     -0.449991    12A     -0.445822  
      13A     -0.396670    14A     -0.369808    15A     -0.321260  
      16A     -0.262253    17A     -0.239633  

    Virtual:                                                              

      18A      0.048624    19A      0.059153    20A      0.092634  
      21A      0.102654    22A      0.133525    23A      0.149644  
      24A      0.164024    25A      0.208213    26A      0.242318  
      27A      0.253740    28A      0.430578    29A      0.445202  
      30A      0.484405    31A      0.499186    32A      0.559305  
      33A      0.579286    34A      0.589633    35A      0.606070  
      36A      0.638406    37A      0.649790    38A      0.655974  
      39A      0.667893    40A      0.696643    41A      0.810263  
      42A      0.829805    43A      0.843830    44A      0.904047  
      45A      0.955590    46A      1.005380    47A      1.031358  
      48A      1.059704    49A      1.146463    50A      1.202677  
      51A      1.227679    52A      1.233549    53A      1.288889  
      54A      1.398951    55A      1.436723    56A      1.487857  
      57A      1.525534    58A      1.601994    59A      1.619375  
      60A      1.627490    61A      1.646011    62A      1.662752  
      63A      1.705003    64A      1.731069    65A      1.738816  
      66A      1.775915    67A      1.805129    68A      1.852176  
      69A      1.881554    70A      1.949073    71A      1.986585  
      72A      2.023293    73A      2.052349    74A      2.137749  
      75A      2.151167    76A      2.238038    77A      2.274427  
      78A      2.363682    79A      2.392556    80A      2.444730  
      81A      2.473878    82A      2.545841    83A      2.599509  
      84A      2.673923    85A      2.818441    86A      2.952620  
      87A      3.020871    88A      3.045656    89A      3.078163  
      90A      3.254072    91A      3.685061  

    Final Occupation by Irrep:
              A 
    DOCC [    17 ]

  Energy converged.

  @DF-RKS Final Energy:  -210.39087687935398

   => Energetics <=

    Nuclear Repulsion Energy =            131.0888464580160644
    One-Electron Energy =                -544.9483499274952010
    Two-Electron Energy =                 226.9605497178164910
    DFT Exchange-Correlation Energy =     -23.4867822376913296
    Empirical Dispersion Energy =          -0.0051408900000000
    VV10 Nonlocal Energy =                  0.0000000000000000
    Total Energy =                       -210.3908768793539821



Properties will be evaluated at   0.000000,   0.000000,   0.000000 [a0]

Properties computed using the SCF density matrix

  Nuclear Dipole Moment: [e a0]
     X:   177.0395      Y:   -33.7556      Z:   -35.8928

  Electronic Dipole Moment: [e a0]
     X:  -176.7541      Y:    33.4629      Z:    34.9592

  Dipole Moment: [e a0]
     X:     0.2854      Y:    -0.2926      Z:    -0.9336     Total:     1.0191

  Dipole Moment: [D]
     X:     0.7254      Y:    -0.7438      Z:    -2.3729     Total:     2.5904


*** tstop() called on loro.prib.upf.edu at Sat Sep 29 17:11:00 2018
Module time:
	user time   =      15.34 seconds =       0.26 minutes
	system time =       0.23 seconds =       0.00 minutes
	total time  =         17 seconds =       0.28 minutes
Total time:
	user time   =      15.34 seconds =       0.26 minutes
	system time =       0.23 seconds =       0.00 minutes
	total time  =         17 seconds =       0.28 minutes


Properties will be evaluated at   0.000000,   0.000000,   0.000000 [a0]
OEProp: No title given, name of density matrix used for the following properties is 'SCF density'
  Nuclear Dipole Moment: [e a0]
     X:   177.0395      Y:   -33.7556      Z:   -35.8928

  Electronic Dipole Moment: [e a0]
     X:  -176.7541      Y:    33.4629      Z:    34.9592

  Dipole Moment: [e a0]
     X:     0.2854      Y:    -0.2926      Z:    -0.9336     Total:     1.0191

  Dipole Moment: [D]
     X:     0.7254      Y:    -0.7438      Z:    -2.3729     Total:     2.5904

  Quadrupole Moment: [D A]
    XX:   -23.9447     YY:   -24.1392     ZZ:   -21.9364
    XY:     0.0268     XZ:    -6.9794     YZ:     2.0645

  Traceless Quadrupole Moment: [D A]
    XX:    -0.6046     YY:    -0.7991     ZZ:     1.4037
    XY:     0.0268     XZ:    -6.9794     YZ:     2.0645

  Mulliken Charges: (a.u.)
   Center  Symbol    Alpha    Beta     Spin     Total
       1     O     4.13853  4.13853  0.00000 -0.27706
       2     C     2.91350  2.91350  0.00000  0.17299
       3     C     3.01019  3.01019  0.00000 -0.02039
       4     N     3.58913  3.58913  0.00000 -0.17826
       5     H     0.43332  0.43332  0.00000  0.13336
       6     H     0.48916  0.48916  0.00000  0.02167
       7     H     0.50216  0.50216  0.00000 -0.00431
       8     H     0.50664  0.50664  0.00000 -0.01328
       9     H     0.48965  0.48965  0.00000  0.02070
      10     H     0.46406  0.46406  0.00000  0.07187
      11     H     0.46365  0.46365  0.00000  0.07270

   Total alpha = 17.00000, Total beta = 17.00000, Total charge =  0.00000


    Psi4 stopped on: Saturday, 29 September 2018 05:11PM
    Psi4 wall time for execution: 0:00:17.29

*** Psi4 exiting successfully. Buy a developer a beer!
