
    -----------------------------------------------------------------------
          Psi4: An Open-Source Ab Initio Electronic Structure Package
                               Psi4 1.2.1 release

                         Git: Rev {HEAD} 406f4de 


    R. M. Parrish, L. A. Burns, D. G. A. Smith, A. C. Simmonett,
    A. E. DePrince III, E. G. Hohenstein, U. Bozkaya, A. Yu. Sokolov,
    R. Di Remigio, R. M. Richard, J. F. Gonthier, A. M. James,
    H. R. McAlexander, A. Kumar, M. Saitow, X. Wang, B. P. Pritchard,
    P. Verma, H. F. Schaefer III, K. Patkowski, R. A. King, E. F. Valeev,
    F. A. Evangelista, J. M. Turney, T. D. Crawford, and C. D. Sherrill,
    J. Chem. Theory Comput. 13(7) pp 3185--3197 (2017).
    (doi: 10.1021/acs.jctc.7b00174)


                         Additional Contributions by
    P. Kraus, H. Kruse, M. H. Lechner, M. C. Schieber, and R. A. Shaw

    -----------------------------------------------------------------------


    Psi4 started on: Saturday, 29 September 2018 05:08PM

    Process ID: 12799
    Host:       loro.prib.upf.edu
    PSIDATADIR: /shared/joao/test_parameterize/miniconda3/share/psi4
    Memory:     500.0 MiB
    Threads:    1
    
  ==> Input File <==

--------------------------------------------------------------------------
set_num_threads(1)
set_memory('5348 MB')

set { scf_mem_safety_factor 0.7 }

set { reference rks }
set { basis cc-pVDZ }

molecule MOL {
    0 1
    noreorient
    nocom
    symmetry c1
    O    1.050400   0.042900  -0.048100
    C    2.474100   0.047400  -0.029000
    C    3.002600  -1.068900  -0.932000
    N    2.098116  -1.351853  -2.045259
    H    0.760400   0.728400   0.578000
    H    2.809900  -0.097900   1.003200
    H    2.817400   1.026800  -0.378600
    H    3.160143  -1.979819  -0.342810
    H    3.985534  -0.783046  -1.323387
    H    1.224597  -1.732149  -1.682188
    H    2.505810  -2.089330  -2.619858
}

set optking { frozen_dihedral = (" 1 2 3 4 ") }

energy, wfn = energy('B3LYP-D3', return_wfn=True)

import os
os.chdir(os.environ['HTMD_PSI4_WORKDIR'])

oeprop(wfn, 'DIPOLE', 'QUADRUPOLE', 'MULLIKEN_CHARGES')

with open('psi4out.xyz', 'w') as f:
    f.write('11 ' )
    f.write('%.12f\n' % energy)
    f.write(MOL.save_string_xyz())
--------------------------------------------------------------------------
  Threads set to 1 by Python driver.

  Memory set to   4.981 GiB by Python driver.

*** tstart() called on loro.prib.upf.edu
*** at Sat Sep 29 17:08:50 2018

   => Loading Basis Set <=

    Name: CC-PVDZ
    Role: ORBITAL
    Keyword: BASIS
    atoms 1    entry O          line   198 file /shared/joao/test_parameterize/miniconda3/share/psi4/basis/cc-pvdz.gbs 
    atoms 2-3  entry C          line   138 file /shared/joao/test_parameterize/miniconda3/share/psi4/basis/cc-pvdz.gbs 
    atoms 4    entry N          line   168 file /shared/joao/test_parameterize/miniconda3/share/psi4/basis/cc-pvdz.gbs 
    atoms 5-11 entry H          line    22 file /shared/joao/test_parameterize/miniconda3/share/psi4/basis/cc-pvdz.gbs 


         ---------------------------------------------------------
                                   SCF
            by Justin Turney, Rob Parrish, Andy Simmonett
                             and Daniel Smith
                              RKS Reference
                        1 Threads,   5100 MiB Core
         ---------------------------------------------------------

  ==> Geometry <==

    Molecular point group: c1
    Full point group: C1

    Geometry (in Angstrom), charge = 0, multiplicity = 1:

       Center              X                  Y                   Z               Mass       
    ------------   -----------------  -----------------  -----------------  -----------------
         O            1.050400000000     0.042900000000    -0.048100000000    15.994914619560
         C            2.474100000000     0.047400000000    -0.029000000000    12.000000000000
         C            3.002600000000    -1.068900000000    -0.932000000000    12.000000000000
         N            2.098116000000    -1.351853000000    -2.045259000000    14.003074004780
         H            0.760400000000     0.728400000000     0.578000000000     1.007825032070
         H            2.809900000000    -0.097900000000     1.003200000000     1.007825032070
         H            2.817400000000     1.026800000000    -0.378600000000     1.007825032070
         H            3.160143000000    -1.979819000000    -0.342810000000     1.007825032070
         H            3.985534000000    -0.783046000000    -1.323387000000     1.007825032070
         H            1.224597000000    -1.732149000000    -1.682188000000     1.007825032070
         H            2.505810000000    -2.089330000000    -2.619858000000     1.007825032070

  Running in c1 symmetry.

  Rotational constants: A =      0.28807  B =      0.04289  C =      0.03818 [cm^-1]
  Rotational constants: A =   8636.19439  B =   1285.83166  C =   1144.64361 [MHz]
  Nuclear repulsion =  133.876787283876951

  Charge       = 0
  Multiplicity = 1
  Electrons    = 34
  Nalpha       = 17
  Nbeta        = 17

  ==> Algorithm <==

  SCF Algorithm Type is DF.
  DIIS enabled.
  MOM disabled.
  Fractional occupation disabled.
  Guess Type is SAD.
  Energy threshold   = 1.00e-06
  Density threshold  = 1.00e-06
  Integral threshold = 0.00e+00

  ==> Primary Basis <==

  Basis Set: CC-PVDZ
    Blend: CC-PVDZ
    Number of shells: 45
    Number of basis function: 91
    Number of Cartesian functions: 95
    Spherical Harmonics?: true
    Max angular momentum: 2

  ==> DFT Potential <==

   => Composite Functional: B3LYP-D3ZERO <= 

    B3LYP-d3zero Hyb-GGA Exchange-Correlation Functional

    P. J. Stephens, F. J. Devlin, C. F. Chabalowski, and M. J. Frisch, J. Phys. Chem. 98, 11623 (1994)

    Deriv               =              1
    GGA                 =           TRUE
    Meta                =          FALSE

    Exchange Hybrid     =           TRUE
    MP2 Hybrid          =          FALSE

   => Exchange Functionals <=

    0.0800   Slater exchange
    0.7200         Becke 88

   => Exact (HF) Exchange <=

    0.2000               HF 

   => Correlation Functionals <=

    0.1900   Vosko, Wilk & Nusair (VWN5_RPA)
    0.8100   Lee, Yang & Parr

   => Molecular Quadrature <=

    Radial Scheme       =       TREUTLER
    Pruning Scheme      =           FLAT
    Nuclear Scheme      =       TREUTLER

    BS radius alpha     =              1
    Pruning alpha       =              1
    Radial Points       =             75
    Spherical Points    =            302
    Total Points        =         245117
    Total Blocks        =           1893
    Max Points          =            255
    Max Functions       =             91

   => -D3ZERO: Empirical Dispersion <=

    Grimme's -D3 (zero-damping) Dispersion Correction
    Grimme S.; Antony J.; Ehrlich S.; Krieg H. (2010), J. Chem. Phys., 132: 154104

        S6 =   1.000000E+00
        S8 =   1.703000E+00
       SR6 =   1.261000E+00
       SR8 =   1.000000E+00
    ALPHA6 =   1.400000E+01

   => Loading Basis Set <=

    Name: (CC-PVDZ AUX)
    Role: JKFIT
    Keyword: DF_BASIS_SCF
    atoms 1    entry O          line   221 file /shared/joao/test_parameterize/miniconda3/share/psi4/basis/cc-pvdz-jkfit.gbs 
    atoms 2-3  entry C          line   121 file /shared/joao/test_parameterize/miniconda3/share/psi4/basis/cc-pvdz-jkfit.gbs 
    atoms 4    entry N          line   171 file /shared/joao/test_parameterize/miniconda3/share/psi4/basis/cc-pvdz-jkfit.gbs 
    atoms 5-11 entry H          line    51 file /shared/joao/test_parameterize/miniconda3/share/psi4/basis/cc-pvdz-jkfit.gbs 

  ==> Pre-Iterations <==

   -------------------------------------------------------
    Irrep   Nso     Nmo     Nalpha   Nbeta   Ndocc  Nsocc
   -------------------------------------------------------
     A         91      91       0       0       0       0
   -------------------------------------------------------
    Total      91      91      17      17      17       0
   -------------------------------------------------------

  ==> Integral Setup <==

  DFHelper Memory: AOs need 0.036 [GiB]; user supplied 3.486 [GiB]. Using in-core AOs.

  ==> MemDFJK: Density-Fitted J/K Matrices <==

    J tasked:                   Yes
    K tasked:                   Yes
    wK tasked:                   No
    OpenMP threads:               1
    Memory (MB):               3570
    Algorithm:                 Core
    Schwarz Cutoff:           1E-12
    Mask sparsity (%):       0.0000
    Fitting Condition:        1E-12

   => Auxiliary Basis Set <=

  Basis Set: (CC-PVDZ AUX)
    Blend: CC-PVDZ-JKFIT
    Number of shells: 159
    Number of basis function: 441
    Number of Cartesian functions: 499
    Spherical Harmonics?: true
    Max angular momentum: 3

  Minimum eigenvalue in the overlap matrix is 4.5819520779E-03.
  Using Symmetric Orthogonalization.

  SCF Guess: Superposition of Atomic Densities via on-the-fly atomic UHF.

  ==> Iterations <==

                           Total Energy        Delta E     RMS |[F,P]|

   @DF-RKS iter   0:  -210.87242871546428   -2.10872e+02   3.69307e-02 
   @DF-RKS iter   1:  -210.22735759058338    6.45071e-01   6.74095e-03 
   @DF-RKS iter   2:  -210.06643060785728    1.60927e-01   9.69944e-03 DIIS
   @DF-RKS iter   3:  -210.38643070134867   -3.20000e-01   6.14171e-04 DIIS
   @DF-RKS iter   4:  -210.38740352024237   -9.72819e-04   3.47476e-04 DIIS
   @DF-RKS iter   5:  -210.38783358817435   -4.30068e-04   6.30924e-05 DIIS
   @DF-RKS iter   6:  -210.38784715706549   -1.35689e-05   1.61833e-05 DIIS
   @DF-RKS iter   7:  -210.38784805673933   -8.99674e-07   4.10433e-06 DIIS
   @DF-RKS iter   8:  -210.38784811725429   -6.05150e-08   6.03803e-07 DIIS

  ==> Post-Iterations <==

    Orbital Energies [Eh]
    ---------------------

    Doubly Occupied:                                                      

       1A    -19.127139     2A    -14.293092     3A    -10.223784  
       4A    -10.201439     5A     -1.010298     6A     -0.865901  
       7A     -0.714284     8A     -0.591224     9A     -0.514765  
      10A     -0.472666    11A     -0.452750    12A     -0.407659  
      13A     -0.391197    14A     -0.356953    15A     -0.326361  
      16A     -0.262959    17A     -0.218248  

    Virtual:                                                              

      18A      0.045444    19A      0.083038    20A      0.093833  
      21A      0.108005    22A      0.138984    23A      0.146489  
      24A      0.182097    25A      0.186812    26A      0.239880  
      27A      0.280294    28A      0.454834    29A      0.463319  
      30A      0.491086    31A      0.509584    32A      0.536967  
      33A      0.556621    34A      0.593979    35A      0.620670  
      36A      0.638178    37A      0.650415    38A      0.666567  
      39A      0.698938    40A      0.720255    41A      0.776797  
      42A      0.830296    43A      0.848514    44A      0.931476  
      45A      0.953005    46A      0.993232    47A      1.032691  
      48A      1.074264    49A      1.193859    50A      1.211799  
      51A      1.231999    52A      1.269142    53A      1.354646  
      54A      1.355516    55A      1.458264    56A      1.501633  
      57A      1.537010    58A      1.590996    59A      1.605028  
      60A      1.611450    61A      1.618167    62A      1.667911  
      63A      1.700160    64A      1.738174    65A      1.746520  
      66A      1.785727    67A      1.845043    68A      1.877704  
      69A      1.934450    70A      1.979178    71A      1.988499  
      72A      1.997917    73A      2.039230    74A      2.150923  
      75A      2.158280    76A      2.182103    77A      2.300967  
      78A      2.363658    79A      2.395955    80A      2.443897  
      81A      2.502848    82A      2.530332    83A      2.616372  
      84A      2.688280    85A      2.827523    86A      2.965301  
      87A      3.016957    88A      3.061506    89A      3.115517  
      90A      3.198875    91A      3.701736  

    Final Occupation by Irrep:
              A 
    DOCC [    17 ]

  Energy converged.

  @DF-RKS Final Energy:  -210.38784811725429

   => Energetics <=

    Nuclear Repulsion Energy =            133.8767872838769506
    One-Electron Energy =                -550.7843123925629243
    Two-Electron Energy =                 230.0131366908204313
    DFT Exchange-Correlation Energy =     -23.4884578093887484
    Empirical Dispersion Energy =          -0.0050018900000000
    VV10 Nonlocal Energy =                  0.0000000000000000
    Total Energy =                       -210.3878481172542649



Properties will be evaluated at   0.000000,   0.000000,   0.000000 [a0]

Properties computed using the SCF density matrix

  Nuclear Dipole Moment: [e a0]
     X:   138.3544      Y:   -38.1268      Z:   -47.6839

  Electronic Dipole Moment: [e a0]
     X:  -138.0540      Y:    38.0606      Z:    48.2392

  Dipole Moment: [e a0]
     X:     0.3004      Y:    -0.0661      Z:     0.5553     Total:     0.6348

  Dipole Moment: [D]
     X:     0.7636      Y:    -0.1681      Z:     1.4114     Total:     1.6135


*** tstop() called on loro.prib.upf.edu at Sat Sep 29 17:09:09 2018
Module time:
	user time   =      15.12 seconds =       0.25 minutes
	system time =       0.22 seconds =       0.00 minutes
	total time  =         19 seconds =       0.32 minutes
Total time:
	user time   =      15.12 seconds =       0.25 minutes
	system time =       0.22 seconds =       0.00 minutes
	total time  =         19 seconds =       0.32 minutes


Properties will be evaluated at   0.000000,   0.000000,   0.000000 [a0]
OEProp: No title given, name of density matrix used for the following properties is 'SCF density'
  Nuclear Dipole Moment: [e a0]
     X:   138.3544      Y:   -38.1268      Z:   -47.6839

  Electronic Dipole Moment: [e a0]
     X:  -138.0540      Y:    38.0606      Z:    48.2392

  Dipole Moment: [e a0]
     X:     0.3004      Y:    -0.0661      Z:     0.5553     Total:     0.6348

  Dipole Moment: [D]
     X:     0.7636      Y:    -0.1681      Z:     1.4114     Total:     1.6135

  Quadrupole Moment: [D A]
    XX:   -21.5649     YY:   -21.4222     ZZ:   -27.0366
    XY:    -1.5709     XZ:     0.6917     YZ:     3.5590

  Traceless Quadrupole Moment: [D A]
    XX:     1.7764     YY:     1.9190     ZZ:    -3.6953
    XY:    -1.5709     XZ:     0.6917     YZ:     3.5590

  Mulliken Charges: (a.u.)
   Center  Symbol    Alpha    Beta     Spin     Total
       1     O     4.13847  4.13847  0.00000 -0.27694
       2     C     2.92499  2.92499  0.00000  0.15003
       3     C     2.98648  2.98648  0.00000  0.02704
       4     N     3.58743  3.58743  0.00000 -0.17487
       5     H     0.42982  0.42982  0.00000  0.14037
       6     H     0.50391  0.50391  0.00000 -0.00783
       7     H     0.50023  0.50023  0.00000 -0.00046
       8     H     0.50460  0.50460  0.00000 -0.00920
       9     H     0.49472  0.49472  0.00000  0.01056
      10     H     0.46169  0.46169  0.00000  0.07661
      11     H     0.46765  0.46765  0.00000  0.06469

   Total alpha = 17.00000, Total beta = 17.00000, Total charge = -0.00000


    Psi4 stopped on: Saturday, 29 September 2018 05:09PM
    Psi4 wall time for execution: 0:00:19.41

*** Psi4 exiting successfully. Buy a developer a beer!
