
    -----------------------------------------------------------------------
          Psi4: An Open-Source Ab Initio Electronic Structure Package
                               Psi4 1.2.1 release

                         Git: Rev {HEAD} 406f4de 


    R. M. Parrish, L. A. Burns, D. G. A. Smith, A. C. Simmonett,
    A. E. DePrince III, E. G. Hohenstein, U. Bozkaya, A. Yu. Sokolov,
    R. Di Remigio, R. M. Richard, J. F. Gonthier, A. M. James,
    H. R. McAlexander, A. Kumar, M. Saitow, X. Wang, B. P. Pritchard,
    P. Verma, H. F. Schaefer III, K. Patkowski, R. A. King, E. F. Valeev,
    F. A. Evangelista, J. M. Turney, T. D. Crawford, and C. D. Sherrill,
    J. Chem. Theory Comput. 13(7) pp 3185--3197 (2017).
    (doi: 10.1021/acs.jctc.7b00174)


                         Additional Contributions by
    P. Kraus, H. Kruse, M. H. Lechner, M. C. Schieber, and R. A. Shaw

    -----------------------------------------------------------------------


    Psi4 started on: Saturday, 29 September 2018 05:10PM

    Process ID: 13909
    Host:       loro.prib.upf.edu
    PSIDATADIR: /shared/joao/test_parameterize/miniconda3/share/psi4
    Memory:     500.0 MiB
    Threads:    1
    
  ==> Input File <==

--------------------------------------------------------------------------
set_num_threads(1)
set_memory('5348 MB')

set { scf_mem_safety_factor 0.7 }

set { reference rks }
set { basis cc-pVDZ }

molecule MOL {
    0 1
    noreorient
    nocom
    symmetry c1
    O    1.050400   0.042900  -0.048100
    C    2.474100   0.047400  -0.029000
    C    3.002600  -1.068900  -0.932000
    N    4.462700  -1.072400  -1.006800
    H    0.776968   0.746683  -0.661236
    H    2.809900  -0.097900   1.003200
    H    2.817400   1.026800  -0.378600
    H    2.581000  -0.963300  -1.938400
    H    2.653800  -2.036400  -0.553400
    H    4.779000  -0.221000  -1.470000
    H    4.758600  -1.842500  -1.606500
}

set optking { frozen_dihedral = (" 3 2 1 5 ") }

energy, wfn = energy('B3LYP-D3', return_wfn=True)

import os
os.chdir(os.environ['HTMD_PSI4_WORKDIR'])

oeprop(wfn, 'DIPOLE', 'QUADRUPOLE', 'MULLIKEN_CHARGES')

with open('psi4out.xyz', 'w') as f:
    f.write('11 ' )
    f.write('%.12f\n' % energy)
    f.write(MOL.save_string_xyz())
--------------------------------------------------------------------------
  Threads set to 1 by Python driver.

  Memory set to   4.981 GiB by Python driver.

*** tstart() called on loro.prib.upf.edu
*** at Sat Sep 29 17:10:24 2018

   => Loading Basis Set <=

    Name: CC-PVDZ
    Role: ORBITAL
    Keyword: BASIS
    atoms 1    entry O          line   198 file /shared/joao/test_parameterize/miniconda3/share/psi4/basis/cc-pvdz.gbs 
    atoms 2-3  entry C          line   138 file /shared/joao/test_parameterize/miniconda3/share/psi4/basis/cc-pvdz.gbs 
    atoms 4    entry N          line   168 file /shared/joao/test_parameterize/miniconda3/share/psi4/basis/cc-pvdz.gbs 
    atoms 5-11 entry H          line    22 file /shared/joao/test_parameterize/miniconda3/share/psi4/basis/cc-pvdz.gbs 


         ---------------------------------------------------------
                                   SCF
            by Justin Turney, Rob Parrish, Andy Simmonett
                             and Daniel Smith
                              RKS Reference
                        1 Threads,   5100 MiB Core
         ---------------------------------------------------------

  ==> Geometry <==

    Molecular point group: c1
    Full point group: C1

    Geometry (in Angstrom), charge = 0, multiplicity = 1:

       Center              X                  Y                   Z               Mass       
    ------------   -----------------  -----------------  -----------------  -----------------
         O            1.050400000000     0.042900000000    -0.048100000000    15.994914619560
         C            2.474100000000     0.047400000000    -0.029000000000    12.000000000000
         C            3.002600000000    -1.068900000000    -0.932000000000    12.000000000000
         N            4.462700000000    -1.072400000000    -1.006800000000    14.003074004780
         H            0.776968000000     0.746683000000    -0.661236000000     1.007825032070
         H            2.809900000000    -0.097900000000     1.003200000000     1.007825032070
         H            2.817400000000     1.026800000000    -0.378600000000     1.007825032070
         H            2.581000000000    -0.963300000000    -1.938400000000     1.007825032070
         H            2.653800000000    -2.036400000000    -0.553400000000     1.007825032070
         H            4.779000000000    -0.221000000000    -1.470000000000     1.007825032070
         H            4.758600000000    -1.842500000000    -1.606500000000     1.007825032070

  Running in c1 symmetry.

  Rotational constants: A =      0.72656  B =      0.02758  C =      0.02698 [cm^-1]
  Rotational constants: A =  21781.77570  B =    826.83257  C =    808.85870 [MHz]
  Nuclear repulsion =  130.639360023224469

  Charge       = 0
  Multiplicity = 1
  Electrons    = 34
  Nalpha       = 17
  Nbeta        = 17

  ==> Algorithm <==

  SCF Algorithm Type is DF.
  DIIS enabled.
  MOM disabled.
  Fractional occupation disabled.
  Guess Type is SAD.
  Energy threshold   = 1.00e-06
  Density threshold  = 1.00e-06
  Integral threshold = 0.00e+00

  ==> Primary Basis <==

  Basis Set: CC-PVDZ
    Blend: CC-PVDZ
    Number of shells: 45
    Number of basis function: 91
    Number of Cartesian functions: 95
    Spherical Harmonics?: true
    Max angular momentum: 2

  ==> DFT Potential <==

   => Composite Functional: B3LYP-D3ZERO <= 

    B3LYP-d3zero Hyb-GGA Exchange-Correlation Functional

    P. J. Stephens, F. J. Devlin, C. F. Chabalowski, and M. J. Frisch, J. Phys. Chem. 98, 11623 (1994)

    Deriv               =              1
    GGA                 =           TRUE
    Meta                =          FALSE

    Exchange Hybrid     =           TRUE
    MP2 Hybrid          =          FALSE

   => Exchange Functionals <=

    0.0800   Slater exchange
    0.7200         Becke 88

   => Exact (HF) Exchange <=

    0.2000               HF 

   => Correlation Functionals <=

    0.1900   Vosko, Wilk & Nusair (VWN5_RPA)
    0.8100   Lee, Yang & Parr

   => Molecular Quadrature <=

    Radial Scheme       =       TREUTLER
    Pruning Scheme      =           FLAT
    Nuclear Scheme      =       TREUTLER

    BS radius alpha     =              1
    Pruning alpha       =              1
    Radial Points       =             75
    Spherical Points    =            302
    Total Points        =         245080
    Total Blocks        =           1893
    Max Points          =            256
    Max Functions       =             91

   => -D3ZERO: Empirical Dispersion <=

    Grimme's -D3 (zero-damping) Dispersion Correction
    Grimme S.; Antony J.; Ehrlich S.; Krieg H. (2010), J. Chem. Phys., 132: 154104

        S6 =   1.000000E+00
        S8 =   1.703000E+00
       SR6 =   1.261000E+00
       SR8 =   1.000000E+00
    ALPHA6 =   1.400000E+01

   => Loading Basis Set <=

    Name: (CC-PVDZ AUX)
    Role: JKFIT
    Keyword: DF_BASIS_SCF
    atoms 1    entry O          line   221 file /shared/joao/test_parameterize/miniconda3/share/psi4/basis/cc-pvdz-jkfit.gbs 
    atoms 2-3  entry C          line   121 file /shared/joao/test_parameterize/miniconda3/share/psi4/basis/cc-pvdz-jkfit.gbs 
    atoms 4    entry N          line   171 file /shared/joao/test_parameterize/miniconda3/share/psi4/basis/cc-pvdz-jkfit.gbs 
    atoms 5-11 entry H          line    51 file /shared/joao/test_parameterize/miniconda3/share/psi4/basis/cc-pvdz-jkfit.gbs 

  ==> Pre-Iterations <==

   -------------------------------------------------------
    Irrep   Nso     Nmo     Nalpha   Nbeta   Ndocc  Nsocc
   -------------------------------------------------------
     A         91      91       0       0       0       0
   -------------------------------------------------------
    Total      91      91      17      17      17       0
   -------------------------------------------------------

  ==> Integral Setup <==

  DFHelper Memory: AOs need 0.036 [GiB]; user supplied 3.486 [GiB]. Using in-core AOs.

  ==> MemDFJK: Density-Fitted J/K Matrices <==

    J tasked:                   Yes
    K tasked:                   Yes
    wK tasked:                   No
    OpenMP threads:               1
    Memory (MB):               3570
    Algorithm:                 Core
    Schwarz Cutoff:           1E-12
    Mask sparsity (%):       0.3140
    Fitting Condition:        1E-12

   => Auxiliary Basis Set <=

  Basis Set: (CC-PVDZ AUX)
    Blend: CC-PVDZ-JKFIT
    Number of shells: 159
    Number of basis function: 441
    Number of Cartesian functions: 499
    Spherical Harmonics?: true
    Max angular momentum: 3

  Minimum eigenvalue in the overlap matrix is 4.5418864764E-03.
  Using Symmetric Orthogonalization.

  SCF Guess: Superposition of Atomic Densities via on-the-fly atomic UHF.

  ==> Iterations <==

                           Total Energy        Delta E     RMS |[F,P]|

   @DF-RKS iter   0:  -210.83881428319711   -2.10839e+02   3.66088e-02 
   @DF-RKS iter   1:  -210.21762679676132    6.21187e-01   6.98589e-03 
   @DF-RKS iter   2:  -210.07888701898375    1.38740e-01   9.51491e-03 DIIS
   @DF-RKS iter   3:  -210.38977429571489   -3.10887e-01   5.87646e-04 DIIS
   @DF-RKS iter   4:  -210.39051444822206   -7.40153e-04   3.65193e-04 DIIS
   @DF-RKS iter   5:  -210.39099329974687   -4.78852e-04   5.09730e-05 DIIS
   @DF-RKS iter   6:  -210.39100024941851   -6.94967e-06   2.49721e-05 DIIS
   @DF-RKS iter   7:  -210.39100251136725   -2.26195e-06   1.83193e-06 DIIS
   @DF-RKS iter   8:  -210.39100252375073   -1.23835e-08   5.27775e-07 DIIS

  ==> Post-Iterations <==

    Orbital Energies [Eh]
    ---------------------

    Doubly Occupied:                                                      

       1A    -19.129318     2A    -14.304508     3A    -10.224766  
       4A    -10.199795     5A     -1.011777     6A     -0.876542  
       7A     -0.710957     8A     -0.602243     9A     -0.514336  
      10A     -0.472405    11A     -0.460300    12A     -0.410919  
      13A     -0.394183    14A     -0.366574    15A     -0.321264  
      16A     -0.264814    17A     -0.231403  

    Virtual:                                                              

      18A      0.046665    19A      0.055608    20A      0.101345  
      21A      0.109867    22A      0.133074    23A      0.156515  
      24A      0.165174    25A      0.203881    26A      0.248527  
      27A      0.262066    28A      0.435071    29A      0.445825  
      30A      0.491848    31A      0.502714    32A      0.544076  
      33A      0.584339    34A      0.596884    35A      0.620197  
      36A      0.644761    37A      0.650288    38A      0.661683  
      39A      0.674500    40A      0.696904    41A      0.814521  
      42A      0.830024    43A      0.844463    44A      0.923203  
      45A      0.957489    46A      1.007760    47A      1.023566  
      48A      1.064475    49A      1.110625    50A      1.209793  
      51A      1.232418    52A      1.265174    53A      1.331773  
      54A      1.399689    55A      1.420026    56A      1.471068  
      57A      1.511071    58A      1.591629    59A      1.632537  
      60A      1.644383    61A      1.656107    62A      1.689787  
      63A      1.706391    64A      1.713639    65A      1.744610  
      66A      1.785375    67A      1.814445    68A      1.836559  
      69A      1.857815    70A      1.958028    71A      2.004095  
      72A      2.019621    73A      2.078579    74A      2.139455  
      75A      2.161635    76A      2.243562    77A      2.264457  
      78A      2.368739    79A      2.397413    80A      2.441428  
      81A      2.470458    82A      2.538771    83A      2.597699  
      84A      2.682051    85A      2.819002    86A      2.944680  
      87A      3.012131    88A      3.055047    89A      3.104824  
      90A      3.229289    91A      3.672048  

    Final Occupation by Irrep:
              A 
    DOCC [    17 ]

  Energy converged.

  @DF-RKS Final Energy:  -210.39100252375073

   => Energetics <=

    Nuclear Repulsion Energy =            130.6393600232244694
    One-Electron Energy =                -544.1862566847626113
    Two-Electron Energy =                 226.6475168519720000
    DFT Exchange-Correlation Energy =     -23.4865807641845876
    Empirical Dispersion Energy =          -0.0050419500000000
    VV10 Nonlocal Energy =                  0.0000000000000000
    Total Energy =                       -210.3910025237507284



Properties will be evaluated at   0.000000,   0.000000,   0.000000 [a0]

Properties computed using the SCF density matrix

  Nuclear Dipole Moment: [e a0]
     X:   177.0276      Y:   -31.5210      Z:   -35.5332

  Electronic Dipole Moment: [e a0]
     X:  -176.8433      Y:    31.9439      Z:    34.7072

  Dipole Moment: [e a0]
     X:     0.1843      Y:     0.4229      Z:    -0.8259     Total:     0.9460

  Dipole Moment: [D]
     X:     0.4685      Y:     1.0749      Z:    -2.0993     Total:     2.4046


*** tstop() called on loro.prib.upf.edu at Sat Sep 29 17:10:42 2018
Module time:
	user time   =      15.09 seconds =       0.25 minutes
	system time =       0.21 seconds =       0.00 minutes
	total time  =         18 seconds =       0.30 minutes
Total time:
	user time   =      15.09 seconds =       0.25 minutes
	system time =       0.21 seconds =       0.00 minutes
	total time  =         18 seconds =       0.30 minutes


Properties will be evaluated at   0.000000,   0.000000,   0.000000 [a0]
OEProp: No title given, name of density matrix used for the following properties is 'SCF density'
  Nuclear Dipole Moment: [e a0]
     X:   177.0276      Y:   -31.5210      Z:   -35.5332

  Electronic Dipole Moment: [e a0]
     X:  -176.8433      Y:    31.9439      Z:    34.7072

  Dipole Moment: [e a0]
     X:     0.1843      Y:     0.4229      Z:    -0.8259     Total:     0.9460

  Dipole Moment: [D]
     X:     0.4685      Y:     1.0749      Z:    -2.0993     Total:     2.4046

  Quadrupole Moment: [D A]
    XX:   -25.3858     YY:   -23.2827     ZZ:   -22.5964
    XY:     1.1870     XZ:    -6.6034     YZ:     0.2371

  Traceless Quadrupole Moment: [D A]
    XX:    -1.6309     YY:     0.4723     ZZ:     1.1586
    XY:     1.1870     XZ:    -6.6034     YZ:     0.2371

  Mulliken Charges: (a.u.)
   Center  Symbol    Alpha    Beta     Spin     Total
       1     O     4.13926  4.13926  0.00000 -0.27852
       2     C     2.92850  2.92850  0.00000  0.14300
       3     C     2.98456  2.98456  0.00000  0.03088
       4     N     3.59348  3.59348  0.00000 -0.18697
       5     H     0.43031  0.43031  0.00000  0.13937
       6     H     0.48880  0.48880  0.00000  0.02241
       7     H     0.50410  0.50410  0.00000 -0.00820
       8     H     0.51002  0.51002  0.00000 -0.02003
       9     H     0.48965  0.48965  0.00000  0.02069
      10     H     0.46714  0.46714  0.00000  0.06573
      11     H     0.46418  0.46418  0.00000  0.07164

   Total alpha = 17.00000, Total beta = 17.00000, Total charge = -0.00000


    Psi4 stopped on: Saturday, 29 September 2018 05:10PM
    Psi4 wall time for execution: 0:00:18.04

*** Psi4 exiting successfully. Buy a developer a beer!
