
    -----------------------------------------------------------------------
          Psi4: An Open-Source Ab Initio Electronic Structure Package
                               Psi4 1.2.1 release

                         Git: Rev {HEAD} 406f4de 


    R. M. Parrish, L. A. Burns, D. G. A. Smith, A. C. Simmonett,
    A. E. DePrince III, E. G. Hohenstein, U. Bozkaya, A. Yu. Sokolov,
    R. Di Remigio, R. M. Richard, J. F. Gonthier, A. M. James,
    H. R. McAlexander, A. Kumar, M. Saitow, X. Wang, B. P. Pritchard,
    P. Verma, H. F. Schaefer III, K. Patkowski, R. A. King, E. F. Valeev,
    F. A. Evangelista, J. M. Turney, T. D. Crawford, and C. D. Sherrill,
    J. Chem. Theory Comput. 13(7) pp 3185--3197 (2017).
    (doi: 10.1021/acs.jctc.7b00174)


                         Additional Contributions by
    P. Kraus, H. Kruse, M. H. Lechner, M. C. Schieber, and R. A. Shaw

    -----------------------------------------------------------------------


    Psi4 started on: Saturday, 29 September 2018 04:38PM

    Process ID: 30672
    Host:       loro.prib.upf.edu
    PSIDATADIR: /shared/joao/test_parameterize/miniconda3/share/psi4
    Memory:     500.0 MiB
    Threads:    1
    
  ==> Input File <==

--------------------------------------------------------------------------
set_num_threads(1)
set_memory('5348 MB')

set { scf_mem_safety_factor 0.7 }

set { reference rks }
set { basis cc-pVDZ }

molecule MOL {
    0 1
    noreorient
    nocom
    symmetry c1
    O    1.014300  -0.002300   0.060500
    O    2.462400  -0.107500  -0.002400
    H    0.821200  -0.823600  -0.430600
    H    2.573716   0.382077  -0.839513
}

set optking { frozen_dihedral = (" 3 1 2 4 ") }

set optking { dynamic_level = 1 
 geom_maxiter = 250
 print_trajectory_xyz_file = True }

energy, wfn = optimize('B3LYP-D3', return_wfn=True)

import os
os.chdir(os.environ['HTMD_PSI4_WORKDIR'])

oeprop(wfn, 'DIPOLE', 'QUADRUPOLE', 'MULLIKEN_CHARGES')

with open('psi4out.xyz', 'w') as f:
    f.write('4 ' )
    f.write('%.12f\n' % energy)
    f.write(MOL.save_string_xyz())
--------------------------------------------------------------------------
  Threads set to 1 by Python driver.

  Memory set to   4.981 GiB by Python driver.
gradient() will perform analytic gradient computation.

*** tstart() called on loro.prib.upf.edu
*** at Sat Sep 29 16:38:02 2018

   => Loading Basis Set <=

    Name: CC-PVDZ
    Role: ORBITAL
    Keyword: BASIS
    atoms 1-2 entry O          line   198 file /shared/joao/test_parameterize/miniconda3/share/psi4/basis/cc-pvdz.gbs 
    atoms 3-4 entry H          line    22 file /shared/joao/test_parameterize/miniconda3/share/psi4/basis/cc-pvdz.gbs 


         ---------------------------------------------------------
                                   SCF
            by Justin Turney, Rob Parrish, Andy Simmonett
                             and Daniel Smith
                              RKS Reference
                        1 Threads,   5100 MiB Core
         ---------------------------------------------------------

  ==> Geometry <==

    Molecular point group: c1
    Full point group: C1

    Geometry (in Angstrom), charge = 0, multiplicity = 1:

       Center              X                  Y                   Z               Mass       
    ------------   -----------------  -----------------  -----------------  -----------------
         O            1.014300000000    -0.002300000000     0.060500000000    15.994914619560
         O            2.462400000000    -0.107500000000    -0.002400000000    15.994914619560
         H            0.821200000000    -0.823600000000    -0.430600000000     1.007825032070
         H            2.573716000000     0.382077000000    -0.839513000000     1.007825032070

  Running in c1 symmetry.

  Rotational constants: A =      9.27281  B =      0.13837  C =      0.13830 [cm^-1]
  Rotational constants: A = 277991.95840  B =   4148.33210  C =   4146.26426 [MHz]
  Nuclear repulsion =   36.820689816867180

  Charge       = 0
  Multiplicity = 1
  Electrons    = 18
  Nalpha       = 9
  Nbeta        = 9

  ==> Algorithm <==

  SCF Algorithm Type is DF.
  DIIS enabled.
  MOM disabled.
  Fractional occupation disabled.
  Guess Type is SAD.
  Energy threshold   = 1.00e-08
  Density threshold  = 1.00e-08
  Integral threshold = 0.00e+00

  ==> Primary Basis <==

  Basis Set: CC-PVDZ
    Blend: CC-PVDZ
    Number of shells: 18
    Number of basis function: 38
    Number of Cartesian functions: 40
    Spherical Harmonics?: true
    Max angular momentum: 2

  ==> DFT Potential <==

   => Composite Functional: B3LYP-D3ZERO <= 

    B3LYP-d3zero Hyb-GGA Exchange-Correlation Functional

    P. J. Stephens, F. J. Devlin, C. F. Chabalowski, and M. J. Frisch, J. Phys. Chem. 98, 11623 (1994)

    Deriv               =              1
    GGA                 =           TRUE
    Meta                =          FALSE

    Exchange Hybrid     =           TRUE
    MP2 Hybrid          =          FALSE

   => Exchange Functionals <=

    0.0800   Slater exchange
    0.7200         Becke 88

   => Exact (HF) Exchange <=

    0.2000               HF 

   => Correlation Functionals <=

    0.1900   Vosko, Wilk & Nusair (VWN5_RPA)
    0.8100   Lee, Yang & Parr

   => Molecular Quadrature <=

    Radial Scheme       =       TREUTLER
    Pruning Scheme      =           FLAT
    Nuclear Scheme      =       TREUTLER

    BS radius alpha     =              1
    Pruning alpha       =              1
    Radial Points       =             75
    Spherical Points    =            302
    Total Points        =          88312
    Total Blocks        =            714
    Max Points          =            256
    Max Functions       =             38

   => -D3ZERO: Empirical Dispersion <=

    Grimme's -D3 (zero-damping) Dispersion Correction
    Grimme S.; Antony J.; Ehrlich S.; Krieg H. (2010), J. Chem. Phys., 132: 154104

        S6 =   1.000000E+00
        S8 =   1.703000E+00
       SR6 =   1.261000E+00
       SR8 =   1.000000E+00
    ALPHA6 =   1.400000E+01

   => Loading Basis Set <=

    Name: (CC-PVDZ AUX)
    Role: JKFIT
    Keyword: DF_BASIS_SCF
    atoms 1-2 entry O          line   221 file /shared/joao/test_parameterize/miniconda3/share/psi4/basis/cc-pvdz-jkfit.gbs 
    atoms 3-4 entry H          line    51 file /shared/joao/test_parameterize/miniconda3/share/psi4/basis/cc-pvdz-jkfit.gbs 

  ==> Pre-Iterations <==

   -------------------------------------------------------
    Irrep   Nso     Nmo     Nalpha   Nbeta   Ndocc  Nsocc
   -------------------------------------------------------
     A         38      38       0       0       0       0
   -------------------------------------------------------
    Total      38      38       9       9       9       0
   -------------------------------------------------------

  ==> Integral Setup <==

  DFHelper Memory: AOs need 0.003 [GiB]; user supplied 3.486 [GiB]. Using in-core AOs.

  ==> MemDFJK: Density-Fitted J/K Matrices <==

    J tasked:                   Yes
    K tasked:                   Yes
    wK tasked:                   No
    OpenMP threads:               1
    Memory (MB):               3570
    Algorithm:                 Core
    Schwarz Cutoff:           1E-12
    Mask sparsity (%):       0.0000
    Fitting Condition:        1E-12

   => Auxiliary Basis Set <=

  Basis Set: (CC-PVDZ AUX)
    Blend: CC-PVDZ-JKFIT
    Number of shells: 66
    Number of basis function: 186
    Number of Cartesian functions: 212
    Spherical Harmonics?: true
    Max angular momentum: 3

  Minimum eigenvalue in the overlap matrix is 2.5902082090E-02.
  Using Symmetric Orthogonalization.

  SCF Guess: Superposition of Atomic Densities via on-the-fly atomic UHF.

  ==> Iterations <==

                           Total Energy        Delta E     RMS |[F,P]|

   @DF-RKS iter   0:  -151.63856079885034   -1.51639e+02   4.88747e-02 
   @DF-RKS iter   1:  -151.51113099360117    1.27430e-01   7.96572e-03 
   @DF-RKS iter   2:  -151.51194687076907   -8.15877e-04   8.25145e-03 DIIS
   @DF-RKS iter   3:  -151.54811115177171   -3.61643e-02   1.00363e-03 DIIS
   @DF-RKS iter   4:  -151.54851813176668   -4.06980e-04   4.58084e-04 DIIS
   @DF-RKS iter   5:  -151.54861552425731   -9.73925e-05   1.60687e-04 DIIS
   @DF-RKS iter   6:  -151.54862926453350   -1.37403e-05   7.22198e-06 DIIS
   @DF-RKS iter   7:  -151.54862931278780   -4.82543e-08   1.63136e-06 DIIS
   @DF-RKS iter   8:  -151.54862931501381   -2.22602e-09   2.21717e-07 DIIS
   @DF-RKS iter   9:  -151.54862931506759   -5.37739e-11   4.46096e-08 DIIS
   @DF-RKS iter  10:  -151.54862931506960   -2.01794e-12   5.37843e-09 DIIS

  ==> Post-Iterations <==

    Orbital Energies [Eh]
    ---------------------

    Doubly Occupied:                                                      

       1A    -19.189727     2A    -19.189687     3A     -1.115003  
       4A     -0.886759     5A     -0.526782     6A     -0.473576  
       7A     -0.419841     8A     -0.291100     9A     -0.290739  

    Virtual:                                                              

      10A      0.023404    11A      0.043206    12A      0.105838  
      13A      0.573785    14A      0.579782    15A      0.851125  
      16A      0.872777    17A      0.918826    18A      0.921679  
      19A      1.011267    20A      1.048271    21A      1.238165  
      22A      1.254108    23A      1.357289    24A      1.402404  
      25A      1.684247    26A      1.701143    27A      2.062956  
      28A      2.077236    29A      2.411830    30A      2.491880  
      31A      2.516298    32A      2.863324    33A      2.930612  
      34A      3.072236    35A      3.103673    36A      3.463349  
      37A      3.561240    38A      3.820985  

    Final Occupation by Irrep:
              A 
    DOCC [     9 ]

  Energy converged.

  @DF-RKS Final Energy:  -151.54862931506960

   => Energetics <=

    Nuclear Repulsion Energy =             36.8206898168671799
    One-Electron Energy =                -281.5883538660758063
    Two-Electron Energy =                 107.6809214670434329
    DFT Exchange-Correlation Energy =     -14.4616180029043928
    Empirical Dispersion Energy =          -0.0002687300000000
    VV10 Nonlocal Energy =                  0.0000000000000000
    Total Energy =                       -151.5486293150695758



Properties will be evaluated at   0.000000,   0.000000,   0.000000 [a0]

Properties computed using the SCF density matrix

  Nuclear Dipole Moment: [e a0]
     X:    58.9755      Y:    -2.4943      Z:    -1.5218

  Electronic Dipole Moment: [e a0]
     X:   -59.0298      Y:     2.2742      Z:     0.6403

  Dipole Moment: [e a0]
     X:    -0.0543      Y:    -0.2201      Z:    -0.8815     Total:     0.9102

  Dipole Moment: [D]
     X:    -0.1380      Y:    -0.5595      Z:    -2.2407     Total:     2.3136


*** tstop() called on loro.prib.upf.edu at Sat Sep 29 16:38:07 2018
Module time:
	user time   =       3.20 seconds =       0.05 minutes
	system time =       0.11 seconds =       0.00 minutes
	total time  =          5 seconds =       0.08 minutes
Total time:
	user time   =       3.20 seconds =       0.05 minutes
	system time =       0.11 seconds =       0.00 minutes
	total time  =          5 seconds =       0.08 minutes

*** tstart() called on loro.prib.upf.edu
*** at Sat Sep 29 16:38:07 2018


         ------------------------------------------------------------
                                   SCF GRAD                          
                          Rob Parrish, Justin Turney,                
                       Andy Simmonett, and Alex Sokolov              
         ------------------------------------------------------------

  ==> Geometry <==

    Molecular point group: c1
    Full point group: C1

    Geometry (in Angstrom), charge = 0, multiplicity = 1:

       Center              X                  Y                   Z               Mass       
    ------------   -----------------  -----------------  -----------------  -----------------
         O            1.014300000000    -0.002300000000     0.060500000000    15.994914619560
         O            2.462400000000    -0.107500000000    -0.002400000000    15.994914619560
         H            0.821200000000    -0.823600000000    -0.430600000000     1.007825032070
         H            2.573716000000     0.382077000000    -0.839513000000     1.007825032070

  Nuclear repulsion =   36.820689816867180

  ==> Basis Set <==

  Basis Set: CC-PVDZ
    Blend: CC-PVDZ
    Number of shells: 18
    Number of basis function: 38
    Number of Cartesian functions: 40
    Spherical Harmonics?: true
    Max angular momentum: 2

  ==> DFJKGrad: Density-Fitted SCF Gradients <==

    Gradient:                    1
    J tasked:                  Yes
    K tasked:                  Yes
    wK tasked:                  No
    OpenMP threads:              1
    Integrals threads:           1
    Memory (MB):              3570
    Schwarz Cutoff:          0E+00
    Fitting Condition:       1E-12

   => Auxiliary Basis Set <=

  Basis Set: (CC-PVDZ AUX)
    Blend: CC-PVDZ-JKFIT
    Number of shells: 66
    Number of basis function: 186
    Number of Cartesian functions: 212
    Spherical Harmonics?: true
    Max angular momentum: 3

  ==> DFT Potential <==

   => Composite Functional: B3LYP-D3ZERO <= 

    B3LYP-d3zero Hyb-GGA Exchange-Correlation Functional

    P. J. Stephens, F. J. Devlin, C. F. Chabalowski, and M. J. Frisch, J. Phys. Chem. 98, 11623 (1994)

    Deriv               =              1
    GGA                 =           TRUE
    Meta                =          FALSE

    Exchange Hybrid     =           TRUE
    MP2 Hybrid          =          FALSE

   => Exchange Functionals <=

    0.0800   Slater exchange
    0.7200         Becke 88

   => Exact (HF) Exchange <=

    0.2000               HF 

   => Correlation Functionals <=

    0.1900   Vosko, Wilk & Nusair (VWN5_RPA)
    0.8100   Lee, Yang & Parr

   => Molecular Quadrature <=

    Radial Scheme       =       TREUTLER
    Pruning Scheme      =           FLAT
    Nuclear Scheme      =       TREUTLER

    BS radius alpha     =              1
    Pruning alpha       =              1
    Radial Points       =             75
    Spherical Points    =            302
    Total Points        =          88312
    Total Blocks        =            714
    Max Points          =            256
    Max Functions       =             38


  -Total Gradient:
     Atom            X                  Y                   Z
    ------   -----------------  -----------------  -----------------
       1        0.000048329874     0.009800080782     0.002332879686
       2        0.000510332924    -0.007521506747     0.006570734198
       3        0.009357652632    -0.001652901339    -0.004945363334
       4       -0.009916554721    -0.000626207664    -0.003959081940


*** tstop() called on loro.prib.upf.edu at Sat Sep 29 16:38:08 2018
Module time:
	user time   =       0.67 seconds =       0.01 minutes
	system time =       0.02 seconds =       0.00 minutes
	total time  =          1 seconds =       0.02 minutes
Total time:
	user time   =       3.87 seconds =       0.06 minutes
	system time =       0.13 seconds =       0.00 minutes
	total time  =          6 seconds =       0.10 minutes

			-----------------------------------------
			 OPTKING 2.0: for geometry optimizations 
			  - R.A. King,  Bethel University        
			-----------------------------------------
	At level 1: Red. Int., RFO, no backsteps, dynamic trust

	Internal coordinates to be generated automatically.
	Detected frag 1 with atoms:  1 2 3 4
	---Fragment 1 Bond Connectivity---
	 1 : 2 3
	 2 : 1 4
	 3 : 1
	 4 : 2

	Assuming in current code that numbering for constraints corresponds to unified fragment.
	Frozen dihedral atom list: 
	     3     1     2     4
	---Fragment 1 Geometry and Gradient---
	 O           1.9167492166       -0.0043463701        0.1143284310
	 O           4.6532616296       -0.2031455593       -0.0045353427
	 H           1.5518431003       -1.5563784430       -0.8137160728
	 H           4.8636183838        0.7220208917       -1.5864496550
	             0.0000483299        0.0098000808        0.0023328797
	             0.0005103329       -0.0075215067        0.0065707342
	             0.0093576526       -0.0016529013       -0.0049453633
	            -0.0099165547       -0.0006262077       -0.0039590819

	Previous optimization step data not found.  Starting new optimization.

	---Fragment 1 Intrafragment Coordinates---
	 - Coordinate -           - BOHR/RAD -       - ANG/DEG -
	 R(1,2)           =         2.746297	       1.453278
	 R(1,3)           =         1.844784	       0.976217
	 R(2,4)           =         1.844623	       0.976133
	 B(1,2,4)         =         1.685490	      96.571485
	 B(2,1,3)         =         1.685473	      96.570488
	*D(3,1,2,4)       =         1.570796	      89.999994

	Current energy   :      -151.5486293151

	Generating empirical Hessian (Schlegel '84) for each fragment.
	Taking RFO optimization step.
	Going to follow RFO solution 1.
	Using RFO vector 1.
	Norm of target step-size    0.15982
	Projected energy change by RFO approximation:        -0.0027615987

	Back-transformation to cartesian coordinates...
	Successfully converged to displaced geometry.

	Back-transformation to cartesian coordinates to adjust frozen coordinates...
	Successfully converged to displaced geometry.

	--- Internal Coordinate Step in ANG or DEG, aJ/ANG or AJ/DEG ---
	 ---------------------------------------------------------------------------
	   Coordinate                Previous        Force       Change         New 
	   ----------                --------       ------       ------       ------
	    1 R(1,2)          =      1.453278     0.073287     0.012306     1.465584
	    2 R(1,3)          =      0.976217    -0.016699    -0.002041     0.974177
	    3 R(2,4)          =      0.976133    -0.016065    -0.001963     0.974170
	    4 B(1,2,4)        =     96.571485     0.001397     6.377047   102.948532
	    5 B(2,1,3)        =     96.570488     0.001397     6.379188   102.949676
	    6 *D(3,1,2,4)     =     89.999994     0.000000     0.000000    89.999994
	 ---------------------------------------------------------------------------
	Successfully symmetrized geometry.

  ==> Convergence Check <==

  Measures of convergence in internal coordinates in au.
  Criteria marked as inactive (o), active & met (*), and active & unmet ( ).
  --------------------------------------------------------------------------------------------- ~
   Step     Total Energy     Delta E     MAX Force     RMS Force      MAX Disp      RMS Disp    ~
  --------------------------------------------------------------------------------------------- ~
    Convergence Criteria    1.00e-06 *    3.00e-04 *             o    1.20e-03 *             o  ~
  --------------------------------------------------------------------------------------------- ~
      1    -151.54862932   -1.52e+02      1.84e-02      1.13e-02 o    1.11e-01      6.50e-02 o  ~
  ---------------------------------------------------------------------------------------------

	Writing optimization data to binary file.
	Structure for next step:
	Cartesian Geometry (in Angstrom)
	    O     1.0064663030  -0.0390254272   0.0627024923
	    O     2.4693721680  -0.0742825597  -0.0185406640
	    H     0.7418956073  -0.8473268812  -0.4123462979
	    H     2.6538819217   0.4093118681  -0.8438285303
			--------------------------
			 OPTKING Finished Execution 
			--------------------------

    Structure for next step:
    Molecular point group: c1
    Full point group: C1

    Geometry (in Angstrom), charge = 0, multiplicity = 1:

    O            1.006466303022    -0.039025427213     0.062702492307
    O            2.469372167996    -0.074282559708    -0.018540664040
    H            0.741895607261    -0.847326881188    -0.412346297930
    H            2.653881921721     0.409311868109    -0.843828530337

gradient() will perform analytic gradient computation.

*** tstart() called on loro.prib.upf.edu
*** at Sat Sep 29 16:38:08 2018

   => Loading Basis Set <=

    Name: CC-PVDZ
    Role: ORBITAL
    Keyword: BASIS
    atoms 1-2 entry O          line   198 file /shared/joao/test_parameterize/miniconda3/share/psi4/basis/cc-pvdz.gbs 
    atoms 3-4 entry H          line    22 file /shared/joao/test_parameterize/miniconda3/share/psi4/basis/cc-pvdz.gbs 


         ---------------------------------------------------------
                                   SCF
            by Justin Turney, Rob Parrish, Andy Simmonett
                             and Daniel Smith
                              RKS Reference
                        1 Threads,   5100 MiB Core
         ---------------------------------------------------------

  ==> Geometry <==

    Molecular point group: c1
    Full point group: C1

    Geometry (in Angstrom), charge = 0, multiplicity = 1:

       Center              X                  Y                   Z               Mass       
    ------------   -----------------  -----------------  -----------------  -----------------
         O            1.006466303022    -0.039025427213     0.062702492307    15.994914619560
         O            2.469372167996    -0.074282559708    -0.018540664040    15.994914619560
         H            0.741895607261    -0.847326881188    -0.412346297930     1.007825032070
         H            2.653881921721     0.409311868109    -0.843828530337     1.007825032070

  Running in c1 symmetry.

  Rotational constants: A =      9.16577  B =      0.13777  C =      0.13761 [cm^-1]
  Rotational constants: A = 274782.80276  B =   4130.27060  C =   4125.40475 [MHz]
  Nuclear repulsion =   36.406964925788493

  Charge       = 0
  Multiplicity = 1
  Electrons    = 18
  Nalpha       = 9
  Nbeta        = 9

  ==> Algorithm <==

  SCF Algorithm Type is DF.
  DIIS enabled.
  MOM disabled.
  Fractional occupation disabled.
  Guess Type is READ.
  Energy threshold   = 1.00e-08
  Density threshold  = 1.00e-08
  Integral threshold = 0.00e+00

  ==> Primary Basis <==

  Basis Set: CC-PVDZ
    Blend: CC-PVDZ
    Number of shells: 18
    Number of basis function: 38
    Number of Cartesian functions: 40
    Spherical Harmonics?: true
    Max angular momentum: 2

  ==> DFT Potential <==

   => Composite Functional: B3LYP-D3ZERO <= 

    B3LYP-d3zero Hyb-GGA Exchange-Correlation Functional

    P. J. Stephens, F. J. Devlin, C. F. Chabalowski, and M. J. Frisch, J. Phys. Chem. 98, 11623 (1994)

    Deriv               =              1
    GGA                 =           TRUE
    Meta                =          FALSE

    Exchange Hybrid     =           TRUE
    MP2 Hybrid          =          FALSE

   => Exchange Functionals <=

    0.0800   Slater exchange
    0.7200         Becke 88

   => Exact (HF) Exchange <=

    0.2000               HF 

   => Correlation Functionals <=

    0.1900   Vosko, Wilk & Nusair (VWN5_RPA)
    0.8100   Lee, Yang & Parr

   => Molecular Quadrature <=

    Radial Scheme       =       TREUTLER
    Pruning Scheme      =           FLAT
    Nuclear Scheme      =       TREUTLER

    BS radius alpha     =              1
    Pruning alpha       =              1
    Radial Points       =             75
    Spherical Points    =            302
    Total Points        =          88324
    Total Blocks        =            708
    Max Points          =            256
    Max Functions       =             38

   => -D3ZERO: Empirical Dispersion <=

    Grimme's -D3 (zero-damping) Dispersion Correction
    Grimme S.; Antony J.; Ehrlich S.; Krieg H. (2010), J. Chem. Phys., 132: 154104

        S6 =   1.000000E+00
        S8 =   1.703000E+00
       SR6 =   1.261000E+00
       SR8 =   1.000000E+00
    ALPHA6 =   1.400000E+01

   => Loading Basis Set <=

    Name: (CC-PVDZ AUX)
    Role: JKFIT
    Keyword: DF_BASIS_SCF
    atoms 1-2 entry O          line   221 file /shared/joao/test_parameterize/miniconda3/share/psi4/basis/cc-pvdz-jkfit.gbs 
    atoms 3-4 entry H          line    51 file /shared/joao/test_parameterize/miniconda3/share/psi4/basis/cc-pvdz-jkfit.gbs 

  Reading orbitals from file 180, no projection.

  ==> Pre-Iterations <==

   -------------------------------------------------------
    Irrep   Nso     Nmo     Nalpha   Nbeta   Ndocc  Nsocc
   -------------------------------------------------------
     A         38      38       0       0       0       0
   -------------------------------------------------------
    Total      38      38       9       9       9       0
   -------------------------------------------------------

  ==> Integral Setup <==

  DFHelper Memory: AOs need 0.003 [GiB]; user supplied 3.486 [GiB]. Using in-core AOs.

  ==> MemDFJK: Density-Fitted J/K Matrices <==

    J tasked:                   Yes
    K tasked:                   Yes
    wK tasked:                   No
    OpenMP threads:               1
    Memory (MB):               3570
    Algorithm:                 Core
    Schwarz Cutoff:           1E-12
    Mask sparsity (%):       0.0000
    Fitting Condition:        1E-12

   => Auxiliary Basis Set <=

  Basis Set: (CC-PVDZ AUX)
    Blend: CC-PVDZ-JKFIT
    Number of shells: 66
    Number of basis function: 186
    Number of Cartesian functions: 212
    Spherical Harmonics?: true
    Max angular momentum: 3

  Minimum eigenvalue in the overlap matrix is 2.6811713544E-02.
  Using Symmetric Orthogonalization.

  SCF Guess: Orbitals guess was supplied from a previous computation.

  ==> Iterations <==

                           Total Energy        Delta E     RMS |[F,P]|

   @DF-RKS iter   0:  -151.55002025431685   -1.51550e+02   2.17237e-03 
   @DF-RKS iter   1:  -151.54950752204692    5.12732e-04   3.87273e-04 
   @DF-RKS iter   2:  -151.54960172104398   -9.41990e-05   1.61436e-04 DIIS
   @DF-RKS iter   3:  -151.54961668810992   -1.49671e-05   2.30709e-05 DIIS
   @DF-RKS iter   4:  -151.54961715981864   -4.71709e-07   1.40889e-05 DIIS
   @DF-RKS iter   5:  -151.54961726896059   -1.09142e-07   3.35996e-06 DIIS
   @DF-RKS iter   6:  -151.54961727283998   -3.87939e-09   2.35297e-06 DIIS
   @DF-RKS iter   7:  -151.54961727572370   -2.88372e-09   3.39633e-07 DIIS
   @DF-RKS iter   8:  -151.54961727578822   -6.45173e-11   1.99074e-08 DIIS
   @DF-RKS iter   9:  -151.54961727578856   -3.41061e-13   3.54007e-09 DIIS

  ==> Post-Iterations <==

    Orbital Energies [Eh]
    ---------------------

    Doubly Occupied:                                                      

       1A    -19.189699     2A    -19.189663     3A     -1.102590  
       4A     -0.893516     5A     -0.535609     6A     -0.461810  
       7A     -0.410617     8A     -0.291839     9A     -0.289459  

    Virtual:                                                              

      10A      0.010753    11A      0.047200    12A      0.108243  
      13A      0.568935    14A      0.581882    15A      0.853015  
      16A      0.870592    17A      0.934558    18A      0.947523  
      19A      1.013456    20A      1.036729    21A      1.246892  
      22A      1.255675    23A      1.386828    24A      1.408309  
      25A      1.639553    26A      1.717515    27A      2.070340  
      28A      2.079400    29A      2.402458    30A      2.476695  
      31A      2.488468    32A      2.857015    33A      2.934425  
      34A      3.081150    35A      3.099027    36A      3.488040  
      37A      3.565384    38A      3.781837  

    Final Occupation by Irrep:
              A 
    DOCC [     9 ]

  Energy converged.

  @DF-RKS Final Energy:  -151.54961727578856

   => Energetics <=

    Nuclear Repulsion Energy =             36.4069649257884933
    One-Electron Energy =                -280.8043168954732209
    Two-Electron Energy =                 107.3022892034117035
    DFT Exchange-Correlation Energy =     -14.4541700995155260
    Empirical Dispersion Energy =          -0.0003844100000000
    VV10 Nonlocal Energy =                  0.0000000000000000
    Total Energy =                       -151.5496172757885631



Properties will be evaluated at   0.000000,   0.000000,   0.000000 [a0]

Properties computed using the SCF density matrix

  Nuclear Dipole Moment: [e a0]
     X:    58.9642      Y:    -2.5407      Z:    -1.7062

  Electronic Dipole Moment: [e a0]
     X:   -59.0184      Y:     2.3209      Z:     0.8258

  Dipole Moment: [e a0]
     X:    -0.0542      Y:    -0.2198      Z:    -0.8804     Total:     0.9090

  Dipole Moment: [D]
     X:    -0.1378      Y:    -0.5588      Z:    -2.2377     Total:     2.3105


*** tstop() called on loro.prib.upf.edu at Sat Sep 29 16:38:12 2018
Module time:
	user time   =       2.70 seconds =       0.05 minutes
	system time =       0.05 seconds =       0.00 minutes
	total time  =          4 seconds =       0.07 minutes
Total time:
	user time   =       6.58 seconds =       0.11 minutes
	system time =       0.19 seconds =       0.00 minutes
	total time  =         10 seconds =       0.17 minutes

*** tstart() called on loro.prib.upf.edu
*** at Sat Sep 29 16:38:12 2018


         ------------------------------------------------------------
                                   SCF GRAD                          
                          Rob Parrish, Justin Turney,                
                       Andy Simmonett, and Alex Sokolov              
         ------------------------------------------------------------

  ==> Geometry <==

    Molecular point group: c1
    Full point group: C1

    Geometry (in Angstrom), charge = 0, multiplicity = 1:

       Center              X                  Y                   Z               Mass       
    ------------   -----------------  -----------------  -----------------  -----------------
         O            1.006466303022    -0.039025427213     0.062702492307    15.994914619560
         O            2.469372167996    -0.074282559708    -0.018540664040    15.994914619560
         H            0.741895607261    -0.847326881188    -0.412346297930     1.007825032070
         H            2.653881921721     0.409311868109    -0.843828530337     1.007825032070

  Nuclear repulsion =   36.406964925788493

  ==> Basis Set <==

  Basis Set: CC-PVDZ
    Blend: CC-PVDZ
    Number of shells: 18
    Number of basis function: 38
    Number of Cartesian functions: 40
    Spherical Harmonics?: true
    Max angular momentum: 2

  ==> DFJKGrad: Density-Fitted SCF Gradients <==

    Gradient:                    1
    J tasked:                  Yes
    K tasked:                  Yes
    wK tasked:                  No
    OpenMP threads:              1
    Integrals threads:           1
    Memory (MB):              3570
    Schwarz Cutoff:          0E+00
    Fitting Condition:       1E-12

   => Auxiliary Basis Set <=

  Basis Set: (CC-PVDZ AUX)
    Blend: CC-PVDZ-JKFIT
    Number of shells: 66
    Number of basis function: 186
    Number of Cartesian functions: 212
    Spherical Harmonics?: true
    Max angular momentum: 3

  ==> DFT Potential <==

   => Composite Functional: B3LYP-D3ZERO <= 

    B3LYP-d3zero Hyb-GGA Exchange-Correlation Functional

    P. J. Stephens, F. J. Devlin, C. F. Chabalowski, and M. J. Frisch, J. Phys. Chem. 98, 11623 (1994)

    Deriv               =              1
    GGA                 =           TRUE
    Meta                =          FALSE

    Exchange Hybrid     =           TRUE
    MP2 Hybrid          =          FALSE

   => Exchange Functionals <=

    0.0800   Slater exchange
    0.7200         Becke 88

   => Exact (HF) Exchange <=

    0.2000               HF 

   => Correlation Functionals <=

    0.1900   Vosko, Wilk & Nusair (VWN5_RPA)
    0.8100   Lee, Yang & Parr

   => Molecular Quadrature <=

    Radial Scheme       =       TREUTLER
    Pruning Scheme      =           FLAT
    Nuclear Scheme      =       TREUTLER

    BS radius alpha     =              1
    Pruning alpha       =              1
    Radial Points       =             75
    Spherical Points    =            302
    Total Points        =          88324
    Total Blocks        =            708
    Max Points          =            256
    Max Functions       =             38


  -Total Gradient:
     Atom            X                  Y                   Z
    ------   -----------------  -----------------  -----------------
       1       -0.009313514133    -0.007498974132     0.002451780100
       2        0.009317408133     0.007504772154    -0.002443309204
       3       -0.004240829961     0.003123705044    -0.000519511206
       4        0.004237677734    -0.003126500313     0.000523050855


*** tstop() called on loro.prib.upf.edu at Sat Sep 29 16:38:13 2018
Module time:
	user time   =       0.60 seconds =       0.01 minutes
	system time =       0.02 seconds =       0.00 minutes
	total time  =          1 seconds =       0.02 minutes
Total time:
	user time   =       7.19 seconds =       0.12 minutes
	system time =       0.21 seconds =       0.00 minutes
	total time  =         11 seconds =       0.18 minutes

			-----------------------------------------
			 OPTKING 2.0: for geometry optimizations 
			  - R.A. King,  Bethel University        
			-----------------------------------------
	At level 1: Red. Int., RFO, no backsteps, dynamic trust

	Previous internal coordinate definitions found.
	---Fragment 1 Geometry and Gradient---
	 O           1.9019456747       -0.0737473697        0.1184905383
	 O           4.6664371177       -0.1403736943       -0.0350367774
	 H           1.4019795169       -1.6012157505       -0.7792215750
	 H           5.0151100211        0.7734873337       -1.5946048255
	            -0.0093135141       -0.0074989741        0.0024517801
	             0.0093174081        0.0075047722       -0.0024433092
	            -0.0042408300        0.0031237050       -0.0005195112
	             0.0042376777       -0.0031265003        0.0005230509

	---Fragment 1 Intrafragment Coordinates---
	 - Coordinate -           - BOHR/RAD -       - ANG/DEG -
	 R(1,2)           =         2.769553	       1.465584
	 R(1,3)           =         1.840927	       0.974177
	 R(2,4)           =         1.840915	       0.974170
	 B(1,2,4)         =         1.796791	     102.948532
	 B(2,1,3)         =         1.796811	     102.949676
	*D(3,1,2,4)       =         1.570796	      89.999994

	Current energy   :      -151.5496172758

	Energy change for the previous step:
		Projected    :        -0.0027615987
		Actual       :        -0.0009879607

	Performing BFGS update.
	Previous computed or guess Hessian on step 1.
	Steps to be used in Hessian update: 1
	Taking RFO optimization step.
	Going to follow RFO solution 1.
	Using RFO vector 1.
	Norm of target step-size    0.05031
	Projected energy change by RFO approximation:        -0.0013749572

	Back-transformation to cartesian coordinates...
	Successfully converged to displaced geometry.

	Back-transformation to cartesian coordinates to adjust frozen coordinates...
	Successfully converged to displaced geometry.

	--- Internal Coordinate Step in ANG or DEG, aJ/ANG or AJ/DEG ---
	 ---------------------------------------------------------------------------
	   Coordinate                Previous        Force       Change         New 
	   ----------                --------       ------       ------       ------
	    1 R(1,2)          =      1.465584    -0.111482    -0.012146     1.453439
	    2 R(1,3)          =      0.974177     0.009760     0.000742     0.974919
	    3 R(2,4)          =      0.974170     0.009808     0.000748     0.974918
	    4 B(1,2,4)        =    102.948532    -0.000653    -1.814006   101.134526
	    5 B(2,1,3)        =    102.949676    -0.000653    -1.814867   101.134808
	    6 *D(3,1,2,4)     =     89.999994     0.000000     0.000000    89.999994
	 ---------------------------------------------------------------------------
	Successfully symmetrized geometry.

  ==> Convergence Check <==

  Measures of convergence in internal coordinates in au.
  Criteria marked as inactive (o), active & met (*), and active & unmet ( ).
  ---------------------------------------------------------------------------------------------
   Step     Total Energy     Delta E     MAX Force     RMS Force      MAX Disp      RMS Disp   
  ---------------------------------------------------------------------------------------------
    Convergence Criteria    1.00e-06 *    3.00e-04 *             o    1.20e-03 *             o
  ---------------------------------------------------------------------------------------------
      2    -151.54961728   -9.88e-04      1.35e-02      7.45e-03 o    3.17e-02      2.06e-02 o  ~
  ---------------------------------------------------------------------------------------------

	Writing optimization data to binary file.
	Structure for next step:
	Cartesian Geometry (in Angstrom)
	    O     1.0128772160  -0.0275332793   0.0620559778
	    O     2.4632569750  -0.0845511824  -0.0129854234
	    H     0.7674223489  -0.8395048852  -0.4184858492
	    H     2.6280594602   0.4002663469  -0.8425977053
			--------------------------
			 OPTKING Finished Execution 
			--------------------------

    Structure for next step:
    Molecular point group: c1
    Full point group: C1

    Geometry (in Angstrom), charge = 0, multiplicity = 1:

    O            1.012877215960    -0.027533279290     0.062055977821
    O            2.463256975035    -0.084551182435    -0.012985423355
    H            0.767422348851    -0.839504885182    -0.418485849188
    H            2.628059460154     0.400266346907    -0.842597705278

gradient() will perform analytic gradient computation.

*** tstart() called on loro.prib.upf.edu
*** at Sat Sep 29 16:38:13 2018

   => Loading Basis Set <=

    Name: CC-PVDZ
    Role: ORBITAL
    Keyword: BASIS
    atoms 1-2 entry O          line   198 file /shared/joao/test_parameterize/miniconda3/share/psi4/basis/cc-pvdz.gbs 
    atoms 3-4 entry H          line    22 file /shared/joao/test_parameterize/miniconda3/share/psi4/basis/cc-pvdz.gbs 


         ---------------------------------------------------------
                                   SCF
            by Justin Turney, Rob Parrish, Andy Simmonett
                             and Daniel Smith
                              RKS Reference
                        1 Threads,   5100 MiB Core
         ---------------------------------------------------------

  ==> Geometry <==

    Molecular point group: c1
    Full point group: C1

    Geometry (in Angstrom), charge = 0, multiplicity = 1:

       Center              X                  Y                   Z               Mass       
    ------------   -----------------  -----------------  -----------------  -----------------
         O            1.012877215960    -0.027533279290     0.062055977821    15.994914619560
         O            2.463256975035    -0.084551182435    -0.012985423355    15.994914619560
         H            0.767422348851    -0.839504885182    -0.418485849188     1.007825032070
         H            2.628059460154     0.400266346907    -0.842597705278     1.007825032070

  Running in c1 symmetry.

  Rotational constants: A =      9.23784  B =      0.13817  C =      0.13805 [cm^-1]
  Rotational constants: A = 276943.61531  B =   4142.34294  C =   4138.67675 [MHz]
  Nuclear repulsion =   36.674809670651342

  Charge       = 0
  Multiplicity = 1
  Electrons    = 18
  Nalpha       = 9
  Nbeta        = 9

  ==> Algorithm <==

  SCF Algorithm Type is DF.
  DIIS enabled.
  MOM disabled.
  Fractional occupation disabled.
  Guess Type is READ.
  Energy threshold   = 1.00e-08
  Density threshold  = 1.00e-08
  Integral threshold = 0.00e+00

  ==> Primary Basis <==

  Basis Set: CC-PVDZ
    Blend: CC-PVDZ
    Number of shells: 18
    Number of basis function: 38
    Number of Cartesian functions: 40
    Spherical Harmonics?: true
    Max angular momentum: 2

  ==> DFT Potential <==

   => Composite Functional: B3LYP-D3ZERO <= 

    B3LYP-d3zero Hyb-GGA Exchange-Correlation Functional

    P. J. Stephens, F. J. Devlin, C. F. Chabalowski, and M. J. Frisch, J. Phys. Chem. 98, 11623 (1994)

    Deriv               =              1
    GGA                 =           TRUE
    Meta                =          FALSE

    Exchange Hybrid     =           TRUE
    MP2 Hybrid          =          FALSE

   => Exchange Functionals <=

    0.0800   Slater exchange
    0.7200         Becke 88

   => Exact (HF) Exchange <=

    0.2000               HF 

   => Correlation Functionals <=

    0.1900   Vosko, Wilk & Nusair (VWN5_RPA)
    0.8100   Lee, Yang & Parr

   => Molecular Quadrature <=

    Radial Scheme       =       TREUTLER
    Pruning Scheme      =           FLAT
    Nuclear Scheme      =       TREUTLER

    BS radius alpha     =              1
    Pruning alpha       =              1
    Radial Points       =             75
    Spherical Points    =            302
    Total Points        =          88316
    Total Blocks        =            709
    Max Points          =            254
    Max Functions       =             38

   => -D3ZERO: Empirical Dispersion <=

    Grimme's -D3 (zero-damping) Dispersion Correction
    Grimme S.; Antony J.; Ehrlich S.; Krieg H. (2010), J. Chem. Phys., 132: 154104

        S6 =   1.000000E+00
        S8 =   1.703000E+00
       SR6 =   1.261000E+00
       SR8 =   1.000000E+00
    ALPHA6 =   1.400000E+01

   => Loading Basis Set <=

    Name: (CC-PVDZ AUX)
    Role: JKFIT
    Keyword: DF_BASIS_SCF
    atoms 1-2 entry O          line   221 file /shared/joao/test_parameterize/miniconda3/share/psi4/basis/cc-pvdz-jkfit.gbs 
    atoms 3-4 entry H          line    51 file /shared/joao/test_parameterize/miniconda3/share/psi4/basis/cc-pvdz-jkfit.gbs 

  Reading orbitals from file 180, no projection.

  ==> Pre-Iterations <==

   -------------------------------------------------------
    Irrep   Nso     Nmo     Nalpha   Nbeta   Ndocc  Nsocc
   -------------------------------------------------------
     A         38      38       0       0       0       0
   -------------------------------------------------------
    Total      38      38       9       9       9       0
   -------------------------------------------------------

  ==> Integral Setup <==

  DFHelper Memory: AOs need 0.003 [GiB]; user supplied 3.486 [GiB]. Using in-core AOs.

  ==> MemDFJK: Density-Fitted J/K Matrices <==

    J tasked:                   Yes
    K tasked:                   Yes
    wK tasked:                   No
    OpenMP threads:               1
    Memory (MB):               3570
    Algorithm:                 Core
    Schwarz Cutoff:           1E-12
    Mask sparsity (%):       0.0000
    Fitting Condition:        1E-12

   => Auxiliary Basis Set <=

  Basis Set: (CC-PVDZ AUX)
    Blend: CC-PVDZ-JKFIT
    Number of shells: 66
    Number of basis function: 186
    Number of Cartesian functions: 212
    Spherical Harmonics?: true
    Max angular momentum: 3

  Minimum eigenvalue in the overlap matrix is 2.6043249650E-02.
  Using Symmetric Orthogonalization.

  SCF Guess: Orbitals guess was supplied from a previous computation.

  ==> Iterations <==

                           Total Energy        Delta E     RMS |[F,P]|

   @DF-RKS iter   0:  -151.55407005227570   -1.51554e+02   8.56025e-04 
   @DF-RKS iter   1:  -151.55006305637488    4.00700e-03   2.10055e-04 
   @DF-RKS iter   2:  -151.55008180574950   -1.87494e-05   1.02352e-04 DIIS
   @DF-RKS iter   3:  -151.55008700936514   -5.20362e-06   1.64057e-05 DIIS
   @DF-RKS iter   4:  -151.55008715576304   -1.46398e-07   6.23635e-06 DIIS
   @DF-RKS iter   5:  -151.55008718421837   -2.84553e-08   4.04076e-07 DIIS
   @DF-RKS iter   6:  -151.55008718429443   -7.60565e-11   3.75435e-07 DIIS
   @DF-RKS iter   7:  -151.55008718436349   -6.90648e-11   1.03216e-07 DIIS
   @DF-RKS iter   8:  -151.55008718436926   -5.76961e-12   4.63050e-09 DIIS

  ==> Post-Iterations <==

    Orbital Energies [Eh]
    ---------------------

    Doubly Occupied:                                                      

       1A    -19.189193     2A    -19.189155     3A     -1.109357  
       4A     -0.890044     5A     -0.534692     6A     -0.466059  
       7A     -0.414319     8A     -0.290783     9A     -0.289023  

    Virtual:                                                              

      10A      0.019115    11A      0.045976    12A      0.109028  
      13A      0.570766    14A      0.581841    15A      0.852699  
      16A      0.872085    17A      0.927628    18A      0.939324  
      19A      1.012756    20A      1.039644    21A      1.246963  
      22A      1.249644    23A      1.379186    24A      1.408915  
      25A      1.657586    26A      1.709336    27A      2.071788  
      28A      2.080249    29A      2.410312    30A      2.474070  
      31A      2.488738    32A      2.856667    33A      2.935471  
      34A      3.089440    35A      3.111644    36A      3.480007  
      37A      3.562311    38A      3.803025  

    Final Occupation by Irrep:
              A 
    DOCC [     9 ]

  Energy converged.

  @DF-RKS Final Energy:  -151.55008718436926

   => Energetics <=

    Nuclear Repulsion Energy =             36.6748096706513422
    One-Electron Energy =                -281.3220252722056784
    Two-Electron Energy =                 107.5567804929924876
    DFT Exchange-Correlation Energy =     -14.4593084358073991
    Empirical Dispersion Energy =          -0.0003436400000000
    VV10 Nonlocal Energy =                  0.0000000000000000
    Total Energy =                       -151.5500871843692607



Properties will be evaluated at   0.000000,   0.000000,   0.000000 [a0]

Properties computed using the SCF density matrix

  Nuclear Dipole Moment: [e a0]
     X:    58.9681      Y:    -2.5245      Z:    -1.6413

  Electronic Dipole Moment: [e a0]
     X:   -59.0223      Y:     2.3044      Z:     0.7599

  Dipole Moment: [e a0]
     X:    -0.0543      Y:    -0.2201      Z:    -0.8813     Total:     0.9100

  Dipole Moment: [D]
     X:    -0.1379      Y:    -0.5594      Z:    -2.2402     Total:     2.3131


*** tstop() called on loro.prib.upf.edu at Sat Sep 29 16:38:16 2018
Module time:
	user time   =       2.45 seconds =       0.04 minutes
	system time =       0.09 seconds =       0.00 minutes
	total time  =          3 seconds =       0.05 minutes
Total time:
	user time   =       9.65 seconds =       0.16 minutes
	system time =       0.30 seconds =       0.01 minutes
	total time  =         14 seconds =       0.23 minutes

*** tstart() called on loro.prib.upf.edu
*** at Sat Sep 29 16:38:16 2018


         ------------------------------------------------------------
                                   SCF GRAD                          
                          Rob Parrish, Justin Turney,                
                       Andy Simmonett, and Alex Sokolov              
         ------------------------------------------------------------

  ==> Geometry <==

    Molecular point group: c1
    Full point group: C1

    Geometry (in Angstrom), charge = 0, multiplicity = 1:

       Center              X                  Y                   Z               Mass       
    ------------   -----------------  -----------------  -----------------  -----------------
         O            1.012877215960    -0.027533279290     0.062055977821    15.994914619560
         O            2.463256975035    -0.084551182435    -0.012985423355    15.994914619560
         H            0.767422348851    -0.839504885182    -0.418485849188     1.007825032070
         H            2.628059460154     0.400266346907    -0.842597705278     1.007825032070

  Nuclear repulsion =   36.674809670651342

  ==> Basis Set <==

  Basis Set: CC-PVDZ
    Blend: CC-PVDZ
    Number of shells: 18
    Number of basis function: 38
    Number of Cartesian functions: 40
    Spherical Harmonics?: true
    Max angular momentum: 2

  ==> DFJKGrad: Density-Fitted SCF Gradients <==

    Gradient:                    1
    J tasked:                  Yes
    K tasked:                  Yes
    wK tasked:                  No
    OpenMP threads:              1
    Integrals threads:           1
    Memory (MB):              3570
    Schwarz Cutoff:          0E+00
    Fitting Condition:       1E-12

   => Auxiliary Basis Set <=

  Basis Set: (CC-PVDZ AUX)
    Blend: CC-PVDZ-JKFIT
    Number of shells: 66
    Number of basis function: 186
    Number of Cartesian functions: 212
    Spherical Harmonics?: true
    Max angular momentum: 3

  ==> DFT Potential <==

   => Composite Functional: B3LYP-D3ZERO <= 

    B3LYP-d3zero Hyb-GGA Exchange-Correlation Functional

    P. J. Stephens, F. J. Devlin, C. F. Chabalowski, and M. J. Frisch, J. Phys. Chem. 98, 11623 (1994)

    Deriv               =              1
    GGA                 =           TRUE
    Meta                =          FALSE

    Exchange Hybrid     =           TRUE
    MP2 Hybrid          =          FALSE

   => Exchange Functionals <=

    0.0800   Slater exchange
    0.7200         Becke 88

   => Exact (HF) Exchange <=

    0.2000               HF 

   => Correlation Functionals <=

    0.1900   Vosko, Wilk & Nusair (VWN5_RPA)
    0.8100   Lee, Yang & Parr

   => Molecular Quadrature <=

    Radial Scheme       =       TREUTLER
    Pruning Scheme      =           FLAT
    Nuclear Scheme      =       TREUTLER

    BS radius alpha     =              1
    Pruning alpha       =              1
    Radial Points       =             75
    Spherical Points    =            302
    Total Points        =          88316
    Total Blocks        =            709
    Max Points          =            254
    Max Functions       =             38


  -Total Gradient:
     Atom            X                  Y                   Z
    ------   -----------------  -----------------  -----------------
       1       -0.002974909795    -0.001757075987     0.002497028671
       2        0.003192155539     0.002635935728     0.001020420456
       3       -0.000083522728     0.001379462187    -0.002217515610
       4       -0.000134045448    -0.002259624540    -0.001305153702


*** tstop() called on loro.prib.upf.edu at Sat Sep 29 16:38:17 2018
Module time:
	user time   =       0.67 seconds =       0.01 minutes
	system time =       0.01 seconds =       0.00 minutes
	total time  =          1 seconds =       0.02 minutes
Total time:
	user time   =      10.33 seconds =       0.17 minutes
	system time =       0.31 seconds =       0.01 minutes
	total time  =         15 seconds =       0.25 minutes

			-----------------------------------------
			 OPTKING 2.0: for geometry optimizations 
			  - R.A. King,  Bethel University        
			-----------------------------------------
	At level 1: Red. Int., RFO, no backsteps, dynamic trust

	Previous internal coordinate definitions found.
	---Fragment 1 Geometry and Gradient---
	 O           1.9140605444       -0.0520303574        0.1172688030
	 O           4.6548810777       -0.1597785790       -0.0245388939
	 H           1.4502180676       -1.5864343202       -0.7908236455
	 H           4.9663126406        0.7563937759       -1.5922789032
	            -0.0029749098       -0.0017570760        0.0024970287
	             0.0031921555        0.0026359357        0.0010204205
	            -0.0000835227        0.0013794622       -0.0022175156
	            -0.0001340454       -0.0022596245       -0.0013051537

	---Fragment 1 Intrafragment Coordinates---
	 - Coordinate -           - BOHR/RAD -       - ANG/DEG -
	 R(1,2)           =         2.746601	       1.453439
	 R(1,3)           =         1.842329	       0.974919
	 R(2,4)           =         1.842327	       0.974918
	 B(1,2,4)         =         1.765130	     101.134526
	 B(2,1,3)         =         1.765135	     101.134808
	*D(3,1,2,4)       =         1.570796	      89.999994

	Current energy   :      -151.5500871844

	Energy change for the previous step:
		Projected    :        -0.0013749572
		Actual       :        -0.0004699086

	Performing BFGS update.
	Previous computed or guess Hessian on step 1.
	Steps to be used in Hessian update: 2 1
	Taking RFO optimization step.
	Going to follow RFO solution 1.
	Using RFO vector 1.
	Norm of target step-size    0.00920
	Projected energy change by RFO approximation:        -0.0000332135

	Back-transformation to cartesian coordinates...
	Successfully converged to displaced geometry.

	Back-transformation to cartesian coordinates to adjust frozen coordinates...
	Successfully converged to displaced geometry.

	--- Internal Coordinate Step in ANG or DEG, aJ/ANG or AJ/DEG ---
	 ---------------------------------------------------------------------------
	   Coordinate                Previous        Force       Change         New 
	   ----------                --------       ------       ------       ------
	    1 R(1,2)          =      1.453439    -0.025153    -0.004500     1.448938
	    2 R(1,3)          =      0.974919     0.000303    -0.000008     0.974911
	    3 R(2,4)          =      0.974918     0.000311    -0.000004     0.974914
	    4 B(1,2,4)        =    101.134526    -0.000004     0.141881   101.276407
	    5 B(2,1,3)        =    101.134808    -0.000004     0.141539   101.276347
	    6 *D(3,1,2,4)     =     89.999994    -0.000000    -0.000000    89.999994
	 ---------------------------------------------------------------------------
	Successfully symmetrized geometry.

  ==> Convergence Check <==

  Measures of convergence in internal coordinates in au.
  Criteria marked as inactive (o), active & met (*), and active & unmet ( ).
  ---------------------------------------------------------------------------------------------
   Step     Total Energy     Delta E     MAX Force     RMS Force      MAX Disp      RMS Disp   
  ---------------------------------------------------------------------------------------------
    Convergence Criteria    1.00e-06 *    3.00e-04 *             o    1.20e-03 *             o
  ---------------------------------------------------------------------------------------------
      3    -151.55008718   -4.70e-04      3.05e-03      1.25e-03 o    8.50e-03      3.75e-03 o  ~
  ---------------------------------------------------------------------------------------------

	Writing optimization data to binary file.
	Structure for next step:
	Cartesian Geometry (in Angstrom)
	    O     1.0151073436  -0.0278107550   0.0618152592
	    O     2.4610040079  -0.0843560937  -0.0130690260
	    H     0.7674659400  -0.8393265408  -0.4183591769
	    H     2.6280387084   0.4001703895  -0.8424000563
			--------------------------
			 OPTKING Finished Execution 
			--------------------------

    Structure for next step:
    Molecular point group: c1
    Full point group: C1

    Geometry (in Angstrom), charge = 0, multiplicity = 1:

    O            1.015107343642    -0.027810754957     0.061815259196
    O            2.461004007916    -0.084356093676    -0.013069026000
    H            0.767465940038    -0.839326540823    -0.418359176887
    H            2.628038708404     0.400170389456    -0.842400056310

gradient() will perform analytic gradient computation.

*** tstart() called on loro.prib.upf.edu
*** at Sat Sep 29 16:38:17 2018

   => Loading Basis Set <=

    Name: CC-PVDZ
    Role: ORBITAL
    Keyword: BASIS
    atoms 1-2 entry O          line   198 file /shared/joao/test_parameterize/miniconda3/share/psi4/basis/cc-pvdz.gbs 
    atoms 3-4 entry H          line    22 file /shared/joao/test_parameterize/miniconda3/share/psi4/basis/cc-pvdz.gbs 


         ---------------------------------------------------------
                                   SCF
            by Justin Turney, Rob Parrish, Andy Simmonett
                             and Daniel Smith
                              RKS Reference
                        1 Threads,   5100 MiB Core
         ---------------------------------------------------------

  ==> Geometry <==

    Molecular point group: c1
    Full point group: C1

    Geometry (in Angstrom), charge = 0, multiplicity = 1:

       Center              X                  Y                   Z               Mass       
    ------------   -----------------  -----------------  -----------------  -----------------
         O            1.015107343642    -0.027810754957     0.061815259196    15.994914619560
         O            2.461004007916    -0.084356093676    -0.013069026000    15.994914619560
         H            0.767465940038    -0.839326540823    -0.418359176887     1.007825032070
         H            2.628038708404     0.400170389456    -0.842400056310     1.007825032070

  Running in c1 symmetry.

  Rotational constants: A =      9.24548  B =      0.13829  C =      0.13817 [cm^-1]
  Rotational constants: A = 277172.55619  B =   4145.94799  C =   4142.26584 [MHz]
  Nuclear repulsion =   36.752149878458958

  Charge       = 0
  Multiplicity = 1
  Electrons    = 18
  Nalpha       = 9
  Nbeta        = 9

  ==> Algorithm <==

  SCF Algorithm Type is DF.
  DIIS enabled.
  MOM disabled.
  Fractional occupation disabled.
  Guess Type is READ.
  Energy threshold   = 1.00e-08
  Density threshold  = 1.00e-08
  Integral threshold = 0.00e+00

  ==> Primary Basis <==

  Basis Set: CC-PVDZ
    Blend: CC-PVDZ
    Number of shells: 18
    Number of basis function: 38
    Number of Cartesian functions: 40
    Spherical Harmonics?: true
    Max angular momentum: 2

  ==> DFT Potential <==

   => Composite Functional: B3LYP-D3ZERO <= 

    B3LYP-d3zero Hyb-GGA Exchange-Correlation Functional

    P. J. Stephens, F. J. Devlin, C. F. Chabalowski, and M. J. Frisch, J. Phys. Chem. 98, 11623 (1994)

    Deriv               =              1
    GGA                 =           TRUE
    Meta                =          FALSE

    Exchange Hybrid     =           TRUE
    MP2 Hybrid          =          FALSE

   => Exchange Functionals <=

    0.0800   Slater exchange
    0.7200         Becke 88

   => Exact (HF) Exchange <=

    0.2000               HF 

   => Correlation Functionals <=

    0.1900   Vosko, Wilk & Nusair (VWN5_RPA)
    0.8100   Lee, Yang & Parr

   => Molecular Quadrature <=

    Radial Scheme       =       TREUTLER
    Pruning Scheme      =           FLAT
    Nuclear Scheme      =       TREUTLER

    BS radius alpha     =              1
    Pruning alpha       =              1
    Radial Points       =             75
    Spherical Points    =            302
    Total Points        =          88316
    Total Blocks        =            711
    Max Points          =            256
    Max Functions       =             38

   => -D3ZERO: Empirical Dispersion <=

    Grimme's -D3 (zero-damping) Dispersion Correction
    Grimme S.; Antony J.; Ehrlich S.; Krieg H. (2010), J. Chem. Phys., 132: 154104

        S6 =   1.000000E+00
        S8 =   1.703000E+00
       SR6 =   1.261000E+00
       SR8 =   1.000000E+00
    ALPHA6 =   1.400000E+01

   => Loading Basis Set <=

    Name: (CC-PVDZ AUX)
    Role: JKFIT
    Keyword: DF_BASIS_SCF
    atoms 1-2 entry O          line   221 file /shared/joao/test_parameterize/miniconda3/share/psi4/basis/cc-pvdz-jkfit.gbs 
    atoms 3-4 entry H          line    51 file /shared/joao/test_parameterize/miniconda3/share/psi4/basis/cc-pvdz-jkfit.gbs 

  Reading orbitals from file 180, no projection.

  ==> Pre-Iterations <==

   -------------------------------------------------------
    Irrep   Nso     Nmo     Nalpha   Nbeta   Ndocc  Nsocc
   -------------------------------------------------------
     A         38      38       0       0       0       0
   -------------------------------------------------------
    Total      38      38       9       9       9       0
   -------------------------------------------------------

  ==> Integral Setup <==

  DFHelper Memory: AOs need 0.003 [GiB]; user supplied 3.486 [GiB]. Using in-core AOs.

  ==> MemDFJK: Density-Fitted J/K Matrices <==

    J tasked:                   Yes
    K tasked:                   Yes
    wK tasked:                   No
    OpenMP threads:               1
    Memory (MB):               3570
    Algorithm:                 Core
    Schwarz Cutoff:           1E-12
    Mask sparsity (%):       0.0000
    Fitting Condition:        1E-12

   => Auxiliary Basis Set <=

  Basis Set: (CC-PVDZ AUX)
    Blend: CC-PVDZ-JKFIT
    Number of shells: 66
    Number of basis function: 186
    Number of Cartesian functions: 212
    Spherical Harmonics?: true
    Max angular momentum: 3

  Minimum eigenvalue in the overlap matrix is 2.5811893072E-02.
  Using Symmetric Orthogonalization.

  SCF Guess: Orbitals guess was supplied from a previous computation.

  ==> Iterations <==

                           Total Energy        Delta E     RMS |[F,P]|

   @DF-RKS iter   0:  -151.55228178192323   -1.51552e+02   2.46014e-04 
   @DF-RKS iter   1:  -151.55010186938387    2.17991e-03   5.46742e-05 
   @DF-RKS iter   2:  -151.55010292693154   -1.05755e-06   2.75468e-05 DIIS
   @DF-RKS iter   3:  -151.55010327793823   -3.51007e-07   4.33596e-06 DIIS
   @DF-RKS iter   4:  -151.55010328782902   -9.89078e-09   5.51600e-07 DIIS
   @DF-RKS iter   5:  -151.55010328801825   -1.89232e-10   9.62448e-08 DIIS
   @DF-RKS iter   6:  -151.55010328801882   -5.68434e-13   9.17782e-08 DIIS
   @DF-RKS iter   7:  -151.55010328802319   -4.37694e-12   8.03393e-09 DIIS

  ==> Post-Iterations <==

    Orbital Energies [Eh]
    ---------------------

    Doubly Occupied:                                                      

       1A    -19.188881     2A    -19.188842     3A     -1.111016  
       4A     -0.889299     5A     -0.535827     6A     -0.466329  
       7A     -0.414738     8A     -0.290287     9A     -0.288475  

    Virtual:                                                              

      10A      0.021295    11A      0.046019    12A      0.109994  
      13A      0.570777    14A      0.581959    15A      0.852738  
      16A      0.872620    17A      0.926964    18A      0.939290  
      19A      1.012916    20A      1.039179    21A      1.246931  
      22A      1.249568    23A      1.379500    24A      1.409508  
      25A      1.658863    26A      1.709864    27A      2.073233  
      28A      2.080655    29A      2.413477    30A      2.471506  
      31A      2.486241    32A      2.855333    33A      2.936263  
      34A      3.094534    35A      3.116405    36A      3.481068  
      37A      3.562077    38A      3.806828  

    Final Occupation by Irrep:
              A 
    DOCC [     9 ]

  Energy converged.

  @DF-RKS Final Energy:  -151.55010328802319

   => Energetics <=

    Nuclear Repulsion Energy =             36.7521498784589582
    One-Electron Energy =                -281.4735339890012256
    Two-Electron Energy =                 107.6325585719998230
    DFT Exchange-Correlation Energy =     -14.4609359694807704
    Empirical Dispersion Energy =          -0.0003417800000000
    VV10 Nonlocal Energy =                  0.0000000000000000
    Total Energy =                       -151.5501032880232231



Properties will be evaluated at   0.000000,   0.000000,   0.000000 [a0]

Properties computed using the SCF density matrix

  Nuclear Dipole Moment: [e a0]
     X:    58.9678      Y:    -2.5256      Z:    -1.6456

  Electronic Dipole Moment: [e a0]
     X:   -59.0220      Y:     2.3056      Z:     0.7645

  Dipole Moment: [e a0]
     X:    -0.0542      Y:    -0.2200      Z:    -0.8811     Total:     0.9097

  Dipole Moment: [D]
     X:    -0.1379      Y:    -0.5592      Z:    -2.2395     Total:     2.3123


*** tstop() called on loro.prib.upf.edu at Sat Sep 29 16:38:21 2018
Module time:
	user time   =       2.11 seconds =       0.04 minutes
	system time =       0.06 seconds =       0.00 minutes
	total time  =          4 seconds =       0.07 minutes
Total time:
	user time   =      12.45 seconds =       0.21 minutes
	system time =       0.37 seconds =       0.01 minutes
	total time  =         19 seconds =       0.32 minutes

*** tstart() called on loro.prib.upf.edu
*** at Sat Sep 29 16:38:21 2018


         ------------------------------------------------------------
                                   SCF GRAD                          
                          Rob Parrish, Justin Turney,                
                       Andy Simmonett, and Alex Sokolov              
         ------------------------------------------------------------

  ==> Geometry <==

    Molecular point group: c1
    Full point group: C1

    Geometry (in Angstrom), charge = 0, multiplicity = 1:

       Center              X                  Y                   Z               Mass       
    ------------   -----------------  -----------------  -----------------  -----------------
         O            1.015107343642    -0.027810754957     0.061815259196    15.994914619560
         O            2.461004007916    -0.084356093676    -0.013069026000    15.994914619560
         H            0.767465940038    -0.839326540823    -0.418359176887     1.007825032070
         H            2.628038708404     0.400170389456    -0.842400056310     1.007825032070

  Nuclear repulsion =   36.752149878458958

  ==> Basis Set <==

  Basis Set: CC-PVDZ
    Blend: CC-PVDZ
    Number of shells: 18
    Number of basis function: 38
    Number of Cartesian functions: 40
    Spherical Harmonics?: true
    Max angular momentum: 2

  ==> DFJKGrad: Density-Fitted SCF Gradients <==

    Gradient:                    1
    J tasked:                  Yes
    K tasked:                  Yes
    wK tasked:                  No
    OpenMP threads:              1
    Integrals threads:           1
    Memory (MB):              3570
    Schwarz Cutoff:          0E+00
    Fitting Condition:       1E-12

   => Auxiliary Basis Set <=

  Basis Set: (CC-PVDZ AUX)
    Blend: CC-PVDZ-JKFIT
    Number of shells: 66
    Number of basis function: 186
    Number of Cartesian functions: 212
    Spherical Harmonics?: true
    Max angular momentum: 3

  ==> DFT Potential <==

   => Composite Functional: B3LYP-D3ZERO <= 

    B3LYP-d3zero Hyb-GGA Exchange-Correlation Functional

    P. J. Stephens, F. J. Devlin, C. F. Chabalowski, and M. J. Frisch, J. Phys. Chem. 98, 11623 (1994)

    Deriv               =              1
    GGA                 =           TRUE
    Meta                =          FALSE

    Exchange Hybrid     =           TRUE
    MP2 Hybrid          =          FALSE

   => Exchange Functionals <=

    0.0800   Slater exchange
    0.7200         Becke 88

   => Exact (HF) Exchange <=

    0.2000               HF 

   => Correlation Functionals <=

    0.1900   Vosko, Wilk & Nusair (VWN5_RPA)
    0.8100   Lee, Yang & Parr

   => Molecular Quadrature <=

    Radial Scheme       =       TREUTLER
    Pruning Scheme      =           FLAT
    Nuclear Scheme      =       TREUTLER

    BS radius alpha     =              1
    Pruning alpha       =              1
    Radial Points       =             75
    Spherical Points    =            302
    Total Points        =          88316
    Total Blocks        =            711
    Max Points          =            256
    Max Functions       =             38


  -Total Gradient:
     Atom            X                  Y                   Z
    ------   -----------------  -----------------  -----------------
       1       -0.000731988620    -0.001842617460     0.002373586041
       2        0.000947265073     0.002716703359     0.001133244763
       3       -0.000082000591     0.001373169371    -0.002208292091
       4       -0.000133517915    -0.002248228068    -0.001302435787


*** tstop() called on loro.prib.upf.edu at Sat Sep 29 16:38:22 2018
Module time:
	user time   =       0.61 seconds =       0.01 minutes
	system time =       0.02 seconds =       0.00 minutes
	total time  =          1 seconds =       0.02 minutes
Total time:
	user time   =      13.06 seconds =       0.22 minutes
	system time =       0.39 seconds =       0.01 minutes
	total time  =         20 seconds =       0.33 minutes

			-----------------------------------------
			 OPTKING 2.0: for geometry optimizations 
			  - R.A. King,  Bethel University        
			-----------------------------------------
	At level 1: Red. Int., RFO, no backsteps, dynamic trust

	Previous internal coordinate definitions found.
	---Fragment 1 Geometry and Gradient---
	 O           1.9182748750       -0.0525547104        0.1168139107
	 O           4.6506235869       -0.1594099147       -0.0246968800
	 H           1.4503004430       -1.5860972982       -0.7905842695
	 H           4.9662734255        0.7562124426       -1.5919054008
	            -0.0007319886       -0.0018426175        0.0023735860
	             0.0009472651        0.0027167034        0.0011332448
	            -0.0000820006        0.0013731694       -0.0022082921
	            -0.0001335179       -0.0022482281       -0.0013024358

	---Fragment 1 Intrafragment Coordinates---
	 - Coordinate -           - BOHR/RAD -       - ANG/DEG -
	 R(1,2)           =         2.738097	       1.448938
	 R(1,3)           =         1.842315	       0.974911
	 R(2,4)           =         1.842320	       0.974914
	 B(1,2,4)         =         1.767607	     101.276407
	 B(2,1,3)         =         1.767606	     101.276347
	*D(3,1,2,4)       =         1.570796	      89.999994

	Current energy   :      -151.5501032880

	Energy change for the previous step:
		Projected    :        -0.0000332135
		Actual       :        -0.0000161037

	Performing BFGS update.
	Previous computed or guess Hessian on step 1.
	Steps to be used in Hessian update: 3 2
	Taking RFO optimization step.
	Going to follow RFO solution 1.
	Using RFO vector 1.
	Norm of target step-size    0.00311
	Projected energy change by RFO approximation:        -0.0000018448

	Back-transformation to cartesian coordinates...
	Successfully converged to displaced geometry.

	Back-transformation to cartesian coordinates to adjust frozen coordinates...
	Successfully converged to displaced geometry.

	--- Internal Coordinate Step in ANG or DEG, aJ/ANG or AJ/DEG ---
	 ---------------------------------------------------------------------------
	   Coordinate                Previous        Force       Change         New 
	   ----------                --------       ------       ------       ------
	    1 R(1,2)          =      1.448938    -0.006622    -0.001590     1.447348
	    2 R(1,3)          =      0.974911     0.000298     0.000031     0.974942
	    3 R(2,4)          =      0.974914     0.000280     0.000029     0.974942
	    4 B(1,2,4)        =    101.276407    -0.000004     0.032668   101.309074
	    5 B(2,1,3)        =    101.276347    -0.000004     0.032737   101.309084
	    6 *D(3,1,2,4)     =     89.999994     0.000000     0.000000    89.999994
	 ---------------------------------------------------------------------------
	Successfully symmetrized geometry.

  ==> Convergence Check <==

  Measures of convergence in internal coordinates in au.
  Criteria marked as inactive (o), active & met (*), and active & unmet ( ).
  ---------------------------------------------------------------------------------------------
   Step     Total Energy     Delta E     MAX Force     RMS Force      MAX Disp      RMS Disp   
  ---------------------------------------------------------------------------------------------
    Convergence Criteria    1.00e-06 *    3.00e-04 *             o    1.20e-03 *             o
  ---------------------------------------------------------------------------------------------
      4    -151.55010329   -1.61e-05      8.04e-04      3.30e-04 o    3.00e-03      1.27e-03 o  ~
  ---------------------------------------------------------------------------------------------

	Writing optimization data to binary file.
	Structure for next step:
	Cartesian Geometry (in Angstrom)
	    O     1.0159005890  -0.0278046603   0.0617358210
	    O     2.4602082833  -0.0843751258  -0.0130445691
	    H     0.7676711608  -0.8392181529  -0.4183701005
	    H     2.6278359669   0.4000749390  -0.8423341514
			--------------------------
			 OPTKING Finished Execution 
			--------------------------

    Structure for next step:
    Molecular point group: c1
    Full point group: C1

    Geometry (in Angstrom), charge = 0, multiplicity = 1:

    O            1.015900588981    -0.027804660301     0.061735820980
    O            2.460208283344    -0.084375125811    -0.013044569059
    H            0.767671160761    -0.839218152930    -0.418370100528
    H            2.627835966914     0.400074939043    -0.842334151392

gradient() will perform analytic gradient computation.

*** tstart() called on loro.prib.upf.edu
*** at Sat Sep 29 16:38:22 2018

   => Loading Basis Set <=

    Name: CC-PVDZ
    Role: ORBITAL
    Keyword: BASIS
    atoms 1-2 entry O          line   198 file /shared/joao/test_parameterize/miniconda3/share/psi4/basis/cc-pvdz.gbs 
    atoms 3-4 entry H          line    22 file /shared/joao/test_parameterize/miniconda3/share/psi4/basis/cc-pvdz.gbs 


         ---------------------------------------------------------
                                   SCF
            by Justin Turney, Rob Parrish, Andy Simmonett
                             and Daniel Smith
                              RKS Reference
                        1 Threads,   5100 MiB Core
         ---------------------------------------------------------

  ==> Geometry <==

    Molecular point group: c1
    Full point group: C1

    Geometry (in Angstrom), charge = 0, multiplicity = 1:

       Center              X                  Y                   Z               Mass       
    ------------   -----------------  -----------------  -----------------  -----------------
         O            1.015900588981    -0.027804660301     0.061735820980    15.994914619560
         O            2.460208283344    -0.084375125811    -0.013044569059    15.994914619560
         H            0.767671160761    -0.839218152930    -0.418370100528     1.007825032070
         H            2.627835966914     0.400074939043    -0.842334151392     1.007825032070

  Running in c1 symmetry.

  Rotational constants: A =      9.24809  B =      0.13834  C =      0.13821 [cm^-1]
  Rotational constants: A = 277250.78366  B =   4147.23293  C =   4143.55406 [MHz]
  Nuclear repulsion =   36.779815354632326

  Charge       = 0
  Multiplicity = 1
  Electrons    = 18
  Nalpha       = 9
  Nbeta        = 9

  ==> Algorithm <==

  SCF Algorithm Type is DF.
  DIIS enabled.
  MOM disabled.
  Fractional occupation disabled.
  Guess Type is READ.
  Energy threshold   = 1.00e-08
  Density threshold  = 1.00e-08
  Integral threshold = 0.00e+00

  ==> Primary Basis <==

  Basis Set: CC-PVDZ
    Blend: CC-PVDZ
    Number of shells: 18
    Number of basis function: 38
    Number of Cartesian functions: 40
    Spherical Harmonics?: true
    Max angular momentum: 2

  ==> DFT Potential <==

   => Composite Functional: B3LYP-D3ZERO <= 

    B3LYP-d3zero Hyb-GGA Exchange-Correlation Functional

    P. J. Stephens, F. J. Devlin, C. F. Chabalowski, and M. J. Frisch, J. Phys. Chem. 98, 11623 (1994)

    Deriv               =              1
    GGA                 =           TRUE
    Meta                =          FALSE

    Exchange Hybrid     =           TRUE
    MP2 Hybrid          =          FALSE

   => Exchange Functionals <=

    0.0800   Slater exchange
    0.7200         Becke 88

   => Exact (HF) Exchange <=

    0.2000               HF 

   => Correlation Functionals <=

    0.1900   Vosko, Wilk & Nusair (VWN5_RPA)
    0.8100   Lee, Yang & Parr

   => Molecular Quadrature <=

    Radial Scheme       =       TREUTLER
    Pruning Scheme      =           FLAT
    Nuclear Scheme      =       TREUTLER

    BS radius alpha     =              1
    Pruning alpha       =              1
    Radial Points       =             75
    Spherical Points    =            302
    Total Points        =          88316
    Total Blocks        =            709
    Max Points          =            255
    Max Functions       =             38

   => -D3ZERO: Empirical Dispersion <=

    Grimme's -D3 (zero-damping) Dispersion Correction
    Grimme S.; Antony J.; Ehrlich S.; Krieg H. (2010), J. Chem. Phys., 132: 154104

        S6 =   1.000000E+00
        S8 =   1.703000E+00
       SR6 =   1.261000E+00
       SR8 =   1.000000E+00
    ALPHA6 =   1.400000E+01

   => Loading Basis Set <=

    Name: (CC-PVDZ AUX)
    Role: JKFIT
    Keyword: DF_BASIS_SCF
    atoms 1-2 entry O          line   221 file /shared/joao/test_parameterize/miniconda3/share/psi4/basis/cc-pvdz-jkfit.gbs 
    atoms 3-4 entry H          line    51 file /shared/joao/test_parameterize/miniconda3/share/psi4/basis/cc-pvdz-jkfit.gbs 

  Reading orbitals from file 180, no projection.

  ==> Pre-Iterations <==

   -------------------------------------------------------
    Irrep   Nso     Nmo     Nalpha   Nbeta   Ndocc  Nsocc
   -------------------------------------------------------
     A         38      38       0       0       0       0
   -------------------------------------------------------
    Total      38      38       9       9       9       0
   -------------------------------------------------------

  ==> Integral Setup <==

  DFHelper Memory: AOs need 0.003 [GiB]; user supplied 3.486 [GiB]. Using in-core AOs.

  ==> MemDFJK: Density-Fitted J/K Matrices <==

    J tasked:                   Yes
    K tasked:                   Yes
    wK tasked:                   No
    OpenMP threads:               1
    Memory (MB):               3570
    Algorithm:                 Core
    Schwarz Cutoff:           1E-12
    Mask sparsity (%):       0.0000
    Fitting Condition:        1E-12

   => Auxiliary Basis Set <=

  Basis Set: (CC-PVDZ AUX)
    Blend: CC-PVDZ-JKFIT
    Number of shells: 66
    Number of basis function: 186
    Number of Cartesian functions: 212
    Spherical Harmonics?: true
    Max angular momentum: 3

  Minimum eigenvalue in the overlap matrix is 2.5729653633E-02.
  Using Symmetric Orthogonalization.

  SCF Guess: Orbitals guess was supplied from a previous computation.

  ==> Iterations <==

                           Total Energy        Delta E     RMS |[F,P]|

   @DF-RKS iter   0:  -151.55083563223943   -1.51551e+02   8.65297e-05 
   @DF-RKS iter   1:  -151.55010420507207    7.31427e-04   1.97420e-05 
   @DF-RKS iter   2:  -151.55010434306891   -1.37997e-07   9.89494e-06 DIIS
   @DF-RKS iter   3:  -151.55010438861160   -4.55427e-08   1.42175e-06 DIIS
   @DF-RKS iter   4:  -151.55010438967045   -1.05885e-09   1.78998e-07 DIIS
   @DF-RKS iter   5:  -151.55010438968910   -1.86446e-11   4.02797e-08 DIIS
   @DF-RKS iter   6:  -151.55010438968938   -2.84217e-13   3.39715e-08 DIIS
   @DF-RKS iter   7:  -151.55010438969018   -7.95808e-13   1.67591e-09 DIIS

  ==> Post-Iterations <==

    Orbital Energies [Eh]
    ---------------------

    Doubly Occupied:                                                      

       1A    -19.188774     2A    -19.188736     3A     -1.111623  
       4A     -0.889013     5A     -0.536193     6A     -0.466453  
       7A     -0.414907     8A     -0.290110     9A     -0.288286  

    Virtual:                                                              

      10A      0.022079    11A      0.046018    12A      0.110331  
      13A      0.570775    14A      0.581980    15A      0.852746  
      16A      0.872809    17A      0.926688    18A      0.939213  
      19A      1.012968    20A      1.039044    21A      1.246923  
      22A      1.249494    23A      1.379538    24A      1.409702  
      25A      1.659402    26A      1.709994    27A      2.073678  
      28A      2.080740    29A      2.414631    30A      2.470632  
      31A      2.485421    32A      2.854856    33A      2.936513  
      34A      3.096285    35A      3.118077    36A      3.481329  
      37A      3.561959    38A      3.808230  

    Final Occupation by Irrep:
              A 
    DOCC [     9 ]

  Energy converged.

  @DF-RKS Final Energy:  -151.55010438969018

   => Energetics <=

    Nuclear Repulsion Energy =             36.7798153546323263
    One-Electron Energy =                -281.5276982713809844
    Two-Electron Energy =                 107.6596230349747998
    DFT Exchange-Correlation Energy =     -14.4615036379163193
    Empirical Dispersion Energy =          -0.0003408700000000
    VV10 Nonlocal Energy =                  0.0000000000000000
    Total Energy =                       -151.5501043896901763



Properties will be evaluated at   0.000000,   0.000000,   0.000000 [a0]

Properties computed using the SCF density matrix

  Nuclear Dipole Moment: [e a0]
     X:    58.9677      Y:    -2.5258      Z:    -1.6463

  Electronic Dipole Moment: [e a0]
     X:   -59.0220      Y:     2.3058      Z:     0.7653

  Dipole Moment: [e a0]
     X:    -0.0542      Y:    -0.2200      Z:    -0.8810     Total:     0.9097

  Dipole Moment: [D]
     X:    -0.1378      Y:    -0.5592      Z:    -2.2393     Total:     2.3121


*** tstop() called on loro.prib.upf.edu at Sat Sep 29 16:38:25 2018
Module time:
	user time   =       2.02 seconds =       0.03 minutes
	system time =       0.06 seconds =       0.00 minutes
	total time  =          3 seconds =       0.05 minutes
Total time:
	user time   =      15.10 seconds =       0.25 minutes
	system time =       0.45 seconds =       0.01 minutes
	total time  =         23 seconds =       0.38 minutes

*** tstart() called on loro.prib.upf.edu
*** at Sat Sep 29 16:38:25 2018


         ------------------------------------------------------------
                                   SCF GRAD                          
                          Rob Parrish, Justin Turney,                
                       Andy Simmonett, and Alex Sokolov              
         ------------------------------------------------------------

  ==> Geometry <==

    Molecular point group: c1
    Full point group: C1

    Geometry (in Angstrom), charge = 0, multiplicity = 1:

       Center              X                  Y                   Z               Mass       
    ------------   -----------------  -----------------  -----------------  -----------------
         O            1.015900588981    -0.027804660301     0.061735820980    15.994914619560
         O            2.460208283344    -0.084375125811    -0.013044569059    15.994914619560
         H            0.767671160761    -0.839218152930    -0.418370100528     1.007825032070
         H            2.627835966914     0.400074939043    -0.842334151392     1.007825032070

  Nuclear repulsion =   36.779815354632326

  ==> Basis Set <==

  Basis Set: CC-PVDZ
    Blend: CC-PVDZ
    Number of shells: 18
    Number of basis function: 38
    Number of Cartesian functions: 40
    Spherical Harmonics?: true
    Max angular momentum: 2

  ==> DFJKGrad: Density-Fitted SCF Gradients <==

    Gradient:                    1
    J tasked:                  Yes
    K tasked:                  Yes
    wK tasked:                  No
    OpenMP threads:              1
    Integrals threads:           1
    Memory (MB):              3570
    Schwarz Cutoff:          0E+00
    Fitting Condition:       1E-12

   => Auxiliary Basis Set <=

  Basis Set: (CC-PVDZ AUX)
    Blend: CC-PVDZ-JKFIT
    Number of shells: 66
    Number of basis function: 186
    Number of Cartesian functions: 212
    Spherical Harmonics?: true
    Max angular momentum: 3

  ==> DFT Potential <==

   => Composite Functional: B3LYP-D3ZERO <= 

    B3LYP-d3zero Hyb-GGA Exchange-Correlation Functional

    P. J. Stephens, F. J. Devlin, C. F. Chabalowski, and M. J. Frisch, J. Phys. Chem. 98, 11623 (1994)

    Deriv               =              1
    GGA                 =           TRUE
    Meta                =          FALSE

    Exchange Hybrid     =           TRUE
    MP2 Hybrid          =          FALSE

   => Exchange Functionals <=

    0.0800   Slater exchange
    0.7200         Becke 88

   => Exact (HF) Exchange <=

    0.2000               HF 

   => Correlation Functionals <=

    0.1900   Vosko, Wilk & Nusair (VWN5_RPA)
    0.8100   Lee, Yang & Parr

   => Molecular Quadrature <=

    Radial Scheme       =       TREUTLER
    Pruning Scheme      =           FLAT
    Nuclear Scheme      =       TREUTLER

    BS radius alpha     =              1
    Pruning alpha       =              1
    Radial Points       =             75
    Spherical Points    =            302
    Total Points        =          88316
    Total Blocks        =            709
    Max Points          =            255
    Max Functions       =             38


  -Total Gradient:
     Atom            X                  Y                   Z
    ------   -----------------  -----------------  -----------------
       1        0.000087392753    -0.001805085885     0.002342898516
       2        0.000131692869     0.002693780646     0.001217046911
       3       -0.000052754103     0.001336856230    -0.002230025821
       4       -0.000166551709    -0.002226442156    -0.001333489072


*** tstop() called on loro.prib.upf.edu at Sat Sep 29 16:38:25 2018
Module time:
	user time   =       0.49 seconds =       0.01 minutes
	system time =       0.02 seconds =       0.00 minutes
	total time  =          0 seconds =       0.00 minutes
Total time:
	user time   =      15.59 seconds =       0.26 minutes
	system time =       0.47 seconds =       0.01 minutes
	total time  =         23 seconds =       0.38 minutes

			-----------------------------------------
			 OPTKING 2.0: for geometry optimizations 
			  - R.A. King,  Bethel University        
			-----------------------------------------
	At level 1: Red. Int., RFO, no backsteps, dynamic trust

	Previous internal coordinate definitions found.
	---Fragment 1 Geometry and Gradient---
	 O           1.9197738914       -0.0525431932        0.1166637942
	 O           4.6491198854       -0.1594458802       -0.0246506630
	 H           1.4506882540       -1.5858924748       -0.7906049122
	 H           4.9658902996        0.7560320674       -1.5917808585
	             0.0000873928       -0.0018050859        0.0023428985
	             0.0001316929        0.0026937806        0.0012170469
	            -0.0000527541        0.0013368562       -0.0022300258
	            -0.0001665517       -0.0022264422       -0.0013334891

	---Fragment 1 Intrafragment Coordinates---
	 - Coordinate -           - BOHR/RAD -       - ANG/DEG -
	 R(1,2)           =         2.735092	       1.447348
	 R(1,3)           =         1.842373	       0.974942
	 R(2,4)           =         1.842374	       0.974942
	 B(1,2,4)         =         1.768177	     101.309074
	 B(2,1,3)         =         1.768177	     101.309084
	*D(3,1,2,4)       =         1.570796	      89.999994

	Current energy   :      -151.5501043897

	Energy change for the previous step:
		Projected    :        -0.0000018448
		Actual       :        -0.0000011017

	Performing BFGS update.
	Previous computed or guess Hessian on step 1.
	Steps to be used in Hessian update: 4 3
	Taking RFO optimization step.
	Going to follow RFO solution 1.
	Using RFO vector 1.
	Norm of target step-size    0.00014
	Projected energy change by RFO approximation:        -0.0000000096

	Back-transformation to cartesian coordinates...
	Successfully converged to displaced geometry.

	Back-transformation to cartesian coordinates to adjust frozen coordinates...
	Successfully converged to displaced geometry.

	--- Internal Coordinate Step in ANG or DEG, aJ/ANG or AJ/DEG ---
	 ---------------------------------------------------------------------------
	   Coordinate                Previous        Force       Change         New 
	   ----------                --------       ------       ------       ------
	    1 R(1,2)          =      1.447348     0.000377     0.000072     1.447421
	    2 R(1,3)          =      0.974942     0.000021     0.000003     0.974945
	    3 R(2,4)          =      0.974942     0.000019     0.000003     0.974945
	    4 B(1,2,4)        =    101.309074     0.000001     0.001796   101.310870
	    5 B(2,1,3)        =    101.309084     0.000001     0.001778   101.310863
	    6 *D(3,1,2,4)     =     89.999994     0.000000     0.000000    89.999994
	 ---------------------------------------------------------------------------
	Successfully symmetrized geometry.

  ==> Convergence Check <==

  Measures of convergence in internal coordinates in au.
  Criteria marked as inactive (o), active & met (*), and active & unmet ( ).
  ---------------------------------------------------------------------------------------------
   Step     Total Energy     Delta E     MAX Force     RMS Force      MAX Disp      RMS Disp   
  ---------------------------------------------------------------------------------------------
    Convergence Criteria    1.00e-06 *    3.00e-04 *             o    1.20e-03 *             o
  ---------------------------------------------------------------------------------------------
      5    -151.55010439   -1.10e-06      4.58e-05 *    2.09e-05 o    1.37e-04 *    5.88e-05 o  ~
  ---------------------------------------------------------------------------------------------


  **** Optimization is complete! (in 5 steps) ****

  ==> Optimization Summary <==

  Measures of convergence in internal coordinates in au.
  --------------------------------------------------------------------------------------------------------------- ~
   Step         Total Energy             Delta E       MAX Force       RMS Force        MAX Disp        RMS Disp  ~
  --------------------------------------------------------------------------------------------------------------- ~
      1    -151.548629315070   -151.548629315070      0.01836476      0.01126461      0.11133784      0.06500429  ~
      2    -151.549617275789     -0.000987960719      0.01353147      0.00745282      0.03167541      0.02056074  ~
      3    -151.550087184369     -0.000469908581      0.00305301      0.00124703      0.00850429      0.00375406  ~
      4    -151.550103288023     -0.000016103654      0.00080378      0.00033034      0.00300470      0.00127057  ~
      5    -151.550104389690     -0.000001101667      0.00004579      0.00002093      0.00013695      0.00005885  ~
  --------------------------------------------------------------------------------------------------------------- ~

	Writing optimization data to binary file.
	Final energy is   -151.5501043896902
	Final (previous) structure:
	Cartesian Geometry (in Angstrom)
	    O     1.0159005890  -0.0278046603   0.0617358210
	    O     2.4602082833  -0.0843751258  -0.0130445691
	    H     0.7676711608  -0.8392181529  -0.4183701005
	    H     2.6278359669   0.4000749390  -0.8423341514
	Saving final (previous) structure.
	Removing binary optimization data file.
			--------------------------
			 OPTKING Finished Execution 
			--------------------------

    Final optimized geometry and variables:
    Molecular point group: c1
    Full point group: C1

    Geometry (in Angstrom), charge = 0, multiplicity = 1:

    O            1.015900588981    -0.027804660301     0.061735820980
    O            2.460208283344    -0.084375125811    -0.013044569059
    H            0.767671160761    -0.839218152930    -0.418370100528
    H            2.627835966914     0.400074939043    -0.842334151392

	Removing binary optimization data file.
	Cleaning optimization helper files.


Properties will be evaluated at   0.000000,   0.000000,   0.000000 [a0]
OEProp: No title given, name of density matrix used for the following properties is 'SCF density'
  Nuclear Dipole Moment: [e a0]
     X:    58.9677      Y:    -2.5258      Z:    -1.6463

  Electronic Dipole Moment: [e a0]
     X:   -59.0220      Y:     2.3058      Z:     0.7653

  Dipole Moment: [e a0]
     X:    -0.0542      Y:    -0.2200      Z:    -0.8810     Total:     0.9097

  Dipole Moment: [D]
     X:    -0.1378      Y:    -0.5592      Z:    -2.2393     Total:     2.3121

  Quadrupole Moment: [D A]
    XX:   -11.2378     YY:   -10.3002     ZZ:   -10.2556
    XY:     1.3853     XZ:    -4.4480     YZ:     0.0063

  Traceless Quadrupole Moment: [D A]
    XX:    -0.6400     YY:     0.2977     ZZ:     0.3423
    XY:     1.3853     XZ:    -4.4480     YZ:     0.0063

  Mulliken Charges: (a.u.)
   Center  Symbol    Alpha    Beta     Spin     Total
       1     O     4.08743  4.08743  0.00000 -0.17486
       2     O     4.08743  4.08743  0.00000 -0.17486
       3     H     0.41257  0.41257  0.00000  0.17486
       4     H     0.41257  0.41257  0.00000  0.17486

   Total alpha =  9.00000, Total beta =  9.00000, Total charge = -0.00000


    Psi4 stopped on: Saturday, 29 September 2018 04:38PM
    Psi4 wall time for execution: 0:00:23.06

*** Psi4 exiting successfully. Buy a developer a beer!
