
    -----------------------------------------------------------------------
          Psi4: An Open-Source Ab Initio Electronic Structure Package
                               Psi4 1.2.1 release

                         Git: Rev {HEAD} 406f4de 


    R. M. Parrish, L. A. Burns, D. G. A. Smith, A. C. Simmonett,
    A. E. DePrince III, E. G. Hohenstein, U. Bozkaya, A. Yu. Sokolov,
    R. Di Remigio, R. M. Richard, J. F. Gonthier, A. M. James,
    H. R. McAlexander, A. Kumar, M. Saitow, X. Wang, B. P. Pritchard,
    P. Verma, H. F. Schaefer III, K. Patkowski, R. A. King, E. F. Valeev,
    F. A. Evangelista, J. M. Turney, T. D. Crawford, and C. D. Sherrill,
    J. Chem. Theory Comput. 13(7) pp 3185--3197 (2017).
    (doi: 10.1021/acs.jctc.7b00174)


                         Additional Contributions by
    P. Kraus, H. Kruse, M. H. Lechner, M. C. Schieber, and R. A. Shaw

    -----------------------------------------------------------------------


    Psi4 started on: Saturday, 29 September 2018 08:29PM

    Process ID: 25762
    Host:       oliva.prib.upf.edu
    PSIDATADIR: /shared/joao/test_parameterize/miniconda3/share/psi4
    Memory:     500.0 MiB
    Threads:    1
    
  ==> Input File <==

--------------------------------------------------------------------------
set_num_threads(4)
set_memory('3000 MB')

set { scf_mem_safety_factor 0.7 }

set { reference rks }
set { basis 6-31G* }

molecule MOL {
    1 1
    noreorient
    nocom
    symmetry c1
    C   -0.000000  -0.000000  -0.177864
    C    0.036678   1.219374   0.524165
    C    0.031765   1.213120   1.915444
    C    0.000000   0.000000   2.610107
    C   -0.031765  -1.213120   1.915444
    C   -0.036678  -1.219375   0.524165
    C   -0.000000   0.000000  -1.644734
    H    0.018170   2.164705  -0.010854
    H    0.042402   2.152895   2.457886
    H    0.000000   0.000000   3.695756
    H   -0.042402  -2.152895   2.457886
    H   -0.018170  -2.164705  -0.010853
    N   -0.712590  -0.905950  -2.308461
    N    0.712590   0.905950  -2.308460
    H    0.673432   1.006470  -3.315997
    H    1.377190   1.485970  -1.813316
    H   -1.368813  -1.493894  -1.811494
    H   -0.681929  -0.999048  -3.317004
}

set optking { frozen_dihedral = (" 1 7 13 17 ") }

set optking { dynamic_level = 1 
 geom_maxiter = 250
 print_trajectory_xyz_file = True }

energy, wfn = optimize('B3LYP-D3', return_wfn=True)

import os
os.chdir(os.environ['HTMD_PSI4_WORKDIR'])

oeprop(wfn, 'DIPOLE', 'QUADRUPOLE', 'MULLIKEN_CHARGES')

with open('psi4out.xyz', 'w') as f:
    f.write('18 ' )
    f.write('%.12f\n' % energy)
    f.write(MOL.save_string_xyz())
--------------------------------------------------------------------------
  Threads set to 4 by Python driver.

  Memory set to   2.794 GiB by Python driver.
gradient() will perform analytic gradient computation.

*** tstart() called on oliva.prib.upf.edu
*** at Sat Sep 29 20:29:25 2018

   => Loading Basis Set <=

    Name: 6-31G*
    Role: ORBITAL
    Keyword: BASIS
    atoms 1-7         entry C          line   111 file /shared/joao/test_parameterize/miniconda3/share/psi4/basis/6-31gs.gbs 
    atoms 8-12, 15-18 entry H          line    44 file /shared/joao/test_parameterize/miniconda3/share/psi4/basis/6-31gs.gbs 
    atoms 13-14       entry N          line   128 file /shared/joao/test_parameterize/miniconda3/share/psi4/basis/6-31gs.gbs 


         ---------------------------------------------------------
                                   SCF
            by Justin Turney, Rob Parrish, Andy Simmonett
                             and Daniel Smith
                              RKS Reference
                        4 Threads,   2861 MiB Core
         ---------------------------------------------------------

  ==> Geometry <==

    Molecular point group: c1
    Full point group: C1

    Geometry (in Angstrom), charge = 1, multiplicity = 1:

       Center              X                  Y                   Z               Mass       
    ------------   -----------------  -----------------  -----------------  -----------------
         C            0.000000000000     0.000000000000    -0.177864000000    12.000000000000
         C            0.036678000000     1.219374000000     0.524165000000    12.000000000000
         C            0.031765000000     1.213120000000     1.915444000000    12.000000000000
         C            0.000000000000     0.000000000000     2.610107000000    12.000000000000
         C           -0.031765000000    -1.213120000000     1.915444000000    12.000000000000
         C           -0.036678000000    -1.219375000000     0.524165000000    12.000000000000
         C            0.000000000000     0.000000000000    -1.644734000000    12.000000000000
         H            0.018170000000     2.164705000000    -0.010854000000     1.007825032070
         H            0.042402000000     2.152895000000     2.457886000000     1.007825032070
         H            0.000000000000     0.000000000000     3.695756000000     1.007825032070
         H           -0.042402000000    -2.152895000000     2.457886000000     1.007825032070
         H           -0.018170000000    -2.164705000000    -0.010853000000     1.007825032070
         N           -0.712590000000    -0.905950000000    -2.308461000000    14.003074004780
         N            0.712590000000     0.905950000000    -2.308460000000    14.003074004780
         H            0.673432000000     1.006470000000    -3.315997000000     1.007825032070
         H            1.377190000000     1.485970000000    -1.813316000000     1.007825032070
         H           -1.368813000000    -1.493894000000    -1.811494000000     1.007825032070
         H           -0.681929000000    -0.999048000000    -3.317004000000     1.007825032070

  Running in c1 symmetry.

  Rotational constants: A =      0.12190  B =      0.03958  C =      0.03129 [cm^-1]
  Rotational constants: A =   3654.56058  B =   1186.43894  C =    938.03289 [MHz]
  Nuclear repulsion =  416.921900491638439

  Charge       = 1
  Multiplicity = 1
  Electrons    = 64
  Nalpha       = 32
  Nbeta        = 32

  ==> Algorithm <==

  SCF Algorithm Type is DF.
  DIIS enabled.
  MOM disabled.
  Fractional occupation disabled.
  Guess Type is SAD.
  Energy threshold   = 1.00e-08
  Density threshold  = 1.00e-08
  Integral threshold = 0.00e+00

  ==> Primary Basis <==

  Basis Set: 6-31G*
    Blend: 6-31G*
    Number of shells: 72
    Number of basis function: 153
    Number of Cartesian functions: 153
    Spherical Harmonics?: false
    Max angular momentum: 2

  ==> DFT Potential <==

   => Composite Functional: B3LYP-D3ZERO <= 

    B3LYP-d3zero Hyb-GGA Exchange-Correlation Functional

    P. J. Stephens, F. J. Devlin, C. F. Chabalowski, and M. J. Frisch, J. Phys. Chem. 98, 11623 (1994)

    Deriv               =              1
    GGA                 =           TRUE
    Meta                =          FALSE

    Exchange Hybrid     =           TRUE
    MP2 Hybrid          =          FALSE

   => Exchange Functionals <=

    0.0800   Slater exchange
    0.7200         Becke 88

   => Exact (HF) Exchange <=

    0.2000               HF 

   => Correlation Functionals <=

    0.1900   Vosko, Wilk & Nusair (VWN5_RPA)
    0.8100   Lee, Yang & Parr

   => Molecular Quadrature <=

    Radial Scheme       =       TREUTLER
    Pruning Scheme      =           FLAT
    Nuclear Scheme      =       TREUTLER

    BS radius alpha     =              1
    Pruning alpha       =              1
    Radial Points       =             75
    Spherical Points    =            302
    Total Points        =         396947
    Total Blocks        =           3037
    Max Points          =            256
    Max Functions       =            149

   => -D3ZERO: Empirical Dispersion <=

    Grimme's -D3 (zero-damping) Dispersion Correction
    Grimme S.; Antony J.; Ehrlich S.; Krieg H. (2010), J. Chem. Phys., 132: 154104

        S6 =   1.000000E+00
        S8 =   1.703000E+00
       SR6 =   1.261000E+00
       SR8 =   1.000000E+00
    ALPHA6 =   1.400000E+01

   => Loading Basis Set <=

    Name: (6-31G* AUX)
    Role: JKFIT
    Keyword: DF_BASIS_SCF
    atoms 1-7         entry C          line   121 file /shared/joao/test_parameterize/miniconda3/share/psi4/basis/cc-pvdz-jkfit.gbs 
    atoms 8-12, 15-18 entry H          line    51 file /shared/joao/test_parameterize/miniconda3/share/psi4/basis/cc-pvdz-jkfit.gbs 
    atoms 13-14       entry N          line   171 file /shared/joao/test_parameterize/miniconda3/share/psi4/basis/cc-pvdz-jkfit.gbs 

  ==> Pre-Iterations <==

   -------------------------------------------------------
    Irrep   Nso     Nmo     Nalpha   Nbeta   Ndocc  Nsocc
   -------------------------------------------------------
     A        153     153       0       0       0       0
   -------------------------------------------------------
    Total     153     153      32      32      32       0
   -------------------------------------------------------

  ==> Integral Setup <==

  ==> DiskDFJK: Density-Fitted J/K Matrices <==

    J tasked:                  Yes
    K tasked:                  Yes
    wK tasked:                  No
    OpenMP threads:              4
    Integrals threads:           4
    Memory (MB):              2002
    Algorithm:                Core
    Integral Cache:           NONE
    Schwarz Cutoff:          1E-12
    Fitting Condition:       1E-12

   => Auxiliary Basis Set <=

  Basis Set: (6-31G* AUX)
    Blend: CC-PVDZ-JKFIT
    Number of shells: 297
    Number of basis function: 954
    Number of Cartesian functions: 954
    Spherical Harmonics?: false
    Max angular momentum: 3

  Minimum eigenvalue in the overlap matrix is 4.8702786155E-04.
  Using Symmetric Orthogonalization.

  SCF Guess: Superposition of Atomic Densities via on-the-fly atomic UHF.

  ==> Iterations <==

                           Total Energy        Delta E     RMS |[F,P]|

   @DF-RKS iter   0:  -379.62150839723506   -3.79622e+02   4.79294e-02 
   @DF-RKS iter   1:  -381.04555341388254   -1.42405e+00   1.17502e-02 
   @DF-RKS iter   2:  -380.96688782679206    7.86656e-02   1.30182e-02 DIIS
   @DF-RKS iter   3:  -381.46338645714377   -4.96499e-01   1.61242e-03 DIIS
   @DF-RKS iter   4:  -381.46883063208531   -5.44417e-03   7.74317e-04 DIIS
   @DF-RKS iter   5:  -381.47035082428539   -1.52019e-03   2.36793e-04 DIIS
   @DF-RKS iter   6:  -381.47048421009544   -1.33386e-04   8.20042e-05 DIIS
   @DF-RKS iter   7:  -381.47050240236319   -1.81923e-05   1.54242e-05 DIIS
   @DF-RKS iter   8:  -381.47050300841244   -6.06049e-07   6.74474e-06 DIIS
   @DF-RKS iter   9:  -381.47050315227040   -1.43858e-07   2.02545e-06 DIIS
   @DF-RKS iter  10:  -381.47050316486326   -1.25929e-08   6.07032e-07 DIIS
   @DF-RKS iter  11:  -381.47050316591981   -1.05655e-09   8.04776e-08 DIIS
   @DF-RKS iter  12:  -381.47050316592833   -8.52651e-12   6.20536e-08 DIIS
   @DF-RKS iter  13:  -381.47050316593999   -1.16529e-11   1.79585e-08 DIIS
   @DF-RKS iter  14:  -381.47050316594027   -2.84217e-13   5.36179e-09 DIIS

  ==> Post-Iterations <==

    Orbital Energies [Eh]
    ---------------------

    Doubly Occupied:                                                      

       1A    -14.568134     2A    -14.568016     3A    -10.497240  
       4A    -10.373228     5A    -10.356162     6A    -10.356130  
       7A    -10.342943     8A    -10.340422     9A    -10.340361  
      10A     -1.183876    11A     -1.092004    12A     -1.014265  
      13A     -0.926617    14A     -0.902200    15A     -0.845442  
      16A     -0.785784    17A     -0.773452    18A     -0.741657  
      19A     -0.732955    20A     -0.688715    21A     -0.669050  
      22A     -0.625558    23A     -0.617375    24A     -0.587107  
      25A     -0.578998    26A     -0.572938    27A     -0.518298  
      28A     -0.505502    29A     -0.498083    30A     -0.472868  
      31A     -0.411625    32A     -0.405699  

    Virtual:                                                              

      33A     -0.216626    34A     -0.157523    35A     -0.128700  
      36A     -0.107881    37A     -0.067234    38A     -0.061438  
      39A     -0.038538    40A     -0.034525    41A      0.007212  
      42A      0.019904    43A      0.021149    44A      0.056151  
      45A      0.062089    46A      0.083794    47A      0.126932  
      48A      0.148239    49A      0.157470    50A      0.157701  
      51A      0.201460    52A      0.243135    53A      0.298545  
      54A      0.349345    55A      0.355140    56A      0.381295  
      57A      0.387614    58A      0.397303    59A      0.422143  
      60A      0.422689    61A      0.442513    62A      0.448139  
      63A      0.453380    64A      0.471392    65A      0.471808  
      66A      0.475333    67A      0.485106    68A      0.511993  
      69A      0.529318    70A      0.531158    71A      0.539056  
      72A      0.590192    73A      0.606070    74A      0.656362  
      75A      0.656825    76A      0.682839    77A      0.687932  
      78A      0.704296    79A      0.716507    80A      0.719310  
      81A      0.741073    82A      0.773538    83A      0.774997  
      84A      0.800480    85A      0.811290    86A      0.830965  
      87A      0.849962    88A      0.941946    89A      0.961363  
      90A      0.995498    91A      1.001070    92A      1.027646  
      93A      1.064665    94A      1.074504    95A      1.142056  
      96A      1.170443    97A      1.219844    98A      1.272656  
      99A      1.282950   100A      1.307326   101A      1.321593  
     102A      1.343555   103A      1.362347   104A      1.374250  
     105A      1.443924   106A      1.454216   107A      1.471051  
     108A      1.610238   109A      1.620967   110A      1.655343  
     111A      1.666556   112A      1.736537   113A      1.754188  
     114A      1.794583   115A      1.825215   116A      1.856844  
     117A      1.903779   118A      1.906384   119A      1.958584  
     120A      1.974618   121A      1.997435   122A      2.017404  
     123A      2.044046   124A      2.065244   125A      2.124975  
     126A      2.129908   127A      2.151715   128A      2.216516  
     129A      2.228834   130A      2.263312   131A      2.350136  
     132A      2.366097   133A      2.444046   134A      2.453612  
     135A      2.489499   136A      2.514976   137A      2.549853  
     138A      2.588014   139A      2.604182   140A      2.630651  
     141A      2.738331   142A      2.883998   143A      2.984493  
     144A      3.259258   145A      3.638165   146A      3.658238  
     147A      3.911769   148A      3.947972   149A      3.963694  
     150A      4.053928   151A      4.173970   152A      4.257699  
     153A      4.546297  

    Final Occupation by Irrep:
              A 
    DOCC [    32 ]

  Energy converged.

  @DF-RKS Final Energy:  -381.47050316594027

   => Energetics <=

    Nuclear Repulsion Energy =            416.9219004916384392
    One-Electron Energy =               -1329.0514936363119887
    Two-Electron Energy =                 575.0769865623794885
    DFT Exchange-Correlation Energy =     -44.4059676036461894
    Empirical Dispersion Energy =          -0.0119289800000000
    VV10 Nonlocal Energy =                  0.0000000000000000
    Total Energy =                       -381.4705031659402721



Properties will be evaluated at   0.000000,   0.000000,   0.000000 [a0]

Properties computed using the SCF density matrix

  Nuclear Dipole Moment: [e a0]
     X:    -0.0002      Y:    -0.0010      Z:     0.0263

  Electronic Dipole Moment: [e a0]
     X:    -0.0003      Y:     0.0011      Z:    -2.2825

  Dipole Moment: [e a0]
     X:    -0.0006      Y:     0.0001      Z:    -2.2562     Total:     2.2562

  Dipole Moment: [D]
     X:    -0.0014      Y:     0.0003      Z:    -5.7348     Total:     5.7348


*** tstop() called on oliva.prib.upf.edu at Sat Sep 29 20:29:54 2018
Module time:
	user time   =     100.22 seconds =       1.67 minutes
	system time =       0.85 seconds =       0.01 minutes
	total time  =         29 seconds =       0.48 minutes
Total time:
	user time   =     100.22 seconds =       1.67 minutes
	system time =       0.85 seconds =       0.01 minutes
	total time  =         29 seconds =       0.48 minutes

*** tstart() called on oliva.prib.upf.edu
*** at Sat Sep 29 20:29:54 2018


         ------------------------------------------------------------
                                   SCF GRAD                          
                          Rob Parrish, Justin Turney,                
                       Andy Simmonett, and Alex Sokolov              
         ------------------------------------------------------------

  ==> Geometry <==

    Molecular point group: c1
    Full point group: C1

    Geometry (in Angstrom), charge = 1, multiplicity = 1:

       Center              X                  Y                   Z               Mass       
    ------------   -----------------  -----------------  -----------------  -----------------
         C            0.000000000000     0.000000000000    -0.177864000000    12.000000000000
         C            0.036678000000     1.219374000000     0.524165000000    12.000000000000
         C            0.031765000000     1.213120000000     1.915444000000    12.000000000000
         C            0.000000000000     0.000000000000     2.610107000000    12.000000000000
         C           -0.031765000000    -1.213120000000     1.915444000000    12.000000000000
         C           -0.036678000000    -1.219375000000     0.524165000000    12.000000000000
         C            0.000000000000     0.000000000000    -1.644734000000    12.000000000000
         H            0.018170000000     2.164705000000    -0.010854000000     1.007825032070
         H            0.042402000000     2.152895000000     2.457886000000     1.007825032070
         H            0.000000000000     0.000000000000     3.695756000000     1.007825032070
         H           -0.042402000000    -2.152895000000     2.457886000000     1.007825032070
         H           -0.018170000000    -2.164705000000    -0.010853000000     1.007825032070
         N           -0.712590000000    -0.905950000000    -2.308461000000    14.003074004780
         N            0.712590000000     0.905950000000    -2.308460000000    14.003074004780
         H            0.673432000000     1.006470000000    -3.315997000000     1.007825032070
         H            1.377190000000     1.485970000000    -1.813316000000     1.007825032070
         H           -1.368813000000    -1.493894000000    -1.811494000000     1.007825032070
         H           -0.681929000000    -0.999048000000    -3.317004000000     1.007825032070

  Nuclear repulsion =  416.921900491638439

  ==> Basis Set <==

  Basis Set: 6-31G*
    Blend: 6-31G*
    Number of shells: 72
    Number of basis function: 153
    Number of Cartesian functions: 153
    Spherical Harmonics?: false
    Max angular momentum: 2

  ==> DFJKGrad: Density-Fitted SCF Gradients <==

    Gradient:                    1
    J tasked:                  Yes
    K tasked:                  Yes
    wK tasked:                  No
    OpenMP threads:              4
    Integrals threads:           4
    Memory (MB):              2002
    Schwarz Cutoff:          0E+00
    Fitting Condition:       1E-12

   => Auxiliary Basis Set <=

  Basis Set: (6-31G* AUX)
    Blend: CC-PVDZ-JKFIT
    Number of shells: 297
    Number of basis function: 954
    Number of Cartesian functions: 954
    Spherical Harmonics?: false
    Max angular momentum: 3

  ==> DFT Potential <==

   => Composite Functional: B3LYP-D3ZERO <= 

    B3LYP-d3zero Hyb-GGA Exchange-Correlation Functional

    P. J. Stephens, F. J. Devlin, C. F. Chabalowski, and M. J. Frisch, J. Phys. Chem. 98, 11623 (1994)

    Deriv               =              1
    GGA                 =           TRUE
    Meta                =          FALSE

    Exchange Hybrid     =           TRUE
    MP2 Hybrid          =          FALSE

   => Exchange Functionals <=

    0.0800   Slater exchange
    0.7200         Becke 88

   => Exact (HF) Exchange <=

    0.2000               HF 

   => Correlation Functionals <=

    0.1900   Vosko, Wilk & Nusair (VWN5_RPA)
    0.8100   Lee, Yang & Parr

   => Molecular Quadrature <=

    Radial Scheme       =       TREUTLER
    Pruning Scheme      =           FLAT
    Nuclear Scheme      =       TREUTLER

    BS radius alpha     =              1
    Pruning alpha       =              1
    Radial Points       =             75
    Spherical Points    =            302
    Total Points        =         396947
    Total Blocks        =           3037
    Max Points          =            256
    Max Functions       =            149


  -Total Gradient:
     Atom            X                  Y                   Z
    ------   -----------------  -----------------  -----------------
       1       -0.000167007651     0.000148066972    -0.000152987654
       2       -0.000004012339     0.000019035592     0.000085761196
       3        0.000009679205     0.000048335512    -0.000025946105
       4       -0.000004415147    -0.000018773011     0.000012749091
       5        0.000018395398     0.000005476761     0.000005365806
       6       -0.000013941654    -0.000076561622    -0.000005094126
       7       -0.000002902354     0.000130702841     0.000196353225
       8       -0.000011561721     0.000001431953    -0.000000568212
       9        0.000004702318    -0.000004266785    -0.000001125091
      10       -0.000002026170     0.000001792090    -0.000002537048
      11       -0.000002011271     0.000003039982    -0.000005337918
      12       -0.000023400969     0.000035756506    -0.000028743509
      13       -0.000043436293    -0.000117822477    -0.000116745148
      14        0.000182402487    -0.000121351914    -0.000038248452
      15       -0.000060814500     0.000011499306     0.000013809471
      16        0.000057307860    -0.000048321218    -0.000006979862
      17        0.000230540373    -0.000205335465     0.000062944527
      18       -0.000167409147     0.000188138932    -0.000014827534


*** tstop() called on oliva.prib.upf.edu at Sat Sep 29 20:30:02 2018
Module time:
	user time   =      30.11 seconds =       0.50 minutes
	system time =       0.30 seconds =       0.00 minutes
	total time  =          8 seconds =       0.13 minutes
Total time:
	user time   =     130.38 seconds =       2.17 minutes
	system time =       1.16 seconds =       0.02 minutes
	total time  =         37 seconds =       0.62 minutes

			-----------------------------------------
			 OPTKING 2.0: for geometry optimizations 
			  - R.A. King,  Bethel University        
			-----------------------------------------
	At level 1: Red. Int., RFO, no backsteps, dynamic trust

	Internal coordinates to be generated automatically.
	Detected frag 1 with atoms:  1 2 3 4 5 6 7 8 9 10 11 12 13 14 15 16 17 18
	---Fragment 1 Bond Connectivity---
	 1 : 2 6 7
	 2 : 1 3 8
	 3 : 2 4 9
	 4 : 3 5 10
	 5 : 4 6 11
	 6 : 1 5 12
	 7 : 1 13 14
	 8 : 2
	 9 : 3
	 10 : 4
	 11 : 5
	 12 : 6
	 13 : 7 17 18
	 14 : 7 15 16
	 15 : 14
	 16 : 14
	 17 : 13
	 18 : 13

	Assuming in current code that numbering for constraints corresponds to unified fragment.
	Frozen dihedral atom list: 
	     1     7    13    17
	---Fragment 1 Geometry and Gradient---
	 C           0.0000000000        0.0000000000       -0.3361142489
	 C           0.0693113751        2.3042829136        0.9905282984
	 C           0.0600271506        2.2924645663        3.6196645829
	 C           0.0000000000        0.0000000000        4.9323874075
	 C          -0.0600271506       -2.2924645663        3.6196645829
	 C          -0.0693113751       -2.3042848033        0.9905282984
	 C           0.0000000000        0.0000000000       -3.1080968214
	 H           0.0343363238        4.0906996085       -0.0205110874
	 H           0.0801281675        4.0683819429        4.6447314059
	 H           0.0000000000        0.0000000000        6.9839666940
	 H          -0.0801281675       -4.0683819429        4.6447314059
	 H          -0.0343363238       -4.0906996085       -0.0205091977
	 N          -1.3465999450       -1.7119973901       -4.3623590784
	 N           1.3465999450        1.7119973901       -4.3623571887
	 H           1.2726020491        1.9019526610       -6.2663261875
	 H           2.6025119329        2.8080763417       -3.4266706324
	 H          -2.5866816971       -2.8230505316       -3.4232275514
	 H          -1.2886590521       -1.8879271136       -6.2682291417
	            -0.0001670077        0.0001480670       -0.0001529877
	            -0.0000040123        0.0000190356        0.0000857612
	             0.0000096792        0.0000483355       -0.0000259461
	            -0.0000044151       -0.0000187730        0.0000127491
	             0.0000183954        0.0000054768        0.0000053658
	            -0.0000139417       -0.0000765616       -0.0000050941
	            -0.0000029024        0.0001307028        0.0001963532
	            -0.0000115617        0.0000014320       -0.0000005682
	             0.0000047023       -0.0000042668       -0.0000011251
	            -0.0000020262        0.0000017921       -0.0000025370
	            -0.0000020113        0.0000030400       -0.0000053379
	            -0.0000234010        0.0000357565       -0.0000287435
	            -0.0000434363       -0.0001178225       -0.0001167451
	             0.0001824025       -0.0001213519       -0.0000382485
	            -0.0000608145        0.0000114993        0.0000138095
	             0.0000573079       -0.0000483212       -0.0000069799
	             0.0002305404       -0.0002053355        0.0000629445
	            -0.0001674091        0.0001881389       -0.0000148275

	Previous optimization step data not found.  Starting new optimization.

	---Fragment 1 Intrafragment Coordinates---
	 - Coordinate -           - BOHR/RAD -       - ANG/DEG -
	 R(1,2)           =         2.659794	       1.407502
	 R(1,6)           =         2.659796	       1.407503
	 R(1,7)           =         2.771983	       1.466870
	 R(2,3)           =         2.629179	       1.391302
	 R(2,8)           =         2.052976	       1.086388
	 R(3,4)           =         2.642393	       1.398294
	 R(3,9)           =         2.050622	       1.085142
	 R(4,5)           =         2.642393	       1.398294
	 R(4,10)          =         2.051579	       1.085649
	 R(5,6)           =         2.629179	       1.391302
	 R(5,11)          =         2.050622	       1.085142
	 R(6,12)          =         2.052973	       1.086386
	 R(7,13)          =         2.513452	       1.330061
	 R(7,14)          =         2.513451	       1.330061
	 R(13,17)         =         1.911599	       1.011575
	 R(13,18)         =         1.914850	       1.013295
	 R(14,15)         =         1.914852	       1.013296
	 R(14,16)         =         1.911600	       1.011575
	 B(1,2,3)         =         2.088380	     119.655376
	 B(1,2,8)         =         2.103396	     120.515689
	 B(1,6,5)         =         2.088379	     119.655315
	 B(1,6,12)        =         2.103396	     120.515729
	 B(1,7,13)        =         2.093264	     119.935172
	 B(1,7,14)        =         2.093263	     119.935135
	 B(2,1,6)         =         2.097220	     120.161857
	 B(2,1,7)         =         2.092983	     119.919082
	 B(2,3,4)         =         2.095279	     120.050636
	 B(2,3,9)         =         2.089719	     119.732108
	 B(3,2,8)         =         2.090149	     119.756722
	 B(3,4,5)         =         2.101793	     120.423859
	 B(3,4,10)        =         2.090696	     119.788070
	 B(4,3,9)         =         2.098135	     120.214297
	 B(4,5,6)         =         2.095280	     120.050677
	 B(4,5,11)        =         2.098135	     120.214297
	 B(5,4,10)        =         2.090696	     119.788070
	 B(5,6,12)        =         2.090149	     119.756743
	 B(6,1,7)         =         2.092982	     119.919061
	 B(6,5,11)        =         2.089719	     119.732067
	 B(7,13,17)       =         2.092411	     119.886343
	 B(7,13,18)       =         2.144860	     122.891411
	 B(7,14,15)       =         2.144860	     122.891405
	 B(7,14,16)       =         2.092412	     119.886393
	 B(13,7,14)       =         2.096659	     120.129694
	 B(15,14,16)      =         2.043399	     117.078146
	 B(17,13,18)      =         2.043400	     117.078185
	 D(1,2,3,4)       =         0.007799	       0.446825
	 D(1,2,3,9)       =        -3.122896	    -178.928735
	 D(1,6,5,4)       =         0.007799	       0.446822
	 D(1,6,5,11)      =        -3.122896	    -178.928737
	*D(1,7,13,17)     =         0.174533	      10.000021
	 D(1,7,13,18)     =        -3.045477	    -174.492962
	 D(1,7,14,15)     =        -3.032165	    -173.730230
	 D(1,7,14,16)     =         0.187844	      10.762681
	 D(2,1,6,5)       =        -0.003906	      -0.223802
	 D(2,1,6,12)      =        -3.091437	    -177.126283
	 D(2,1,7,13)      =        -2.505167	    -143.535494
	 D(2,1,7,14)      =         0.636426	      36.464506
	 D(2,3,4,5)       =        -0.003942	      -0.225875
	 D(2,3,4,10)      =         3.137650	     179.774125
	 D(3,2,1,6)       =        -0.003906	      -0.223806
	 D(3,2,1,7)       =         3.137687	     179.776196
	 D(3,4,5,6)       =        -0.003942	      -0.225874
	 D(3,4,5,11)      =         3.126699	     179.146646
	 D(4,3,2,8)       =         3.095744	     177.373058
	 D(4,5,6,12)      =         3.095744	     177.373055
	 D(5,4,3,9)       =         3.126699	     179.146646
	 D(5,6,1,7)       =         3.137687	     179.776197
	 D(6,1,2,8)       =        -3.091437	    -177.126287
	 D(6,1,7,13)      =         0.636426	      36.464508
	 D(6,1,7,14)      =        -2.505167	    -143.535492
	 D(6,5,4,10)      =         3.137650	     179.774126
	 D(7,1,2,8)       =         0.050156	       2.873714
	 D(7,1,6,12)      =         0.050156	       2.873716
	 D(8,2,3,9)       =        -0.034950	      -2.002503
	 D(9,3,4,10)      =        -0.014894	      -0.853354
	 D(10,4,5,11)     =        -0.014894	      -0.853354
	 D(11,5,6,12)     =        -0.034950	      -2.002504
	 D(13,7,14,15)    =         0.109428	       6.269770
	 D(13,7,14,16)    =        -2.953748	    -169.237319
	 D(14,7,13,17)    =        -2.967059	    -169.999979
	 D(14,7,13,18)    =         0.096116	       5.507038

	Current energy   :      -381.4705031659

	Generating empirical Hessian (Schlegel '84) for each fragment.
	Taking RFO optimization step.
	Going to follow RFO solution 1.
	Using RFO vector 1.
	Norm of target step-size    0.01888
	Projected energy change by RFO approximation:        -0.0000087100

	Back-transformation to cartesian coordinates...
	Could not converge backtransformation.
	Using first guess instead.

	Back-transformation to cartesian coordinates to adjust frozen coordinates...
	Successfully converged to displaced geometry.

	--- Internal Coordinate Step in ANG or DEG, aJ/ANG or AJ/DEG ---
	 ---------------------------------------------------------------------------
	   Coordinate                Previous        Force       Change         New 
	   ----------                --------       ------       ------       ------
	    1 R(1,2)          =      1.407502    -0.000509    -0.000074     1.407428
	    2 R(1,6)          =      1.407503    -0.000037    -0.000005     1.407498
	    3 R(1,7)          =      1.466870     0.000864     0.000154     1.467024
	    4 R(2,3)          =      1.391302     0.000159     0.000022     1.391324
	    5 R(2,8)          =      1.086388    -0.000009    -0.000002     1.086386
	    6 R(3,4)          =      1.398294    -0.000255    -0.000035     1.398259
	    7 R(3,9)          =      1.085142     0.000030     0.000006     1.085148
	    8 R(4,5)          =      1.398294    -0.000139    -0.000018     1.398276
	    9 R(4,10)         =      1.085649     0.000011     0.000002     1.085651
	   10 R(5,6)          =      1.391302    -0.000081    -0.000010     1.391291
	   11 R(5,11)         =      1.085142     0.000038     0.000007     1.085149
	   12 R(6,12)         =      1.086386     0.000148     0.000028     1.086415
	   13 R(7,13)         =      1.330061    -0.000939    -0.000092     1.329970
	   14 R(7,14)         =      1.330061    -0.000014    -0.000001     1.330060
	   15 R(13,17)        =      1.011575    -0.000012     0.000006     1.011581
	   16 R(13,18)        =      1.013295     0.000073     0.000026     1.013321
	   17 R(14,15)        =      1.013296     0.000094     0.000014     1.013310
	   18 R(14,16)        =      1.011575    -0.000058    -0.000007     1.011568
	   19 B(1,2,3)        =    119.655376    -0.000001    -0.002092   119.653284
	   20 B(1,2,8)        =    120.515689     0.000000     0.000414   120.516104
	   21 B(1,6,5)        =    119.655315     0.000001     0.001963   119.657277
	   22 B(1,6,12)       =    120.515729     0.000003     0.013804   120.529534
	   23 B(1,7,13)       =    119.935172     0.000002     0.007065   119.942237
	   24 B(1,7,14)       =    119.935135    -0.000006    -0.019553   119.915581
	   25 B(2,1,6)        =    120.161857     0.000000     0.000055   120.161912
	   26 B(2,1,7)        =    119.919082    -0.000008    -0.024142   119.894939
	   27 B(2,3,4)        =    120.050636     0.000001     0.003184   120.053820
	   28 B(2,3,9)        =    119.732108    -0.000001    -0.002347   119.729760
	   29 B(3,2,8)        =    119.756722     0.000000     0.001060   119.757781
	   30 B(3,4,5)        =    120.423859    -0.000001    -0.001889   120.421971
	   31 B(3,4,10)       =    119.788070     0.000000     0.001588   119.789658
	   32 B(4,3,9)        =    120.214297    -0.000000    -0.000818   120.213479
	   33 B(4,5,6)        =    120.050677    -0.000000    -0.001255   120.049422
	   34 B(4,5,11)       =    120.214297     0.000000    -0.000179   120.214117
	   35 B(5,4,10)       =    119.788070     0.000000     0.000301   119.788371
	   36 B(5,6,12)       =    119.756743    -0.000003    -0.016264   119.740479
	   37 B(6,1,7)        =    119.919061     0.000008     0.024087   119.943148
	   38 B(6,5,11)       =    119.732067     0.000000     0.001300   119.733367
	   39 B(7,13,17)      =    119.886343     0.000001     0.010057   119.896400
	   40 B(7,13,18)      =    122.891411     0.000002     0.016247   122.907657
	   41 B(7,14,15)      =    122.891405     0.000003     0.014648   122.906053
	   42 B(7,14,16)      =    119.886393    -0.000001    -0.004353   119.882040
	   43 B(13,7,14)      =    120.129694     0.000004     0.011626   120.141319
	   44 B(15,14,16)     =    117.078146    -0.000002    -0.006825   117.071321
	   45 B(17,13,18)     =    117.078185    -0.000002    -0.002620   117.075565
	   46 D(1,2,3,4)      =      0.446825     0.000000     0.020235     0.467060
	   47 D(1,2,3,9)      =   -178.928735     0.000000     0.018292  -178.910444
	   48 D(1,6,5,4)      =      0.446822    -0.000000    -0.015750     0.431072
	   49 D(1,6,5,11)     =   -178.928737    -0.000000    -0.001793  -178.930530
	   50 *D(1,7,13,17)   =     10.000021     0.000000    -0.000000    10.000021
	   51 D(1,7,13,18)    =   -174.492962     0.000003     0.385218  -174.107744
	   52 D(1,7,14,15)    =   -173.730230     0.000000     0.050409  -173.679821
	   53 D(1,7,14,16)    =     10.762681    -0.000000    -0.003626    10.759055
	   54 D(2,1,6,5)      =     -0.223802     0.000000     0.037630    -0.186171
	   55 D(2,1,6,12)     =   -177.126283     0.000000     0.048782  -177.077500
	   56 D(2,1,7,13)     =   -143.535494     0.000001     0.282353  -143.253140
	   57 D(2,1,7,14)     =     36.464506    -0.000001    -0.054971    36.409535
	   58 D(2,3,4,5)      =     -0.225875     0.000000     0.001556    -0.224319
	   59 D(2,3,4,10)     =    179.774125    -0.000000    -0.007942   179.766182
	   60 D(3,2,1,6)      =     -0.223806    -0.000000    -0.039863    -0.263669
	   61 D(3,2,1,7)      =    179.776196    -0.000000    -0.039841   179.736355
	   62 D(3,4,5,6)      =     -0.225874    -0.000000    -0.003816    -0.229691
	   63 D(3,4,5,11)     =    179.146646    -0.000000    -0.017832   179.128815
	   64 D(4,3,2,8)      =    177.373058     0.000000     0.007132   177.380189
	   65 D(4,5,6,12)     =    177.373055    -0.000000    -0.025877   177.347178
	   66 D(5,4,3,9)      =    179.146646     0.000000     0.003500   179.150146
	   67 D(5,6,1,7)      =    179.776197     0.000000     0.037608   179.813805
	   68 D(6,1,2,8)      =   -177.126287    -0.000000    -0.026678  -177.152965
	   69 D(6,1,7,13)     =     36.464508     0.000001     0.282376    36.746883
	   70 D(6,1,7,14)     =   -143.535492    -0.000001    -0.054949  -143.590441
	   71 D(6,5,4,10)     =    179.774126     0.000000     0.005682   179.779808
	   72 D(7,1,2,8)      =      2.873714    -0.000000    -0.026656     2.847059
	   73 D(7,1,6,12)     =      2.873716     0.000000     0.048760     2.922476
	   74 D(8,2,3,9)      =     -2.002503     0.000000     0.005188    -1.997314
	   75 D(9,3,4,10)     =     -0.853354    -0.000000    -0.005999    -0.859353
	   76 D(10,4,5,11)    =     -0.853354    -0.000000    -0.008333    -0.861687
	   77 D(11,5,6,12)    =     -2.002504    -0.000000    -0.011920    -2.014424
	   78 D(13,7,14,15)   =      6.269770    -0.000002    -0.287594     5.982176
	   79 D(13,7,14,16)   =   -169.237319    -0.000002    -0.341629  -169.578948
	   80 D(14,7,13,17)   =   -169.999979     0.000002     0.338094  -169.661885
	   81 D(14,7,13,18)   =      5.507038     0.000004     0.723312     6.230350
	 ---------------------------------------------------------------------------
	Successfully symmetrized geometry.

  ==> Convergence Check <==

  Measures of convergence in internal coordinates in au.
  Criteria marked as inactive (o), active & met (*), and active & unmet ( ).
  --------------------------------------------------------------------------------------------- ~
   Step     Total Energy     Delta E     MAX Force     RMS Force      MAX Disp      RMS Disp    ~
  --------------------------------------------------------------------------------------------- ~
    Convergence Criteria    1.00e-06 *    3.00e-04 *             o    1.20e-03 *             o  ~
  --------------------------------------------------------------------------------------------- ~
      1    -381.47050317   -3.81e+02      2.54e-04 *    5.03e-05 o    1.26e-02      2.10e-03 o  ~
  ---------------------------------------------------------------------------------------------

	Writing optimization data to binary file.
	Structure for next step:
	Cartesian Geometry (in Angstrom)
	    C     0.0011737670  -0.0011716269  -0.1778947676
	    C     0.0371751895   1.2184733977   0.5235500332
	    C     0.0312258372   1.2128231486   1.9148494819
	    C    -0.0004765764   0.0000600461   2.6100674007
	    C    -0.0311100689  -1.2133781580   1.9159465078
	    C    -0.0350280538  -1.2202416293   0.5246775562
	    C     0.0014000938  -0.0012183354  -1.6449184931
	    H     0.0187325280   2.1635535900  -0.0119110289
	    H     0.0410407607   2.1528662317   2.4568539557
	    H    -0.0011563071   0.0005599477   3.6957183574
	    H    -0.0414111834  -2.1529190264   2.4588146469
	    H    -0.0152123458  -2.1659612417  -0.0096615445
	    N    -0.7150171866  -0.9038785498  -2.3088235709
	    N     0.7129346072   0.9059072744  -2.3081699659
	    H     0.6736111970   1.0072960475  -3.3156272755
	    H     1.3764602301   1.4867591142  -1.8125749996
	    H    -1.3740162747  -1.4890081074  -1.8121959593
	    H    -0.6804462138  -1.0010251229  -3.3168843343
			--------------------------
			 OPTKING Finished Execution 
			--------------------------

    Structure for next step:
    Molecular point group: c1
    Full point group: C1

    Geometry (in Angstrom), charge = 1, multiplicity = 1:

    C            0.001173767039    -0.001171626922    -0.177894767631
    C            0.037175189485     1.218473397712     0.523550033152
    C            0.031225837152     1.212823148551     1.914849481950
    C           -0.000476576442     0.000060046110     2.610067400669
    C           -0.031110068851    -1.213378158030     1.915946507767
    C           -0.035028053795    -1.220241629290     0.524677556236
    C            0.001400093814    -0.001218335368    -1.644918493142
    H            0.018732527983     2.163553589959    -0.011911028948
    H            0.041040760660     2.152866231683     2.456853955747
    H           -0.001156307128     0.000559947683     3.695718357438
    H           -0.041411183365    -2.152919026445     2.458814646853
    H           -0.015212345764    -2.165961241743    -0.009661544545
    N           -0.715017186588    -0.903878549803    -2.308823570912
    N            0.712934607177     0.905907274412    -2.308169965860
    H            0.673611197031     1.007296047539    -3.315627275542
    H            1.376460230086     1.486759114218    -1.812574999633
    H           -1.374016274704    -1.489008107374    -1.812195959257
    H           -0.680446213790    -1.001025122890    -3.316884334341

gradient() will perform analytic gradient computation.

*** tstart() called on oliva.prib.upf.edu
*** at Sat Sep 29 20:30:03 2018

   => Loading Basis Set <=

    Name: 6-31G*
    Role: ORBITAL
    Keyword: BASIS
    atoms 1-7         entry C          line   111 file /shared/joao/test_parameterize/miniconda3/share/psi4/basis/6-31gs.gbs 
    atoms 8-12, 15-18 entry H          line    44 file /shared/joao/test_parameterize/miniconda3/share/psi4/basis/6-31gs.gbs 
    atoms 13-14       entry N          line   128 file /shared/joao/test_parameterize/miniconda3/share/psi4/basis/6-31gs.gbs 


         ---------------------------------------------------------
                                   SCF
            by Justin Turney, Rob Parrish, Andy Simmonett
                             and Daniel Smith
                              RKS Reference
                        4 Threads,   2861 MiB Core
         ---------------------------------------------------------

  ==> Geometry <==

    Molecular point group: c1
    Full point group: C1

    Geometry (in Angstrom), charge = 1, multiplicity = 1:

       Center              X                  Y                   Z               Mass       
    ------------   -----------------  -----------------  -----------------  -----------------
         C            0.001173767039    -0.001171626922    -0.177894767631    12.000000000000
         C            0.037175189485     1.218473397712     0.523550033152    12.000000000000
         C            0.031225837152     1.212823148551     1.914849481950    12.000000000000
         C           -0.000476576442     0.000060046110     2.610067400669    12.000000000000
         C           -0.031110068851    -1.213378158030     1.915946507767    12.000000000000
         C           -0.035028053795    -1.220241629290     0.524677556236    12.000000000000
         C            0.001400093814    -0.001218335368    -1.644918493142    12.000000000000
         H            0.018732527983     2.163553589959    -0.011911028948     1.007825032070
         H            0.041040760660     2.152866231683     2.456853955747     1.007825032070
         H           -0.001156307128     0.000559947683     3.695718357438     1.007825032070
         H           -0.041411183365    -2.152919026445     2.458814646853     1.007825032070
         H           -0.015212345764    -2.165961241743    -0.009661544545     1.007825032070
         N           -0.715017186588    -0.903878549803    -2.308823570912    14.003074004780
         N            0.712934607177     0.905907274412    -2.308169965860    14.003074004780
         H            0.673611197031     1.007296047539    -3.315627275542     1.007825032070
         H            1.376460230086     1.486759114218    -1.812574999633     1.007825032070
         H           -1.374016274704    -1.489008107374    -1.812195959257     1.007825032070
         H           -0.680446213790    -1.001025122890    -3.316884334341     1.007825032070

  Running in c1 symmetry.

  Rotational constants: A =      0.12190  B =      0.03957  C =      0.03129 [cm^-1]
  Rotational constants: A =   3654.50935  B =   1186.24372  C =    938.15171 [MHz]
  Nuclear repulsion =  416.917749862579512

  Charge       = 1
  Multiplicity = 1
  Electrons    = 64
  Nalpha       = 32
  Nbeta        = 32

  ==> Algorithm <==

  SCF Algorithm Type is DF.
  DIIS enabled.
  MOM disabled.
  Fractional occupation disabled.
  Guess Type is READ.
  Energy threshold   = 1.00e-08
  Density threshold  = 1.00e-08
  Integral threshold = 0.00e+00

  ==> Primary Basis <==

  Basis Set: 6-31G*
    Blend: 6-31G*
    Number of shells: 72
    Number of basis function: 153
    Number of Cartesian functions: 153
    Spherical Harmonics?: false
    Max angular momentum: 2

  ==> DFT Potential <==

   => Composite Functional: B3LYP-D3ZERO <= 

    B3LYP-d3zero Hyb-GGA Exchange-Correlation Functional

    P. J. Stephens, F. J. Devlin, C. F. Chabalowski, and M. J. Frisch, J. Phys. Chem. 98, 11623 (1994)

    Deriv               =              1
    GGA                 =           TRUE
    Meta                =          FALSE

    Exchange Hybrid     =           TRUE
    MP2 Hybrid          =          FALSE

   => Exchange Functionals <=

    0.0800   Slater exchange
    0.7200         Becke 88

   => Exact (HF) Exchange <=

    0.2000               HF 

   => Correlation Functionals <=

    0.1900   Vosko, Wilk & Nusair (VWN5_RPA)
    0.8100   Lee, Yang & Parr

   => Molecular Quadrature <=

    Radial Scheme       =       TREUTLER
    Pruning Scheme      =           FLAT
    Nuclear Scheme      =       TREUTLER

    BS radius alpha     =              1
    Pruning alpha       =              1
    Radial Points       =             75
    Spherical Points    =            302
    Total Points        =         396948
    Total Blocks        =           3034
    Max Points          =            256
    Max Functions       =            149

   => -D3ZERO: Empirical Dispersion <=

    Grimme's -D3 (zero-damping) Dispersion Correction
    Grimme S.; Antony J.; Ehrlich S.; Krieg H. (2010), J. Chem. Phys., 132: 154104

        S6 =   1.000000E+00
        S8 =   1.703000E+00
       SR6 =   1.261000E+00
       SR8 =   1.000000E+00
    ALPHA6 =   1.400000E+01

   => Loading Basis Set <=

    Name: (6-31G* AUX)
    Role: JKFIT
    Keyword: DF_BASIS_SCF
    atoms 1-7         entry C          line   121 file /shared/joao/test_parameterize/miniconda3/share/psi4/basis/cc-pvdz-jkfit.gbs 
    atoms 8-12, 15-18 entry H          line    51 file /shared/joao/test_parameterize/miniconda3/share/psi4/basis/cc-pvdz-jkfit.gbs 
    atoms 13-14       entry N          line   171 file /shared/joao/test_parameterize/miniconda3/share/psi4/basis/cc-pvdz-jkfit.gbs 

  Reading orbitals from file 180, no projection.

  ==> Pre-Iterations <==

   -------------------------------------------------------
    Irrep   Nso     Nmo     Nalpha   Nbeta   Ndocc  Nsocc
   -------------------------------------------------------
     A        153     153       0       0       0       0
   -------------------------------------------------------
    Total     153     153      32      32      32       0
   -------------------------------------------------------

  ==> Integral Setup <==

  ==> DiskDFJK: Density-Fitted J/K Matrices <==

    J tasked:                  Yes
    K tasked:                  Yes
    wK tasked:                  No
    OpenMP threads:              4
    Integrals threads:           4
    Memory (MB):              2002
    Algorithm:                Core
    Integral Cache:           NONE
    Schwarz Cutoff:          1E-12
    Fitting Condition:       1E-12

   => Auxiliary Basis Set <=

  Basis Set: (6-31G* AUX)
    Blend: CC-PVDZ-JKFIT
    Number of shells: 297
    Number of basis function: 954
    Number of Cartesian functions: 954
    Spherical Harmonics?: false
    Max angular momentum: 3

  Minimum eigenvalue in the overlap matrix is 4.8702492681E-04.
  Using Symmetric Orthogonalization.

  SCF Guess: Orbitals guess was supplied from a previous computation.

  ==> Iterations <==

                           Total Energy        Delta E     RMS |[F,P]|

   @DF-RKS iter   0:  -381.47045825291144   -3.81470e+02   8.60403e-05 
   @DF-RKS iter   1:  -381.47050576419917   -4.75113e-05   5.70405e-06 
   @DF-RKS iter   2:  -381.47050590781538   -1.43616e-07   3.04410e-06 DIIS
   @DF-RKS iter   3:  -381.47050591698587   -9.17049e-09   2.42953e-06 DIIS
   @DF-RKS iter   4:  -381.47050593357585   -1.65900e-08   6.74048e-07 DIIS
   @DF-RKS iter   5:  -381.47050593491571   -1.33986e-09   2.17199e-07 DIIS
   @DF-RKS iter   6:  -381.47050593505838   -1.42677e-10   4.78807e-08 DIIS
   @DF-RKS iter   7:  -381.47050593506407   -5.68434e-12   1.83224e-08 DIIS
   @DF-RKS iter   8:  -381.47050593506475   -6.82121e-13   4.62669e-09 DIIS

  ==> Post-Iterations <==

    Orbital Energies [Eh]
    ---------------------

    Doubly Occupied:                                                      

       1A    -14.568120     2A    -14.568038     3A    -10.497235  
       4A    -10.373211     5A    -10.356124     6A    -10.356110  
       7A    -10.342918     8A    -10.340396     9A    -10.340338  
      10A     -1.183863    11A     -1.092008    12A     -1.014248  
      13A     -0.926585    14A     -0.902175    15A     -0.845441  
      16A     -0.785763    17A     -0.773403    18A     -0.741718  
      19A     -0.732919    20A     -0.688746    21A     -0.669046  
      22A     -0.625493    23A     -0.617380    24A     -0.587008  
      25A     -0.578996    26A     -0.572878    27A     -0.518313  
      28A     -0.505462    29A     -0.498058    30A     -0.472871  
      31A     -0.411630    32A     -0.405678  

    Virtual:                                                              

      33A     -0.216603    34A     -0.157502    35A     -0.128733  
      36A     -0.107820    37A     -0.067261    38A     -0.061394  
      39A     -0.038559    40A     -0.034485    41A      0.007187  
      42A      0.019860    43A      0.021138    44A      0.056127  
      45A      0.062101    46A      0.083774    47A      0.127024  
      48A      0.148319    49A      0.157327    50A      0.157738  
      51A      0.201438    52A      0.243118    53A      0.298495  
      54A      0.349302    55A      0.355184    56A      0.381342  
      57A      0.387632    58A      0.397329    59A      0.422147  
      60A      0.422631    61A      0.442559    62A      0.448113  
      63A      0.453398    64A      0.471420    65A      0.471843  
      66A      0.475347    67A      0.485146    68A      0.512097  
      69A      0.529311    70A      0.531095    71A      0.539099  
      72A      0.590050    73A      0.606069    74A      0.656489  
      75A      0.656752    76A      0.682822    77A      0.687899  
      78A      0.704293    79A      0.716478    80A      0.719259  
      81A      0.740835    82A      0.773231    83A      0.774993  
      84A      0.800329    85A      0.811259    86A      0.830641  
      87A      0.850038    88A      0.942037    89A      0.961478  
      90A      0.995383    91A      1.001049    92A      1.027665  
      93A      1.064665    94A      1.074658    95A      1.142135  
      96A      1.169843    97A      1.220241    98A      1.272555  
      99A      1.282905   100A      1.307233   101A      1.321648  
     102A      1.343592   103A      1.362450   104A      1.374939  
     105A      1.443838   106A      1.454238   107A      1.471082  
     108A      1.610053   109A      1.620996   110A      1.655450  
     111A      1.666181   112A      1.736492   113A      1.754126  
     114A      1.794620   115A      1.825286   116A      1.856485  
     117A      1.904013   118A      1.906299   119A      1.958628  
     120A      1.974577   121A      1.997493   122A      2.017355  
     123A      2.043880   124A      2.065352   125A      2.124987  
     126A      2.130030   127A      2.151751   128A      2.216480  
     129A      2.228622   130A      2.263613   131A      2.350404  
     132A      2.366184   133A      2.443855   134A      2.453607  
     135A      2.489567   136A      2.515212   137A      2.550063  
     138A      2.588019   139A      2.604231   140A      2.630641  
     141A      2.738297   142A      2.884077   143A      2.984214  
     144A      3.259283   145A      3.638195   146A      3.658143  
     147A      3.911875   148A      3.948024   149A      3.963731  
     150A      4.054050   151A      4.174043   152A      4.257699  
     153A      4.546296  

    Final Occupation by Irrep:
              A 
    DOCC [    32 ]

  Energy converged.

  @DF-RKS Final Energy:  -381.47050593506475

   => Energetics <=

    Nuclear Repulsion Energy =            416.9177498625795124
    One-Electron Energy =               -1329.0442783389958095
    Two-Electron Energy =                 575.0739067066448342
    DFT Exchange-Correlation Energy =     -44.4059531252933084
    Empirical Dispersion Energy =          -0.0119310400000000
    VV10 Nonlocal Energy =                  0.0000000000000000
    Total Energy =                       -381.4705059350647502



Properties will be evaluated at   0.000000,   0.000000,   0.000000 [a0]

Properties computed using the SCF density matrix

  Nuclear Dipole Moment: [e a0]
     X:     0.0174      Y:    -0.0219      Z:     0.0212

  Electronic Dipole Moment: [e a0]
     X:    -0.0175      Y:     0.0213      Z:    -2.2779

  Dipole Moment: [e a0]
     X:    -0.0001      Y:    -0.0006      Z:    -2.2566     Total:     2.2566

  Dipole Moment: [D]
     X:    -0.0003      Y:    -0.0015      Z:    -5.7358     Total:     5.7358


*** tstop() called on oliva.prib.upf.edu at Sat Sep 29 20:30:22 2018
Module time:
	user time   =      64.00 seconds =       1.07 minutes
	system time =       0.52 seconds =       0.01 minutes
	total time  =         19 seconds =       0.32 minutes
Total time:
	user time   =     195.38 seconds =       3.26 minutes
	system time =       1.78 seconds =       0.03 minutes
	total time  =         57 seconds =       0.95 minutes

*** tstart() called on oliva.prib.upf.edu
*** at Sat Sep 29 20:30:22 2018


         ------------------------------------------------------------
                                   SCF GRAD                          
                          Rob Parrish, Justin Turney,                
                       Andy Simmonett, and Alex Sokolov              
         ------------------------------------------------------------

  ==> Geometry <==

    Molecular point group: c1
    Full point group: C1

    Geometry (in Angstrom), charge = 1, multiplicity = 1:

       Center              X                  Y                   Z               Mass       
    ------------   -----------------  -----------------  -----------------  -----------------
         C            0.001173767039    -0.001171626922    -0.177894767631    12.000000000000
         C            0.037175189485     1.218473397712     0.523550033152    12.000000000000
         C            0.031225837152     1.212823148551     1.914849481950    12.000000000000
         C           -0.000476576442     0.000060046110     2.610067400669    12.000000000000
         C           -0.031110068851    -1.213378158030     1.915946507767    12.000000000000
         C           -0.035028053795    -1.220241629290     0.524677556236    12.000000000000
         C            0.001400093814    -0.001218335368    -1.644918493142    12.000000000000
         H            0.018732527983     2.163553589959    -0.011911028948     1.007825032070
         H            0.041040760660     2.152866231683     2.456853955747     1.007825032070
         H           -0.001156307128     0.000559947683     3.695718357438     1.007825032070
         H           -0.041411183365    -2.152919026445     2.458814646853     1.007825032070
         H           -0.015212345764    -2.165961241743    -0.009661544545     1.007825032070
         N           -0.715017186588    -0.903878549803    -2.308823570912    14.003074004780
         N            0.712934607177     0.905907274412    -2.308169965860    14.003074004780
         H            0.673611197031     1.007296047539    -3.315627275542     1.007825032070
         H            1.376460230086     1.486759114218    -1.812574999633     1.007825032070
         H           -1.374016274704    -1.489008107374    -1.812195959257     1.007825032070
         H           -0.680446213790    -1.001025122890    -3.316884334341     1.007825032070

  Nuclear repulsion =  416.917749862579512

  ==> Basis Set <==

  Basis Set: 6-31G*
    Blend: 6-31G*
    Number of shells: 72
    Number of basis function: 153
    Number of Cartesian functions: 153
    Spherical Harmonics?: false
    Max angular momentum: 2

  ==> DFJKGrad: Density-Fitted SCF Gradients <==

    Gradient:                    1
    J tasked:                  Yes
    K tasked:                  Yes
    wK tasked:                  No
    OpenMP threads:              4
    Integrals threads:           4
    Memory (MB):              2002
    Schwarz Cutoff:          0E+00
    Fitting Condition:       1E-12

   => Auxiliary Basis Set <=

  Basis Set: (6-31G* AUX)
    Blend: CC-PVDZ-JKFIT
    Number of shells: 297
    Number of basis function: 954
    Number of Cartesian functions: 954
    Spherical Harmonics?: false
    Max angular momentum: 3

  ==> DFT Potential <==

   => Composite Functional: B3LYP-D3ZERO <= 

    B3LYP-d3zero Hyb-GGA Exchange-Correlation Functional

    P. J. Stephens, F. J. Devlin, C. F. Chabalowski, and M. J. Frisch, J. Phys. Chem. 98, 11623 (1994)

    Deriv               =              1
    GGA                 =           TRUE
    Meta                =          FALSE

    Exchange Hybrid     =           TRUE
    MP2 Hybrid          =          FALSE

   => Exchange Functionals <=

    0.0800   Slater exchange
    0.7200         Becke 88

   => Exact (HF) Exchange <=

    0.2000               HF 

   => Correlation Functionals <=

    0.1900   Vosko, Wilk & Nusair (VWN5_RPA)
    0.8100   Lee, Yang & Parr

   => Molecular Quadrature <=

    Radial Scheme       =       TREUTLER
    Pruning Scheme      =           FLAT
    Nuclear Scheme      =       TREUTLER

    BS radius alpha     =              1
    Pruning alpha       =              1
    Radial Points       =             75
    Spherical Points    =            302
    Total Points        =         396948
    Total Blocks        =           3034
    Max Points          =            256
    Max Functions       =            149


  -Total Gradient:
     Atom            X                  Y                   Z
    ------   -----------------  -----------------  -----------------
       1       -0.000226308843     0.000197226187    -0.000047852775
       2        0.000027398834    -0.000013386918    -0.000005040780
       3       -0.000006091686    -0.000003743293    -0.000007671363
       4       -0.000001226619    -0.000000801991    -0.000004485863
       5       -0.000011330453    -0.000007503783    -0.000012871421
       6       -0.000000973215    -0.000002251847     0.000056235433
       7        0.000484498101    -0.000425412761     0.000061165247
       8        0.000007559378    -0.000004239427    -0.000017243056
       9       -0.000001428288    -0.000001879504    -0.000001028048
      10        0.000005322673    -0.000001931063    -0.000001438893
      11        0.000000807702     0.000000193217     0.000000633448
      12        0.000029400023    -0.000009613887     0.000030119042
      13       -0.000262155628     0.000198675553    -0.000060911020
      14       -0.000022216105     0.000069564352    -0.000011873500
      15       -0.000000696447     0.000005760840     0.000004087737
      16       -0.000048409175     0.000039012685     0.000005897297
      17        0.000097030832    -0.000102690670     0.000004943863
      18       -0.000070831992     0.000063282602    -0.000014578974


*** tstop() called on oliva.prib.upf.edu at Sat Sep 29 20:30:29 2018
Module time:
	user time   =      29.02 seconds =       0.48 minutes
	system time =       0.24 seconds =       0.00 minutes
	total time  =          7 seconds =       0.12 minutes
Total time:
	user time   =     224.46 seconds =       3.74 minutes
	system time =       2.03 seconds =       0.03 minutes
	total time  =         64 seconds =       1.07 minutes

			-----------------------------------------
			 OPTKING 2.0: for geometry optimizations 
			  - R.A. King,  Bethel University        
			-----------------------------------------
	At level 1: Red. Int., RFO, no backsteps, dynamic trust

	Previous internal coordinate definitions found.
	---Fragment 1 Geometry and Gradient---
	 C           0.0022180982       -0.0022140540       -0.3361723913
	 C           0.0702509271        2.3025810219        0.9893661795
	 C           0.0590082805        2.2919035984        3.6185411066
	 C          -0.0009005990        0.0001134707        4.9323125756
	 C          -0.0587895101       -2.2929524143        3.6206141849
	 C          -0.0661934286       -2.3059224953        0.9914968894
	 C           0.0026457939       -0.0023023202       -3.1084454630
	 H           0.0353993477        4.0885237588       -0.0225085827
	 H           0.0775557979        4.0683275786        4.6427811249
	 H          -0.0021851038        0.0010581478        6.9838955598
	 H          -0.0782557954       -4.0684273463        4.6464862941
	 H          -0.0287471673       -4.0930735613       -0.0182576732
	 N          -1.3511866630       -1.7080829165       -4.3630442382
	 N           1.3472511582        1.7119166504       -4.3618091036
	 H           1.2729406824        1.9035136646       -6.2656275095
	 H           2.6011328677        2.8095675514       -3.4252703446
	 H          -2.5965144613       -2.8138175326       -3.4245540621
	 H          -1.2858569922       -1.8916633344       -6.2680030064
	            -0.0002263088        0.0001972262       -0.0000478528
	             0.0000273988       -0.0000133869       -0.0000050408
	            -0.0000060917       -0.0000037433       -0.0000076714
	            -0.0000012266       -0.0000008020       -0.0000044859
	            -0.0000113305       -0.0000075038       -0.0000128714
	            -0.0000009732       -0.0000022518        0.0000562354
	             0.0004844981       -0.0004254128        0.0000611652
	             0.0000075594       -0.0000042394       -0.0000172431
	            -0.0000014283       -0.0000018795       -0.0000010280
	             0.0000053227       -0.0000019311       -0.0000014389
	             0.0000008077        0.0000001932        0.0000006334
	             0.0000294000       -0.0000096139        0.0000301190
	            -0.0002621556        0.0001986756       -0.0000609110
	            -0.0000222161        0.0000695644       -0.0000118735
	            -0.0000006964        0.0000057608        0.0000040877
	            -0.0000484092        0.0000390127        0.0000058973
	             0.0000970308       -0.0001026907        0.0000049439
	            -0.0000708320        0.0000632826       -0.0000145790

	---Fragment 1 Intrafragment Coordinates---
	 - Coordinate -           - BOHR/RAD -       - ANG/DEG -
	 R(1,2)           =         2.659654	       1.407428
	 R(1,6)           =         2.659785	       1.407498
	 R(1,7)           =         2.772273	       1.467024
	 R(2,3)           =         2.629221	       1.391324
	 R(2,8)           =         2.052973	       1.086386
	 R(3,4)           =         2.642326	       1.398259
	 R(3,9)           =         2.050633	       1.085148
	 R(4,5)           =         2.642358	       1.398276
	 R(4,10)          =         2.051584	       1.085651
	 R(5,6)           =         2.629160	       1.391291
	 R(5,11)          =         2.050635	       1.085149
	 R(6,12)          =         2.053026	       1.086415
	 R(7,13)          =         2.513278	       1.329970
	 R(7,14)          =         2.513450	       1.330060
	 R(13,17)         =         1.911610	       1.011581
	 R(13,18)         =         1.914899	       1.013321
	 R(14,15)         =         1.914878	       1.013310
	 R(14,16)         =         1.911586	       1.011568
	 B(1,2,3)         =         2.088344	     119.653284
	 B(1,2,8)         =         2.103403	     120.516104
	 B(1,6,5)         =         2.088413	     119.657277
	 B(1,6,12)        =         2.103637	     120.529534
	 B(1,7,13)        =         2.093387	     119.942237
	 B(1,7,14)        =         2.092922	     119.915581
	 B(2,1,6)         =         2.097221	     120.161912
	 B(2,1,7)         =         2.092561	     119.894939
	 B(2,3,4)         =         2.095334	     120.053820
	 B(2,3,9)         =         2.089679	     119.729760
	 B(3,2,8)         =         2.090168	     119.757781
	 B(3,4,5)         =         2.101760	     120.421971
	 B(3,4,10)        =         2.090724	     119.789658
	 B(4,3,9)         =         2.098121	     120.213479
	 B(4,5,6)         =         2.095258	     120.049422
	 B(4,5,11)        =         2.098132	     120.214117
	 B(5,4,10)        =         2.090701	     119.788371
	 B(5,6,12)        =         2.089866	     119.740479
	 B(6,1,7)         =         2.093403	     119.943148
	 B(6,5,11)        =         2.089741	     119.733367
	 B(7,13,17)       =         2.092587	     119.896400
	 B(7,13,18)       =         2.145143	     122.907657
	 B(7,14,15)       =         2.145115	     122.906053
	 B(7,14,16)       =         2.092336	     119.882040
	 B(13,7,14)       =         2.096862	     120.141319
	 B(15,14,16)      =         2.043280	     117.071321
	 B(17,13,18)      =         2.043354	     117.075565
	 D(1,2,3,4)       =         0.008152	       0.467060
	 D(1,2,3,9)       =        -3.122576	    -178.910444
	 D(1,6,5,4)       =         0.007524	       0.431072
	 D(1,6,5,11)      =        -3.122927	    -178.930530
	*D(1,7,13,17)     =         0.174533	      10.000021
	 D(1,7,13,18)     =        -3.038753	    -174.107744
	 D(1,7,14,15)     =        -3.031285	    -173.679821
	 D(1,7,14,16)     =         0.187781	      10.759055
	 D(2,1,6,5)       =        -0.003249	      -0.186171
	 D(2,1,6,12)      =        -3.090585	    -177.077500
	 D(2,1,7,13)      =        -2.500239	    -143.253140
	 D(2,1,7,14)      =         0.635466	      36.409535
	 D(2,3,4,5)       =        -0.003915	      -0.224319
	 D(2,3,4,10)      =         3.137512	     179.766182
	 D(3,2,1,6)       =        -0.004602	      -0.263669
	 D(3,2,1,7)       =         3.136991	     179.736355
	 D(3,4,5,6)       =        -0.004009	      -0.229691
	 D(3,4,5,11)      =         3.126388	     179.128815
	 D(4,3,2,8)       =         3.095868	     177.380189
	 D(4,5,6,12)      =         3.095292	     177.347178
	 D(5,4,3,9)       =         3.126760	     179.150146
	 D(5,6,1,7)       =         3.138343	     179.813805
	 D(6,1,2,8)       =        -3.091903	    -177.152965
	 D(6,1,7,13)      =         0.641354	      36.746883
	 D(6,1,7,14)      =        -2.506126	    -143.590441
	 D(6,5,4,10)      =         3.137750	     179.779808
	 D(7,1,2,8)       =         0.049691	       2.847059
	 D(7,1,6,12)      =         0.051007	       2.922476
	 D(8,2,3,9)       =        -0.034860	      -1.997314
	 D(9,3,4,10)      =        -0.014999	      -0.859353
	 D(10,4,5,11)     =        -0.015039	      -0.861687
	 D(11,5,6,12)     =        -0.035158	      -2.014424
	 D(13,7,14,15)    =         0.104409	       5.982176
	 D(13,7,14,16)    =        -2.959711	    -169.578948
	 D(14,7,13,17)    =        -2.961159	    -169.661885
	 D(14,7,13,18)    =         0.108740	       6.230350

	Current energy   :      -381.4705059351

	Energy change for the previous step:
		Projected    :        -0.0000087100
		Actual       :        -0.0000027691

	Performing BFGS update.
	Previous computed or guess Hessian on step 1.
	Steps to be used in Hessian update: 1
	Taking RFO optimization step.
	Going to follow RFO solution 1.
	Using RFO vector 1.
	Norm of target step-size    0.01145
	Projected energy change by RFO approximation:        -0.0000033540

	Back-transformation to cartesian coordinates...
	Could not converge backtransformation.
	Using first guess instead.

	Back-transformation to cartesian coordinates to adjust frozen coordinates...
	Successfully converged to displaced geometry.

	--- Internal Coordinate Step in ANG or DEG, aJ/ANG or AJ/DEG ---
	 ---------------------------------------------------------------------------
	   Coordinate                Previous        Force       Change         New 
	   ----------                --------       ------       ------       ------
	    1 R(1,2)          =      1.407428     0.000216    -0.000000     1.407428
	    2 R(1,6)          =      1.407498    -0.000505    -0.000063     1.407434
	    3 R(1,7)          =      1.467024    -0.000023     0.000051     1.467075
	    4 R(2,3)          =      1.391324     0.000042     0.000014     1.391337
	    5 R(2,8)          =      1.086386    -0.000034    -0.000005     1.086381
	    6 R(3,4)          =      1.398259     0.000042    -0.000006     1.398253
	    7 R(3,9)          =      1.085148     0.000013     0.000004     1.085152
	    8 R(4,5)          =      1.398276     0.000085     0.000004     1.398279
	    9 R(4,10)         =      1.085651     0.000002     0.000001     1.085653
	   10 R(5,6)          =      1.391291     0.000120     0.000009     1.391300
	   11 R(5,11)         =      1.085149    -0.000006     0.000002     1.085151
	   12 R(6,12)         =      1.086415     0.000054     0.000018     1.086433
	   13 R(7,13)         =      1.329970    -0.000433    -0.000072     1.329898
	   14 R(7,14)         =      1.330060    -0.000320    -0.000027     1.330033
	   15 R(13,17)        =      1.011581     0.000006     0.000003     1.011583
	   16 R(13,18)        =      1.013321    -0.000039     0.000021     1.013342
	   17 R(14,15)        =      1.013310     0.000038     0.000010     1.013320
	   18 R(14,16)        =      1.011568     0.000049     0.000004     1.011572
	   19 B(1,2,3)        =    119.653284    -0.000001    -0.003833   119.649451
	   20 B(1,2,8)        =    120.516104     0.000002     0.006641   120.522744
	   21 B(1,6,5)        =    119.657277    -0.000001    -0.001117   119.656160
	   22 B(1,6,12)       =    120.529534    -0.000002    -0.003326   120.526208
	   23 B(1,7,13)       =    119.942237    -0.000009    -0.019698   119.922539
	   24 B(1,7,14)       =    119.915581     0.000008     0.012161   119.927742
	   25 B(2,1,6)        =    120.161912     0.000002     0.004759   120.166672
	   26 B(2,1,7)        =    119.894939     0.000008     0.011309   119.906248
	   27 B(2,3,4)        =    120.053820    -0.000000     0.000758   120.054578
	   28 B(2,3,9)        =    119.729760     0.000000    -0.001006   119.728754
	   29 B(3,2,8)        =    119.757781    -0.000001    -0.002774   119.755008
	   30 B(3,4,5)        =    120.421971     0.000000    -0.000008   120.421963
	   31 B(3,4,10)       =    119.789658    -0.000000    -0.000308   119.789350
	   32 B(4,3,9)        =    120.213479     0.000000     0.000186   120.213665
	   33 B(4,5,6)        =    120.049422    -0.000000    -0.000554   120.048868
	   34 B(4,5,11)       =    120.214117     0.000000     0.000608   120.214725
	   35 B(5,4,10)       =    119.788371     0.000000     0.000316   119.788687
	   36 B(5,6,12)       =    119.740479     0.000003     0.005306   119.745785
	   37 B(6,1,7)        =    119.943148    -0.000010    -0.016081   119.927068
	   38 B(6,5,11)       =    119.733367    -0.000000     0.000048   119.733415
	   39 B(7,13,17)      =    119.896400    -0.000001     0.003226   119.899626
	   40 B(7,13,18)      =    122.907657     0.000001     0.015492   122.923149
	   41 B(7,14,15)      =    122.906053    -0.000000     0.001056   122.907109
	   42 B(7,14,16)      =    119.882040     0.000000    -0.003364   119.878676
	   43 B(13,7,14)      =    120.141319     0.000002     0.008255   120.149574
	   44 B(15,14,16)     =    117.071321     0.000000    -0.004467   117.066854
	   45 B(17,13,18)     =    117.075565     0.000001     0.007084   117.082649
	   46 D(1,2,3,4)      =      0.467060    -0.000000    -0.009075     0.457984
	   47 D(1,2,3,9)      =   -178.910444    -0.000000    -0.002578  -178.913022
	   48 D(1,6,5,4)      =      0.431072     0.000000     0.009755     0.440827
	   49 D(1,6,5,11)     =   -178.930530    -0.000000    -0.000831  -178.931361
	   50 *D(1,7,13,17)   =     10.000021    -0.000000    -0.000000    10.000021
	   51 D(1,7,13,18)    =   -174.107744     0.000002     0.466440  -173.641304
	   52 D(1,7,14,15)    =   -173.679821    -0.000001    -0.149477  -173.829297
	   53 D(1,7,14,16)    =     10.759055    -0.000000    -0.043742    10.715314
	   54 D(2,1,6,5)      =     -0.186171    -0.000000    -0.023725    -0.209896
	   55 D(2,1,6,12)     =   -177.077500    -0.000000    -0.042382  -177.119882
	   56 D(2,1,7,13)     =   -143.253140    -0.000001    -0.060546  -143.313687
	   57 D(2,1,7,14)     =     36.409535     0.000001     0.138697    36.548232
	   58 D(2,3,4,5)      =     -0.224319    -0.000000    -0.004881    -0.229200
	   59 D(2,3,4,10)     =    179.766182     0.000000     0.009348   179.775531
	   60 D(3,2,1,6)      =     -0.263669     0.000000     0.023386    -0.240283
	   61 D(3,2,1,7)      =    179.736355    -0.000000    -0.016872   179.719483
	   62 D(3,4,5,6)      =     -0.229691     0.000000     0.004527    -0.225163
	   63 D(3,4,5,11)     =    179.128815     0.000000     0.015161   179.143975
	   64 D(4,3,2,8)      =    177.380189    -0.000000    -0.008153   177.372036
	   65 D(4,5,6,12)     =    177.347178     0.000000     0.027996   177.375174
	   66 D(5,4,3,9)      =    179.150146    -0.000000    -0.011417   179.138728
	   67 D(5,6,1,7)      =    179.813805     0.000000     0.016542   179.830347
	   68 D(6,1,2,8)      =   -177.152965     0.000000     0.022756  -177.130209
	   69 D(6,1,7,13)     =     36.746883    -0.000001    -0.100707    36.646176
	   70 D(6,1,7,14)     =   -143.590441     0.000001     0.098536  -143.491906
	   71 D(6,5,4,10)     =    179.779808    -0.000000    -0.009702   179.770106
	   72 D(7,1,2,8)      =      2.847059    -0.000000    -0.017502     2.829557
	   73 D(7,1,6,12)     =      2.922476    -0.000000    -0.002115     2.920360
	   74 D(8,2,3,9)      =     -1.997314    -0.000000    -0.001656    -1.998971
	   75 D(9,3,4,10)     =     -0.859353     0.000000     0.002812    -0.856541
	   76 D(10,4,5,11)    =     -0.861687     0.000000     0.000932    -0.860755
	   77 D(11,5,6,12)    =     -2.014424     0.000000     0.017410    -1.997014
	   78 D(13,7,14,15)   =      5.982176     0.000001     0.050128     6.032304
	   79 D(13,7,14,16)   =   -169.578948     0.000002     0.155863  -169.423085
	   80 D(14,7,13,17)   =   -169.661885    -0.000002    -0.199702  -169.861588
	   81 D(14,7,13,18)   =      6.230350     0.000000     0.266738     6.497088
	 ---------------------------------------------------------------------------
	Successfully symmetrized geometry.

  ==> Convergence Check <==

  Measures of convergence in internal coordinates in au.
  Criteria marked as inactive (o), active & met (*), and active & unmet ( ).
  ---------------------------------------------------------------------------------------------
   Step     Total Energy     Delta E     MAX Force     RMS Force      MAX Disp      RMS Disp   
  ---------------------------------------------------------------------------------------------
    Convergence Criteria    1.00e-06 *    3.00e-04 *             o    1.20e-03 *             o
  ---------------------------------------------------------------------------------------------
      2    -381.47050594   -2.77e-06      1.36e-04 *    4.06e-05 o    8.14e-03      1.27e-03 o  ~
  ---------------------------------------------------------------------------------------------

	Writing optimization data to binary file.
	Structure for next step:
	Cartesian Geometry (in Angstrom)
	    C     0.0005738074   0.0000060130  -0.1779088282
	    C     0.0366919366   1.2193009859   0.5241377059
	    C     0.0313671984   1.2128515052   1.9154499744
	    C    -0.0000164766  -0.0002966735   2.6099985352
	    C    -0.0310583171  -1.2133459460   1.9152085602
	    C    -0.0356089919  -1.2194145324   0.5239288006
	    C    -0.0002435216   0.0004244578  -1.6449831567
	    H     0.0178691125   2.1647067728  -0.0107242281
	    H     0.0413139317   2.1525975746   2.4579749657
	    H    -0.0003619838  -0.0003961975   3.6956509979
	    H    -0.0413586854  -2.1531947397   2.4575468505
	    H    -0.0165702321  -2.1648068970  -0.0110542506
	    N    -0.7160011647  -0.9031342468  -2.3082334964
	    N     0.7126300142   0.9061278409  -2.3086855189
	    H     0.6743422561   1.0063063828  -3.3163143093
	    H     1.3773076108   1.4859347758  -1.8134021230
	    H    -1.3737560076  -1.4892149894  -1.8110725881
	    H    -0.6772404870  -1.0049550866  -3.3157018910
			--------------------------
			 OPTKING Finished Execution 
			--------------------------

    Structure for next step:
    Molecular point group: c1
    Full point group: C1

    Geometry (in Angstrom), charge = 1, multiplicity = 1:

    C            0.000573807407     0.000006013024    -0.177908828154
    C            0.036691936617     1.219300985889     0.524137705859
    C            0.031367198411     1.212851505187     1.915449974384
    C           -0.000016476584    -0.000296673452     2.609998535187
    C           -0.031058317093    -1.213345945988     1.915208560150
    C           -0.035608991877    -1.219414532440     0.523928800626
    C           -0.000243521556     0.000424457799    -1.644983156734
    H            0.017869112531     2.164706772796    -0.010724228094
    H            0.041313931745     2.152597574573     2.457974965673
    H           -0.000361983761    -0.000396197538     3.695650997880
    H           -0.041358685434    -2.153194739694     2.457546850458
    H           -0.016570232103    -2.164806896963    -0.011054250560
    N           -0.716001164737    -0.903134246772    -2.308233496371
    N            0.712630014244     0.906127840949    -2.308685518912
    H            0.674342256053     1.006306382791    -3.316314309314
    H            1.377307610785     1.485934775804    -1.813402122964
    H           -1.373756007650    -1.489214989388    -1.811072588112
    H           -0.677240486997    -1.004955086576    -3.315701891002

gradient() will perform analytic gradient computation.

*** tstart() called on oliva.prib.upf.edu
*** at Sat Sep 29 20:30:29 2018

   => Loading Basis Set <=

    Name: 6-31G*
    Role: ORBITAL
    Keyword: BASIS
    atoms 1-7         entry C          line   111 file /shared/joao/test_parameterize/miniconda3/share/psi4/basis/6-31gs.gbs 
    atoms 8-12, 15-18 entry H          line    44 file /shared/joao/test_parameterize/miniconda3/share/psi4/basis/6-31gs.gbs 
    atoms 13-14       entry N          line   128 file /shared/joao/test_parameterize/miniconda3/share/psi4/basis/6-31gs.gbs 


         ---------------------------------------------------------
                                   SCF
            by Justin Turney, Rob Parrish, Andy Simmonett
                             and Daniel Smith
                              RKS Reference
                        4 Threads,   2861 MiB Core
         ---------------------------------------------------------

  ==> Geometry <==

    Molecular point group: c1
    Full point group: C1

    Geometry (in Angstrom), charge = 1, multiplicity = 1:

       Center              X                  Y                   Z               Mass       
    ------------   -----------------  -----------------  -----------------  -----------------
         C            0.000573807407     0.000006013024    -0.177908828154    12.000000000000
[...]
	 H          -2.5960226279       -2.8142084829       -3.4224311983
	 H          -1.2797990465       -1.8990898895       -6.2657685123
	            -0.0000516522        0.0000173868        0.0000231036
	             0.0000125812       -0.0000041738       -0.0000249554
	            -0.0000127925       -0.0000190516        0.0000026255
	             0.0000073626        0.0000060408       -0.0000035470
	            -0.0000137051       -0.0000003670       -0.0000091929
	             0.0000061939        0.0000334247        0.0000144314
	             0.0001270906       -0.0001019000       -0.0000322905
	            -0.0000045524        0.0000018134        0.0000089959
	            -0.0000030138        0.0000014655       -0.0000022152
	             0.0000000627       -0.0000000854       -0.0000006608
	            -0.0000021644       -0.0000010092        0.0000003175
	             0.0000036710       -0.0000140875       -0.0000014667
	            -0.0002224247        0.0002373060        0.0000180594
	             0.0000122535       -0.0000057993       -0.0000029216
	             0.0000308913       -0.0000035515       -0.0000034094
	            -0.0000135580        0.0000076783       -0.0000095754
	             0.0001245284       -0.0001346068        0.0000234714
	            -0.0000007398       -0.0000199552       -0.0000225201

	---Fragment 1 Intrafragment Coordinates---
	 - Coordinate -           - BOHR/RAD -       - ANG/DEG -
	 R(1,2)           =         2.659654	       1.407428
	 R(1,6)           =         2.659666	       1.407434
	 R(1,7)           =         2.772369	       1.467075
	 R(2,3)           =         2.629247	       1.391337
	 R(2,8)           =         2.052963	       1.086381
	 R(3,4)           =         2.642315	       1.398253
	 R(3,9)           =         2.050640	       1.085152
	 R(4,5)           =         2.642365	       1.398279
	 R(4,10)          =         2.051586	       1.085653
	 R(5,6)           =         2.629177	       1.391300
	 R(5,11)          =         2.050638	       1.085151
	 R(6,12)          =         2.053060	       1.086433
	 R(7,13)          =         2.513143	       1.329898
	 R(7,14)          =         2.513398	       1.330033
	 R(13,17)         =         1.911616	       1.011583
	 R(13,18)         =         1.914939	       1.013342
	 R(14,15)         =         1.914897	       1.013320
	 R(14,16)         =         1.911594	       1.011572
	 B(1,2,3)         =         2.088277	     119.649451
	 B(1,2,8)         =         2.103519	     120.522744
	 B(1,6,5)         =         2.088394	     119.656160
	 B(1,6,12)        =         2.103579	     120.526208
	 B(1,7,13)        =         2.093043	     119.922539
	 B(1,7,14)        =         2.093134	     119.927742
	 B(2,1,6)         =         2.097304	     120.166672
	 B(2,1,7)         =         2.092759	     119.906248
	 B(2,3,4)         =         2.095348	     120.054578
	 B(2,3,9)         =         2.089661	     119.728754
	 B(3,2,8)         =         2.090119	     119.755008
	 B(3,4,5)         =         2.101760	     120.421963
	 B(3,4,10)        =         2.090719	     119.789350
	 B(4,3,9)         =         2.098124	     120.213665
	 B(4,5,6)         =         2.095248	     120.048868
	 B(4,5,11)        =         2.098143	     120.214725
	 B(5,4,10)        =         2.090707	     119.788687
	 B(5,6,12)        =         2.089958	     119.745785
	 B(6,1,7)         =         2.093122	     119.927068
	 B(6,5,11)        =         2.089742	     119.733415
	 B(7,13,17)       =         2.092643	     119.899626
	 B(7,13,18)       =         2.145414	     122.923149
	 B(7,14,15)       =         2.145134	     122.907109
	 B(7,14,16)       =         2.092278	     119.878676
	 B(13,7,14)       =         2.097006	     120.149574
	 B(15,14,16)      =         2.043202	     117.066854
	 B(17,13,18)      =         2.043478	     117.082649
	 D(1,2,3,4)       =         0.007993	       0.457984
	 D(1,2,3,9)       =        -3.122621	    -178.913022
	 D(1,6,5,4)       =         0.007694	       0.440827
	 D(1,6,5,11)      =        -3.122941	    -178.931361
	*D(1,7,13,17)     =         0.174533	      10.000021
	 D(1,7,13,18)     =        -3.030612	    -173.641304
	 D(1,7,14,15)     =        -3.033894	    -173.829297
	 D(1,7,14,16)     =         0.187018	      10.715314
	 D(2,1,6,5)       =        -0.003663	      -0.209896
	 D(2,1,6,12)      =        -3.091325	    -177.119882
	 D(2,1,7,13)      =        -2.501296	    -143.313687
	 D(2,1,7,14)      =         0.637887	      36.548232
	 D(2,3,4,5)       =        -0.004000	      -0.229200
	 D(2,3,4,10)      =         3.137675	     179.775531
	 D(3,2,1,6)       =        -0.004194	      -0.240283
	 D(3,2,1,7)       =         3.136697	     179.719483
	 D(3,4,5,6)       =        -0.003930	      -0.225163
	 D(3,4,5,11)      =         3.126652	     179.143975
	 D(4,3,2,8)       =         3.095726	     177.372036
	 D(4,5,6,12)      =         3.095781	     177.375174
	 D(5,4,3,9)       =         3.126561	     179.138728
	 D(5,6,1,7)       =         3.138632	     179.830347
	 D(6,1,2,8)       =        -3.091505	    -177.130209
	 D(6,1,7,13)      =         0.639596	      36.646176
	 D(6,1,7,14)      =        -2.504406	    -143.491906
	 D(6,5,4,10)      =         3.137580	     179.770106
	 D(7,1,2,8)       =         0.049385	       2.829557
	 D(7,1,6,12)      =         0.050970	       2.920360
	 D(8,2,3,9)       =        -0.034889	      -1.998971
	 D(9,3,4,10)      =        -0.014949	      -0.856541
	 D(10,4,5,11)     =        -0.015023	      -0.860755
	 D(11,5,6,12)     =        -0.034854	      -1.997014
	 D(13,7,14,15)    =         0.105284	       6.032304
	 D(13,7,14,16)    =        -2.956991	    -169.423085
	 D(14,7,13,17)    =        -2.964644	    -169.861588
	 D(14,7,13,18)    =         0.113396	       6.497088

	Current energy   :      -381.4705070944

	Energy change for the previous step:
		Projected    :        -0.0000033540
		Actual       :        -0.0000011594

	Performing BFGS update.
	Previous computed or guess Hessian on step 1.
	Steps to be used in Hessian update: 2 1
	Taking RFO optimization step.
	Going to follow RFO solution 1.
	Using RFO vector 1.
	Norm of target step-size    0.00261
	Projected energy change by RFO approximation:        -0.0000000916

	Back-transformation to cartesian coordinates...
	Successfully converged to displaced geometry.

	Back-transformation to cartesian coordinates to adjust frozen coordinates...
	Successfully converged to displaced geometry.

	--- Internal Coordinate Step in ANG or DEG, aJ/ANG or AJ/DEG ---
	 ---------------------------------------------------------------------------
	   Coordinate                Previous        Force       Change         New 
	   ----------                --------       ------       ------       ------
	    1 R(1,2)          =      1.407428     0.000086     0.000013     1.407442
	    2 R(1,6)          =      1.407434     0.000041     0.000003     1.407437
	    3 R(1,7)          =      1.467075    -0.000170    -0.000030     1.467045
	    4 R(2,3)          =      1.391337    -0.000026    -0.000004     1.391334
	    5 R(2,8)          =      1.086381     0.000028     0.000004     1.086385
	    6 R(3,4)          =      1.398253     0.000100     0.000013     1.398266
	    7 R(3,9)          =      1.085152    -0.000006    -0.000001     1.085151
	    8 R(4,5)          =      1.398279     0.000066     0.000009     1.398288
	    9 R(4,10)         =      1.085653    -0.000005    -0.000001     1.085652
	   10 R(5,6)          =      1.391300     0.000071     0.000009     1.391310
	   11 R(5,11)         =      1.085151    -0.000014    -0.000002     1.085149
	   12 R(6,12)         =      1.086433    -0.000103    -0.000016     1.086416
	   13 R(7,13)         =      1.329898     0.000118     0.000011     1.329909
	   14 R(7,14)         =      1.330033    -0.000170    -0.000017     1.330016
	   15 R(13,17)        =      1.011583    -0.000076    -0.000009     1.011574
	   16 R(13,18)        =      1.013342    -0.000191    -0.000026     1.013316
	   17 R(14,15)        =      1.013320    -0.000006    -0.000001     1.013319
	   18 R(14,16)        =      1.011572     0.000071     0.000009     1.011581
	   19 B(1,2,3)        =    119.649451     0.000000     0.000837   119.650288
	   20 B(1,2,8)        =    120.522744    -0.000001    -0.002704   120.520041
	   21 B(1,6,5)        =    119.656160    -0.000001    -0.002279   119.653882
	   22 B(1,6,12)       =    120.526208    -0.000000    -0.001982   120.524226
	   23 B(1,7,13)       =    119.922539     0.000004     0.009188   119.931727
	   24 B(1,7,14)       =    119.927742    -0.000002    -0.002585   119.925157
	   25 B(2,1,6)        =    120.166672     0.000001     0.001537   120.168208
	   26 B(2,1,7)        =    119.906248     0.000001     0.003003   119.909252
	   27 B(2,3,4)        =    120.054578    -0.000001    -0.002098   120.052480
	   28 B(2,3,9)        =    119.728754     0.000000     0.001556   119.730311
	   29 B(3,2,8)        =    119.755008     0.000001     0.002943   119.757951
	   30 B(3,4,5)        =    120.421963     0.000000     0.001312   120.423275
	   31 B(3,4,10)       =    119.789350    -0.000000    -0.000717   119.788633
	   32 B(4,3,9)        =    120.213665     0.000000     0.000568   120.214232
	   33 B(4,5,6)        =    120.048868     0.000000     0.000695   120.049563
	   34 B(4,5,11)       =    120.214725    -0.000000    -0.000048   120.214677
	   35 B(5,4,10)       =    119.788687    -0.000000    -0.000595   119.788093
	   36 B(5,6,12)       =    119.745785     0.000001     0.003748   119.749532
	   37 B(6,1,7)        =    119.927068    -0.000001    -0.004528   119.922540
	   38 B(6,5,11)       =    119.733415    -0.000000    -0.000638   119.732777
	   39 B(7,13,17)      =    119.899626    -0.000000    -0.001748   119.897879
	   40 B(7,13,18)      =    122.923149    -0.000001    -0.004691   122.918458
	   41 B(7,14,15)      =    122.907109    -0.000001    -0.005560   122.901549
	   42 B(7,14,16)      =    119.878676     0.000000     0.000989   119.879665
	   43 B(13,7,14)      =    120.149574    -0.000003    -0.006674   120.142901
	   44 B(15,14,16)     =    117.066854     0.000001     0.005370   117.072224
	   45 B(17,13,18)     =    117.082649     0.000001     0.004200   117.086849
	   46 D(1,2,3,4)      =      0.457984    -0.000000    -0.009156     0.448828
	   47 D(1,2,3,9)      =   -178.913022    -0.000000    -0.011844  -178.924866
	   48 D(1,6,5,4)      =      0.440827     0.000000     0.008759     0.449586
	   49 D(1,6,5,11)     =   -178.931361     0.000000     0.007841  -178.923520
	   50 *D(1,7,13,17)   =     10.000021     0.000000    -0.000000    10.000021
	   51 D(1,7,13,18)    =   -173.641304    -0.000000    -0.042643  -173.683947
	   52 D(1,7,14,15)    =   -173.829297     0.000001     0.064925  -173.764372
	   53 D(1,7,14,16)    =     10.715314     0.000000     0.052346    10.767659
	   54 D(2,1,6,5)      =     -0.209896    -0.000000    -0.010505    -0.220401
	   55 D(2,1,6,12)     =   -177.119882     0.000000     0.000385  -177.119498
	   56 D(2,1,7,13)     =   -143.313687     0.000000    -0.022377  -143.336063
	   57 D(2,1,7,14)     =     36.548232    -0.000000    -0.052974    36.495258
	   58 D(2,3,4,5)      =     -0.229200     0.000000     0.007486    -0.221714
	   59 D(2,3,4,10)     =    179.775531    -0.000000     0.000151   179.775682
	   60 D(3,2,1,6)      =     -0.240283     0.000000     0.010697    -0.229586
	   61 D(3,2,1,7)      =    179.719483     0.000000     0.044144   179.763627
	   62 D(3,4,5,6)      =     -0.225163    -0.000000    -0.007291    -0.232455
	   63 D(3,4,5,11)     =    179.143975    -0.000000    -0.006372   179.137603
	   64 D(4,3,2,8)      =    177.372036     0.000000     0.013643   177.385678
	   65 D(4,5,6,12)     =    177.375174    -0.000000    -0.002223   177.372951
	   66 D(5,4,3,9)      =    179.138728     0.000000     0.010193   179.148922
	   67 D(5,6,1,7)      =    179.830347    -0.000000    -0.043959   179.786387
	   68 D(6,1,2,8)      =   -177.130209    -0.000000    -0.012457  -177.142666
	   69 D(6,1,7,13)     =     36.646176     0.000000     0.010989    36.657166
	   70 D(6,1,7,14)     =   -143.491906    -0.000000    -0.019607  -143.511513
	   71 D(6,5,4,10)     =    179.770106     0.000000     0.000044   179.770150
	   72 D(7,1,2,8)      =      2.829557     0.000000     0.020990     2.850546
	   73 D(7,1,6,12)     =      2.920360    -0.000000    -0.033069     2.887291
	   74 D(8,2,3,9)      =     -1.998971     0.000000     0.010955    -1.988016
	   75 D(9,3,4,10)     =     -0.856541     0.000000     0.002858    -0.853683
	   76 D(10,4,5,11)    =     -0.860755     0.000000     0.000963    -0.859793
	   77 D(11,5,6,12)    =     -1.997014    -0.000000    -0.003141    -2.000155
	   78 D(13,7,14,15)   =      6.032304     0.000000     0.034286     6.066590
	   79 D(13,7,14,16)   =   -169.423085     0.000000     0.021706  -169.401379
	   80 D(14,7,13,17)   =   -169.861588     0.000000     0.030658  -169.830929
	   81 D(14,7,13,18)   =      6.497088     0.000000    -0.011985     6.485103
	 ---------------------------------------------------------------------------
	Successfully symmetrized geometry.

  ==> Convergence Check <==

  Measures of convergence in internal coordinates in au.
  Criteria marked as inactive (o), active & met (*), and active & unmet ( ).
  ---------------------------------------------------------------------------------------------
   Step     Total Energy     Delta E     MAX Force     RMS Force      MAX Disp      RMS Disp   
  ---------------------------------------------------------------------------------------------
    Convergence Criteria    1.00e-06 *    3.00e-04 *             o    1.20e-03 *             o
  ---------------------------------------------------------------------------------------------
      3    -381.47050709   -1.16e-06      5.40e-05 *    1.23e-05 o    1.13e-03 *    2.90e-04 o  ~
  ---------------------------------------------------------------------------------------------


  **** Optimization is complete! (in 3 steps) ****

  ==> Optimization Summary <==

  Measures of convergence in internal coordinates in au.
  --------------------------------------------------------------------------------------------------------------- ~
   Step         Total Energy             Delta E       MAX Force       RMS Force        MAX Disp        RMS Disp  ~
  --------------------------------------------------------------------------------------------------------------- ~
      1    -381.470503165940   -381.470503165940      0.00025360      0.00005028      0.01262417      0.00209882  ~
      2    -381.470505935065     -0.000002769124      0.00013601      0.00004064      0.00814091      0.00127204  ~
      3    -381.470507094418     -0.000001159353      0.00005404      0.00001229      0.00113316      0.00029033  ~
  --------------------------------------------------------------------------------------------------------------- ~

	Writing optimization data to binary file.
	Final energy is   -381.4705070944182
	Final (previous) structure:
	Cartesian Geometry (in Angstrom)
	    C     0.0005738074   0.0000060130  -0.1779088282
	    C     0.0366919366   1.2193009859   0.5241377059
	    C     0.0313671984   1.2128515052   1.9154499744
	    C    -0.0000164766  -0.0002966735   2.6099985352
	    C    -0.0310583171  -1.2133459460   1.9152085602
	    C    -0.0356089919  -1.2194145324   0.5239288006
	    C    -0.0002435216   0.0004244578  -1.6449831567
	    H     0.0178691125   2.1647067728  -0.0107242281
	    H     0.0413139317   2.1525975746   2.4579749657
	    H    -0.0003619838  -0.0003961975   3.6956509979
	    H    -0.0413586854  -2.1531947397   2.4575468505
	    H    -0.0165702321  -2.1648068970  -0.0110542506
	    N    -0.7160011647  -0.9031342468  -2.3082334964
	    N     0.7126300142   0.9061278409  -2.3086855189
	    H     0.6743422561   1.0063063828  -3.3163143093
	    H     1.3773076108   1.4859347758  -1.8134021230
	    H    -1.3737560076  -1.4892149894  -1.8110725881
	    H    -0.6772404870  -1.0049550866  -3.3157018910
	Saving final (previous) structure.
	Removing binary optimization data file.
			--------------------------
			 OPTKING Finished Execution 
			--------------------------

    Final optimized geometry and variables:
    Molecular point group: c1
    Full point group: C1

    Geometry (in Angstrom), charge = 1, multiplicity = 1:

    C            0.000573807407     0.000006013024    -0.177908828154
    C            0.036691936617     1.219300985889     0.524137705859
    C            0.031367198411     1.212851505187     1.915449974384
    C           -0.000016476584    -0.000296673452     2.609998535187
    C           -0.031058317093    -1.213345945988     1.915208560150
    C           -0.035608991877    -1.219414532440     0.523928800626
    C           -0.000243521556     0.000424457799    -1.644983156734
    H            0.017869112531     2.164706772796    -0.010724228094
    H            0.041313931745     2.152597574573     2.457974965673
    H           -0.000361983761    -0.000396197538     3.695650997880
    H           -0.041358685434    -2.153194739694     2.457546850458
    H           -0.016570232103    -2.164806896963    -0.011054250560
    N           -0.716001164737    -0.903134246772    -2.308233496371
    N            0.712630014244     0.906127840949    -2.308685518912
    H            0.674342256053     1.006306382791    -3.316314309314
    H            1.377307610785     1.485934775804    -1.813402122964
    H           -1.373756007650    -1.489214989388    -1.811072588112
    H           -0.677240486997    -1.004955086576    -3.315701891002

	Removing binary optimization data file.
	Cleaning optimization helper files.


Properties will be evaluated at   0.000000,   0.000000,   0.000000 [a0]
OEProp: No title given, name of density matrix used for the following properties is 'SCF density'
  Nuclear Dipole Moment: [e a0]
     X:    -0.0223      Y:     0.0285      Z:     0.0179

  Electronic Dipole Moment: [e a0]
     X:     0.0257      Y:    -0.0322      Z:    -2.2742

  Dipole Moment: [e a0]
     X:     0.0034      Y:    -0.0037      Z:    -2.2563     Total:     2.2563

  Dipole Moment: [D]
     X:     0.0086      Y:    -0.0094      Z:    -5.7350     Total:     5.7350

  Quadrupole Moment: [D A]
    XX:   -49.4355     YY:   -37.9559     ZZ:   -13.2540
    XY:     6.4638     XZ:    -0.0192     YZ:     0.0146

  Traceless Quadrupole Moment: [D A]
    XX:   -15.8870     YY:    -4.4074     ZZ:    20.2945
    XY:     6.4638     XZ:    -0.0192     YZ:     0.0146

  Mulliken Charges: (a.u.)
   Center  Symbol    Alpha    Beta     Spin     Total
       1     C     2.95710  2.95710  0.00000  0.08580
       2     C     3.08203  3.08203  0.00000 -0.16406
       3     C     3.06248  3.06248  0.00000 -0.12496
       4     C     3.05149  3.05149  0.00000 -0.10297
       5     C     3.06249  3.06249  0.00000 -0.12497
       6     C     3.08220  3.08220  0.00000 -0.16440
       7     C     2.72186  2.72186  0.00000  0.55627
       8     H     0.41418  0.41418  0.00000  0.17163
       9     H     0.40545  0.40545  0.00000  0.18911
      10     H     0.40390  0.40390  0.00000  0.19221
      11     H     0.40545  0.40545  0.00000  0.18910
      12     H     0.41430  0.41430  0.00000  0.17141
      13     N     3.86317  3.86317  0.00000 -0.72635
      14     N     3.86330  3.86330  0.00000 -0.72660
      15     H     0.30569  0.30569  0.00000  0.38863
      16     H     0.29963  0.29963  0.00000  0.40073
      17     H     0.29962  0.29962  0.00000  0.40077
      18     H     0.30567  0.30567  0.00000  0.38866

   Total alpha = 32.00000, Total beta = 32.00000, Total charge =  1.00000


    Psi4 stopped on: Saturday, 29 September 2018 08:30PM
    Psi4 wall time for execution: 0:01:29.86

*** Psi4 exiting successfully. Buy a developer a beer!
