
    -----------------------------------------------------------------------
          Psi4: An Open-Source Ab Initio Electronic Structure Package
                               Psi4 1.2.1 release

                         Git: Rev {HEAD} 406f4de 


    R. M. Parrish, L. A. Burns, D. G. A. Smith, A. C. Simmonett,
    A. E. DePrince III, E. G. Hohenstein, U. Bozkaya, A. Yu. Sokolov,
    R. Di Remigio, R. M. Richard, J. F. Gonthier, A. M. James,
    H. R. McAlexander, A. Kumar, M. Saitow, X. Wang, B. P. Pritchard,
    P. Verma, H. F. Schaefer III, K. Patkowski, R. A. King, E. F. Valeev,
    F. A. Evangelista, J. M. Turney, T. D. Crawford, and C. D. Sherrill,
    J. Chem. Theory Comput. 13(7) pp 3185--3197 (2017).
    (doi: 10.1021/acs.jctc.7b00174)


                         Additional Contributions by
    P. Kraus, H. Kruse, M. H. Lechner, M. C. Schieber, and R. A. Shaw

    -----------------------------------------------------------------------


    Psi4 started on: Saturday, 29 September 2018 05:10PM

    Process ID: 13652
    Host:       loro.prib.upf.edu
    PSIDATADIR: /shared/joao/test_parameterize/miniconda3/share/psi4
    Memory:     500.0 MiB
    Threads:    1
    
  ==> Input File <==

--------------------------------------------------------------------------
set_num_threads(1)
set_memory('5348 MB')

set { scf_mem_safety_factor 0.7 }

set { reference rks }
set { basis cc-pVDZ }

molecule MOL {
    0 1
    noreorient
    nocom
    symmetry c1
    O    1.050400   0.042900  -0.048100
    C    2.474100   0.047400  -0.029000
    C    3.002600  -1.068900  -0.932000
    N    4.462700  -1.072400  -1.006800
    H    0.760400   0.728400   0.578000
    H    2.809900  -0.097900   1.003200
    H    2.817400   1.026800  -0.378600
    H    2.581000  -0.963300  -1.938400
    H    2.653800  -2.036400  -0.553400
    H    4.830949  -1.789475  -0.382558
    H    4.811705  -0.183941  -0.647512
}

set optking { frozen_dihedral = (" 2 3 4 10 ") }

energy, wfn = energy('B3LYP-D3', return_wfn=True)

import os
os.chdir(os.environ['HTMD_PSI4_WORKDIR'])

oeprop(wfn, 'DIPOLE', 'QUADRUPOLE', 'MULLIKEN_CHARGES')

with open('psi4out.xyz', 'w') as f:
    f.write('11 ' )
    f.write('%.12f\n' % energy)
    f.write(MOL.save_string_xyz())
--------------------------------------------------------------------------
  Threads set to 1 by Python driver.

  Memory set to   4.981 GiB by Python driver.

*** tstart() called on loro.prib.upf.edu
*** at Sat Sep 29 17:10:05 2018

   => Loading Basis Set <=

    Name: CC-PVDZ
    Role: ORBITAL
    Keyword: BASIS
    atoms 1    entry O          line   198 file /shared/joao/test_parameterize/miniconda3/share/psi4/basis/cc-pvdz.gbs 
    atoms 2-3  entry C          line   138 file /shared/joao/test_parameterize/miniconda3/share/psi4/basis/cc-pvdz.gbs 
    atoms 4    entry N          line   168 file /shared/joao/test_parameterize/miniconda3/share/psi4/basis/cc-pvdz.gbs 
    atoms 5-11 entry H          line    22 file /shared/joao/test_parameterize/miniconda3/share/psi4/basis/cc-pvdz.gbs 


         ---------------------------------------------------------
                                   SCF
            by Justin Turney, Rob Parrish, Andy Simmonett
                             and Daniel Smith
                              RKS Reference
                        1 Threads,   5100 MiB Core
         ---------------------------------------------------------

  ==> Geometry <==

    Molecular point group: c1
    Full point group: C1

    Geometry (in Angstrom), charge = 0, multiplicity = 1:

       Center              X                  Y                   Z               Mass       
    ------------   -----------------  -----------------  -----------------  -----------------
         O            1.050400000000     0.042900000000    -0.048100000000    15.994914619560
         C            2.474100000000     0.047400000000    -0.029000000000    12.000000000000
         C            3.002600000000    -1.068900000000    -0.932000000000    12.000000000000
         N            4.462700000000    -1.072400000000    -1.006800000000    14.003074004780
         H            0.760400000000     0.728400000000     0.578000000000     1.007825032070
         H            2.809900000000    -0.097900000000     1.003200000000     1.007825032070
         H            2.817400000000     1.026800000000    -0.378600000000     1.007825032070
         H            2.581000000000    -0.963300000000    -1.938400000000     1.007825032070
         H            2.653800000000    -2.036400000000    -0.553400000000     1.007825032070
         H            4.830949000000    -1.789475000000    -0.382558000000     1.007825032070
         H            4.811705000000    -0.183941000000    -0.647512000000     1.007825032070

  Running in c1 symmetry.

  Rotational constants: A =      0.72396  B =      0.02778  C =      0.02710 [cm^-1]
  Rotational constants: A =  21703.86595  B =    832.76994  C =    812.55787 [MHz]
  Nuclear repulsion =  130.840188730736571

  Charge       = 0
  Multiplicity = 1
  Electrons    = 34
  Nalpha       = 17
  Nbeta        = 17

  ==> Algorithm <==

  SCF Algorithm Type is DF.
  DIIS enabled.
  MOM disabled.
  Fractional occupation disabled.
  Guess Type is SAD.
  Energy threshold   = 1.00e-06
  Density threshold  = 1.00e-06
  Integral threshold = 0.00e+00

  ==> Primary Basis <==

  Basis Set: CC-PVDZ
    Blend: CC-PVDZ
    Number of shells: 45
    Number of basis function: 91
    Number of Cartesian functions: 95
    Spherical Harmonics?: true
    Max angular momentum: 2

  ==> DFT Potential <==

   => Composite Functional: B3LYP-D3ZERO <= 

    B3LYP-d3zero Hyb-GGA Exchange-Correlation Functional

    P. J. Stephens, F. J. Devlin, C. F. Chabalowski, and M. J. Frisch, J. Phys. Chem. 98, 11623 (1994)

    Deriv               =              1
    GGA                 =           TRUE
    Meta                =          FALSE

    Exchange Hybrid     =           TRUE
    MP2 Hybrid          =          FALSE

   => Exchange Functionals <=

    0.0800   Slater exchange
    0.7200         Becke 88

   => Exact (HF) Exchange <=

    0.2000               HF 

   => Correlation Functionals <=

    0.1900   Vosko, Wilk & Nusair (VWN5_RPA)
    0.8100   Lee, Yang & Parr

   => Molecular Quadrature <=

    Radial Scheme       =       TREUTLER
    Pruning Scheme      =           FLAT
    Nuclear Scheme      =       TREUTLER

    BS radius alpha     =              1
    Pruning alpha       =              1
    Radial Points       =             75
    Spherical Points    =            302
    Total Points        =         245072
    Total Blocks        =           1883
    Max Points          =            256
    Max Functions       =             91

   => -D3ZERO: Empirical Dispersion <=

    Grimme's -D3 (zero-damping) Dispersion Correction
    Grimme S.; Antony J.; Ehrlich S.; Krieg H. (2010), J. Chem. Phys., 132: 154104

        S6 =   1.000000E+00
        S8 =   1.703000E+00
       SR6 =   1.261000E+00
       SR8 =   1.000000E+00
    ALPHA6 =   1.400000E+01

   => Loading Basis Set <=

    Name: (CC-PVDZ AUX)
    Role: JKFIT
    Keyword: DF_BASIS_SCF
    atoms 1    entry O          line   221 file /shared/joao/test_parameterize/miniconda3/share/psi4/basis/cc-pvdz-jkfit.gbs 
    atoms 2-3  entry C          line   121 file /shared/joao/test_parameterize/miniconda3/share/psi4/basis/cc-pvdz-jkfit.gbs 
    atoms 4    entry N          line   171 file /shared/joao/test_parameterize/miniconda3/share/psi4/basis/cc-pvdz-jkfit.gbs 
    atoms 5-11 entry H          line    51 file /shared/joao/test_parameterize/miniconda3/share/psi4/basis/cc-pvdz-jkfit.gbs 

  ==> Pre-Iterations <==

   -------------------------------------------------------
    Irrep   Nso     Nmo     Nalpha   Nbeta   Ndocc  Nsocc
   -------------------------------------------------------
     A         91      91       0       0       0       0
   -------------------------------------------------------
    Total      91      91      17      17      17       0
   -------------------------------------------------------

  ==> Integral Setup <==

  DFHelper Memory: AOs need 0.036 [GiB]; user supplied 3.486 [GiB]. Using in-core AOs.

  ==> MemDFJK: Density-Fitted J/K Matrices <==

    J tasked:                   Yes
    K tasked:                   Yes
    wK tasked:                   No
    OpenMP threads:               1
    Memory (MB):               3570
    Algorithm:                 Core
    Schwarz Cutoff:           1E-12
    Mask sparsity (%):       0.2657
    Fitting Condition:        1E-12

   => Auxiliary Basis Set <=

  Basis Set: (CC-PVDZ AUX)
    Blend: CC-PVDZ-JKFIT
    Number of shells: 159
    Number of basis function: 441
    Number of Cartesian functions: 499
    Spherical Harmonics?: true
    Max angular momentum: 3

  Minimum eigenvalue in the overlap matrix is 4.4981922308E-03.
  Using Symmetric Orthogonalization.

  SCF Guess: Superposition of Atomic Densities via on-the-fly atomic UHF.

  ==> Iterations <==

                           Total Energy        Delta E     RMS |[F,P]|

   @DF-RKS iter   0:  -210.84219412419159   -2.10842e+02   3.66141e-02 
   @DF-RKS iter   1:  -210.21914326983884    6.23051e-01   6.94209e-03 
   @DF-RKS iter   2:  -210.07425278107189    1.44890e-01   9.59154e-03 DIIS
   @DF-RKS iter   3:  -210.38804039037578   -3.13788e-01   6.13113e-04 DIIS
   @DF-RKS iter   4:  -210.38891753399932   -8.77144e-04   3.60935e-04 DIIS
   @DF-RKS iter   5:  -210.38938631864744   -4.68785e-04   4.70619e-05 DIIS
   @DF-RKS iter   6:  -210.38939203081338   -5.71217e-06   2.40924e-05 DIIS
   @DF-RKS iter   7:  -210.38939412315074   -2.09234e-06   2.08039e-06 DIIS
   @DF-RKS iter   8:  -210.38939413870153   -1.55508e-08   8.07574e-07 DIIS

  ==> Post-Iterations <==

    Orbital Energies [Eh]
    ---------------------

    Doubly Occupied:                                                      

       1A    -19.129706     2A    -14.306013     3A    -10.227663  
       4A    -10.201806     5A     -1.012329     6A     -0.879122  
       7A     -0.711590     8A     -0.605355     9A     -0.507621  
      10A     -0.492621    11A     -0.451314    12A     -0.414387  
      13A     -0.395965    14A     -0.358239    15A     -0.329427  
      16A     -0.264464    17A     -0.233380  

    Virtual:                                                              

      18A      0.049521    19A      0.055421    20A      0.093119  
      21A      0.113156    22A      0.126855    23A      0.147841  
      24A      0.171398    25A      0.218165    26A      0.245226  
      27A      0.259517    28A      0.429424    29A      0.448817  
      30A      0.492803    31A      0.527320    32A      0.547289  
      33A      0.564145    34A      0.600592    35A      0.623894  
      36A      0.630146    37A      0.654613    38A      0.658325  
      39A      0.677225    40A      0.689535    41A      0.827265  
      42A      0.845972    43A      0.867473    44A      0.902905  
      45A      0.933807    46A      0.957024    47A      0.991256  
      48A      1.060373    49A      1.191746    50A      1.204201  
      51A      1.228974    52A      1.269590    53A      1.315993  
      54A      1.350380    55A      1.413601    56A      1.515755  
      57A      1.556658    58A      1.592341    59A      1.601576  
      60A      1.621808    61A      1.641777    62A      1.668038  
      63A      1.687584    64A      1.718734    65A      1.738566  
      66A      1.781411    67A      1.819261    68A      1.865382  
      69A      1.902115    70A      1.952853    71A      2.010391  
      72A      2.038285    73A      2.069073    74A      2.126190  
      75A      2.163309    76A      2.204313    77A      2.289441  
      78A      2.378785    79A      2.397946    80A      2.433381  
      81A      2.477221    82A      2.562350    83A      2.625804  
      84A      2.650854    85A      2.821619    86A      2.956712  
      87A      3.010537    88A      3.042567    89A      3.093818  
      90A      3.208288    91A      3.691728  

    Final Occupation by Irrep:
              A 
    DOCC [    17 ]

  Energy converged.

  @DF-RKS Final Energy:  -210.38939413870153

   => Energetics <=

    Nuclear Repulsion Energy =            130.8401887307365712
    One-Electron Energy =                -544.5345477390618498
    Two-Electron Energy =                 226.7971507503024213
    DFT Exchange-Correlation Energy =     -23.4872007906787239
    Empirical Dispersion Energy =          -0.0049850900000000
    VV10 Nonlocal Energy =                  0.0000000000000000
    Total Energy =                       -210.3893941387015332



Properties will be evaluated at   0.000000,   0.000000,   0.000000 [a0]

Properties computed using the SCF density matrix

  Nuclear Dipole Moment: [e a0]
     X:   177.1948      Y:   -31.3854      Z:   -29.3241

  Electronic Dipole Moment: [e a0]
     X:  -176.9858      Y:    31.8029      Z:    30.1783

  Dipole Moment: [e a0]
     X:     0.2090      Y:     0.4175      Z:     0.8542     Total:     0.9735

  Dipole Moment: [D]
     X:     0.5313      Y:     1.0613      Z:     2.1711     Total:     2.4743


*** tstop() called on loro.prib.upf.edu at Sat Sep 29 17:10:23 2018
Module time:
	user time   =      15.24 seconds =       0.25 minutes
	system time =       0.22 seconds =       0.00 minutes
	total time  =         18 seconds =       0.30 minutes
Total time:
	user time   =      15.24 seconds =       0.25 minutes
	system time =       0.22 seconds =       0.00 minutes
	total time  =         18 seconds =       0.30 minutes


Properties will be evaluated at   0.000000,   0.000000,   0.000000 [a0]
OEProp: No title given, name of density matrix used for the following properties is 'SCF density'
  Nuclear Dipole Moment: [e a0]
     X:   177.1948      Y:   -31.3854      Z:   -29.3241

  Electronic Dipole Moment: [e a0]
     X:  -176.9858      Y:    31.8029      Z:    30.1783

  Dipole Moment: [e a0]
     X:     0.2090      Y:     0.4175      Z:     0.8542     Total:     0.9735

  Dipole Moment: [D]
     X:     0.5313      Y:     1.0613      Z:     2.1711     Total:     2.4743

  Quadrupole Moment: [D A]
    XX:   -24.2540     YY:   -23.5707     ZZ:   -27.9766
    XY:     1.2124     XZ:     6.9912     YZ:    -1.0246

  Traceless Quadrupole Moment: [D A]
    XX:     1.0131     YY:     1.6964     ZZ:    -2.7095
    XY:     1.2124     XZ:     6.9912     YZ:    -1.0246

  Mulliken Charges: (a.u.)
   Center  Symbol    Alpha    Beta     Spin     Total
       1     O     4.13773  4.13773  0.00000 -0.27546
       2     C     2.94392  2.94392  0.00000  0.11215
       3     C     2.97870  2.97870  0.00000  0.04261
       4     N     3.59018  3.59018  0.00000 -0.18035
       5     H     0.43065  0.43065  0.00000  0.13870
       6     H     0.50544  0.50544  0.00000 -0.01087
       7     H     0.49968  0.49968  0.00000  0.00064
       8     H     0.48963  0.48963  0.00000  0.02073
       9     H     0.49286  0.49286  0.00000  0.01428
      10     H     0.46302  0.46302  0.00000  0.07397
      11     H     0.46819  0.46819  0.00000  0.06361

   Total alpha = 17.00000, Total beta = 17.00000, Total charge =  0.00000


    Psi4 stopped on: Saturday, 29 September 2018 05:10PM
    Psi4 wall time for execution: 0:00:17.66

*** Psi4 exiting successfully. Buy a developer a beer!
