
    -----------------------------------------------------------------------
          Psi4: An Open-Source Ab Initio Electronic Structure Package
                               Psi4 1.2.1 release

                         Git: Rev {HEAD} 406f4de 


    R. M. Parrish, L. A. Burns, D. G. A. Smith, A. C. Simmonett,
    A. E. DePrince III, E. G. Hohenstein, U. Bozkaya, A. Yu. Sokolov,
    R. Di Remigio, R. M. Richard, J. F. Gonthier, A. M. James,
    H. R. McAlexander, A. Kumar, M. Saitow, X. Wang, B. P. Pritchard,
    P. Verma, H. F. Schaefer III, K. Patkowski, R. A. King, E. F. Valeev,
    F. A. Evangelista, J. M. Turney, T. D. Crawford, and C. D. Sherrill,
    J. Chem. Theory Comput. 13(7) pp 3185--3197 (2017).
    (doi: 10.1021/acs.jctc.7b00174)


                         Additional Contributions by
    P. Kraus, H. Kruse, M. H. Lechner, M. C. Schieber, and R. A. Shaw

    -----------------------------------------------------------------------


    Psi4 started on: Saturday, 29 September 2018 05:09PM

    Process ID: 13425
    Host:       loro.prib.upf.edu
    PSIDATADIR: /shared/joao/test_parameterize/miniconda3/share/psi4
    Memory:     500.0 MiB
    Threads:    1
    
  ==> Input File <==

--------------------------------------------------------------------------
set_num_threads(1)
set_memory('5348 MB')

set { scf_mem_safety_factor 0.7 }

set { reference rks }
set { basis cc-pVDZ }

molecule MOL {
    0 1
    noreorient
    nocom
    symmetry c1
    O    1.050400   0.042900  -0.048100
    C    2.474100   0.047400  -0.029000
    C    3.002600  -1.068900  -0.932000
    N    4.462700  -1.072400  -1.006800
    H    0.760400   0.728400   0.578000
    H    2.809900  -0.097900   1.003200
    H    2.817400   1.026800  -0.378600
    H    2.581000  -0.963300  -1.938400
    H    2.653800  -2.036400  -0.553400
    H    4.817294  -0.158859  -0.725398
    H    4.740987  -1.191600  -1.980760
}

set optking { frozen_dihedral = (" 2 3 4 10 ") }

energy, wfn = energy('B3LYP-D3', return_wfn=True)

import os
os.chdir(os.environ['HTMD_PSI4_WORKDIR'])

oeprop(wfn, 'DIPOLE', 'QUADRUPOLE', 'MULLIKEN_CHARGES')

with open('psi4out.xyz', 'w') as f:
    f.write('11 ' )
    f.write('%.12f\n' % energy)
    f.write(MOL.save_string_xyz())
--------------------------------------------------------------------------
  Threads set to 1 by Python driver.

  Memory set to   4.981 GiB by Python driver.

*** tstart() called on loro.prib.upf.edu
*** at Sat Sep 29 17:09:47 2018

   => Loading Basis Set <=

    Name: CC-PVDZ
    Role: ORBITAL
    Keyword: BASIS
    atoms 1    entry O          line   198 file /shared/joao/test_parameterize/miniconda3/share/psi4/basis/cc-pvdz.gbs 
    atoms 2-3  entry C          line   138 file /shared/joao/test_parameterize/miniconda3/share/psi4/basis/cc-pvdz.gbs 
    atoms 4    entry N          line   168 file /shared/joao/test_parameterize/miniconda3/share/psi4/basis/cc-pvdz.gbs 
    atoms 5-11 entry H          line    22 file /shared/joao/test_parameterize/miniconda3/share/psi4/basis/cc-pvdz.gbs 


         ---------------------------------------------------------
                                   SCF
            by Justin Turney, Rob Parrish, Andy Simmonett
                             and Daniel Smith
                              RKS Reference
                        1 Threads,   5100 MiB Core
         ---------------------------------------------------------

  ==> Geometry <==

    Molecular point group: c1
    Full point group: C1

    Geometry (in Angstrom), charge = 0, multiplicity = 1:

       Center              X                  Y                   Z               Mass       
    ------------   -----------------  -----------------  -----------------  -----------------
         O            1.050400000000     0.042900000000    -0.048100000000    15.994914619560
         C            2.474100000000     0.047400000000    -0.029000000000    12.000000000000
         C            3.002600000000    -1.068900000000    -0.932000000000    12.000000000000
         N            4.462700000000    -1.072400000000    -1.006800000000    14.003074004780
         H            0.760400000000     0.728400000000     0.578000000000     1.007825032070
         H            2.809900000000    -0.097900000000     1.003200000000     1.007825032070
         H            2.817400000000     1.026800000000    -0.378600000000     1.007825032070
         H            2.581000000000    -0.963300000000    -1.938400000000     1.007825032070
         H            2.653800000000    -2.036400000000    -0.553400000000     1.007825032070
         H            4.817294000000    -0.158859000000    -0.725398000000     1.007825032070
         H            4.740987000000    -1.191600000000    -1.980760000000     1.007825032070

  Running in c1 symmetry.

  Rotational constants: A =      0.72267  B =      0.02774  C =      0.02703 [cm^-1]
  Rotational constants: A =  21665.24647  B =    831.55443  C =    810.39090 [MHz]
  Nuclear repulsion =  130.694166814357374

  Charge       = 0
  Multiplicity = 1
  Electrons    = 34
  Nalpha       = 17
  Nbeta        = 17

  ==> Algorithm <==

  SCF Algorithm Type is DF.
  DIIS enabled.
  MOM disabled.
  Fractional occupation disabled.
  Guess Type is SAD.
  Energy threshold   = 1.00e-06
  Density threshold  = 1.00e-06
  Integral threshold = 0.00e+00

  ==> Primary Basis <==

  Basis Set: CC-PVDZ
    Blend: CC-PVDZ
    Number of shells: 45
    Number of basis function: 91
    Number of Cartesian functions: 95
    Spherical Harmonics?: true
    Max angular momentum: 2

  ==> DFT Potential <==

   => Composite Functional: B3LYP-D3ZERO <= 

    B3LYP-d3zero Hyb-GGA Exchange-Correlation Functional

    P. J. Stephens, F. J. Devlin, C. F. Chabalowski, and M. J. Frisch, J. Phys. Chem. 98, 11623 (1994)

    Deriv               =              1
    GGA                 =           TRUE
    Meta                =          FALSE

    Exchange Hybrid     =           TRUE
    MP2 Hybrid          =          FALSE

   => Exchange Functionals <=

    0.0800   Slater exchange
    0.7200         Becke 88

   => Exact (HF) Exchange <=

    0.2000               HF 

   => Correlation Functionals <=

    0.1900   Vosko, Wilk & Nusair (VWN5_RPA)
    0.8100   Lee, Yang & Parr

   => Molecular Quadrature <=

    Radial Scheme       =       TREUTLER
    Pruning Scheme      =           FLAT
    Nuclear Scheme      =       TREUTLER

    BS radius alpha     =              1
    Pruning alpha       =              1
    Radial Points       =             75
    Spherical Points    =            302
    Total Points        =         245083
    Total Blocks        =           1886
    Max Points          =            256
    Max Functions       =             91

   => -D3ZERO: Empirical Dispersion <=

    Grimme's -D3 (zero-damping) Dispersion Correction
    Grimme S.; Antony J.; Ehrlich S.; Krieg H. (2010), J. Chem. Phys., 132: 154104

        S6 =   1.000000E+00
        S8 =   1.703000E+00
       SR6 =   1.261000E+00
       SR8 =   1.000000E+00
    ALPHA6 =   1.400000E+01

   => Loading Basis Set <=

    Name: (CC-PVDZ AUX)
    Role: JKFIT
    Keyword: DF_BASIS_SCF
    atoms 1    entry O          line   221 file /shared/joao/test_parameterize/miniconda3/share/psi4/basis/cc-pvdz-jkfit.gbs 
    atoms 2-3  entry C          line   121 file /shared/joao/test_parameterize/miniconda3/share/psi4/basis/cc-pvdz-jkfit.gbs 
    atoms 4    entry N          line   171 file /shared/joao/test_parameterize/miniconda3/share/psi4/basis/cc-pvdz-jkfit.gbs 
    atoms 5-11 entry H          line    51 file /shared/joao/test_parameterize/miniconda3/share/psi4/basis/cc-pvdz-jkfit.gbs 

  ==> Pre-Iterations <==

   -------------------------------------------------------
    Irrep   Nso     Nmo     Nalpha   Nbeta   Ndocc  Nsocc
   -------------------------------------------------------
     A         91      91       0       0       0       0
   -------------------------------------------------------
    Total      91      91      17      17      17       0
   -------------------------------------------------------

  ==> Integral Setup <==

  DFHelper Memory: AOs need 0.036 [GiB]; user supplied 3.486 [GiB]. Using in-core AOs.

  ==> MemDFJK: Density-Fitted J/K Matrices <==

    J tasked:                   Yes
    K tasked:                   Yes
    wK tasked:                   No
    OpenMP threads:               1
    Memory (MB):               3570
    Algorithm:                 Core
    Schwarz Cutoff:           1E-12
    Mask sparsity (%):       0.3623
    Fitting Condition:        1E-12

   => Auxiliary Basis Set <=

  Basis Set: (CC-PVDZ AUX)
    Blend: CC-PVDZ-JKFIT
    Number of shells: 159
    Number of basis function: 441
    Number of Cartesian functions: 499
    Spherical Harmonics?: true
    Max angular momentum: 3

  Minimum eigenvalue in the overlap matrix is 4.5297407465E-03.
  Using Symmetric Orthogonalization.

  SCF Guess: Superposition of Atomic Densities via on-the-fly atomic UHF.

  ==> Iterations <==

                           Total Energy        Delta E     RMS |[F,P]|

   @DF-RKS iter   0:  -210.84721119337343   -2.10847e+02   3.67172e-02 
   @DF-RKS iter   1:  -210.21163023724452    6.35581e-01   7.05551e-03 
   @DF-RKS iter   2:  -210.06632639311201    1.45304e-01   9.67483e-03 DIIS
   @DF-RKS iter   3:  -210.38652462434769   -3.20198e-01   6.02538e-04 DIIS
   @DF-RKS iter   4:  -210.38731308368872   -7.88459e-04   3.68681e-04 DIIS
   @DF-RKS iter   5:  -210.38779470683016   -4.81623e-04   4.94294e-05 DIIS
   @DF-RKS iter   6:  -210.38780118731381   -6.48048e-06   2.35700e-05 DIIS
   @DF-RKS iter   7:  -210.38780321223751   -2.02492e-06   2.07240e-06 DIIS
   @DF-RKS iter   8:  -210.38780322798843   -1.57509e-08   6.43055e-07 DIIS

  ==> Post-Iterations <==

    Orbital Energies [Eh]
    ---------------------

    Doubly Occupied:                                                      

       1A    -19.130561     2A    -14.303449     3A    -10.229429  
       4A    -10.201138     5A     -1.012975     6A     -0.877259  
       7A     -0.712733     8A     -0.603259     9A     -0.509798  
      10A     -0.475932    11A     -0.468280    12A     -0.413518  
      13A     -0.382858    14A     -0.371570    15A     -0.325850  
      16A     -0.264603    17A     -0.229378  

    Virtual:                                                              

      18A      0.048227    19A      0.057760    20A      0.098849  
      21A      0.110769    22A      0.124331    23A      0.147754  
      24A      0.177961    25A      0.215725    26A      0.240205  
      27A      0.256532    28A      0.438916    29A      0.444297  
      30A      0.487117    31A      0.521610    32A      0.564323  
      33A      0.595738    34A      0.599006    35A      0.627376  
      36A      0.634034    37A      0.639349    38A      0.658438  
      39A      0.659593    40A      0.685833    41A      0.824920  
      42A      0.840619    43A      0.855003    44A      0.913480  
      45A      0.954210    46A      0.974348    47A      0.992927  
      48A      1.060671    49A      1.151874    50A      1.210366  
      51A      1.226415    52A      1.246435    53A      1.345855  
      54A      1.379913    55A      1.448259    56A      1.467372  
      57A      1.528703    58A      1.592410    59A      1.594823  
      60A      1.628860    61A      1.650304    62A      1.670935  
      63A      1.690986    64A      1.718790    65A      1.752863  
      66A      1.780895    67A      1.818376    68A      1.857015  
      69A      1.902765    70A      1.963814    71A      2.006407  
      72A      2.027616    73A      2.062408    74A      2.125621  
      75A      2.165537    76A      2.208083    77A      2.291687  
      78A      2.382060    79A      2.424959    80A      2.431034  
      81A      2.498106    82A      2.543406    83A      2.595038  
      84A      2.654626    85A      2.819777    86A      2.953809  
      87A      3.002291    88A      3.047072    89A      3.106587  
      90A      3.206786    91A      3.692155  

    Final Occupation by Irrep:
              A 
    DOCC [    17 ]

  Energy converged.

  @DF-RKS Final Energy:  -210.38780322798843

   => Energetics <=

    Nuclear Repulsion Energy =            130.6941668143573736
    One-Electron Energy =                -544.2558471132140312
    Two-Electron Energy =                 226.6665607717871751
    DFT Exchange-Correlation Energy =     -23.4877836009189416
    Empirical Dispersion Energy =          -0.0049001000000000
    VV10 Nonlocal Energy =                  0.0000000000000000
    Total Energy =                       -210.3878032279884280



Properties will be evaluated at   0.000000,   0.000000,   0.000000 [a0]

Properties computed using the SCF density matrix

  Nuclear Dipole Moment: [e a0]
     X:   177.0354      Y:   -30.2081      Z:   -32.4915

  Electronic Dipole Moment: [e a0]
     X:  -176.8789      Y:    30.9670      Z:    32.5168

  Dipole Moment: [e a0]
     X:     0.1565      Y:     0.7588      Z:     0.0253     Total:     0.7752

  Dipole Moment: [D]
     X:     0.3978      Y:     1.9287      Z:     0.0643     Total:     1.9703


*** tstop() called on loro.prib.upf.edu at Sat Sep 29 17:10:05 2018
Module time:
	user time   =      14.96 seconds =       0.25 minutes
	system time =       0.21 seconds =       0.00 minutes
	total time  =         18 seconds =       0.30 minutes
Total time:
	user time   =      14.96 seconds =       0.25 minutes
	system time =       0.21 seconds =       0.00 minutes
	total time  =         18 seconds =       0.30 minutes


Properties will be evaluated at   0.000000,   0.000000,   0.000000 [a0]
OEProp: No title given, name of density matrix used for the following properties is 'SCF density'
  Nuclear Dipole Moment: [e a0]
     X:   177.0354      Y:   -30.2081      Z:   -32.4915

  Electronic Dipole Moment: [e a0]
     X:  -176.8789      Y:    30.9670      Z:    32.5168

  Dipole Moment: [e a0]
     X:     0.1565      Y:     0.7588      Z:     0.0253     Total:     0.7752

  Dipole Moment: [D]
     X:     0.3978      Y:     1.9287      Z:     0.0643     Total:     1.9703

  Quadrupole Moment: [D A]
    XX:   -25.5064     YY:   -26.4795     ZZ:   -22.3611
    XY:     5.6738     XZ:    -3.7682     YZ:     1.5825

  Traceless Quadrupole Moment: [D A]
    XX:    -0.7241     YY:    -1.6972     ZZ:     2.4213
    XY:     5.6738     XZ:    -3.7682     YZ:     1.5825

  Mulliken Charges: (a.u.)
   Center  Symbol    Alpha    Beta     Spin     Total
       1     O     4.13750  4.13750  0.00000 -0.27500
       2     C     2.94134  2.94134  0.00000  0.11731
       3     C     2.97766  2.97766  0.00000  0.04467
       4     N     3.59259  3.59259  0.00000 -0.18517
       5     H     0.43013  0.43013  0.00000  0.13973
       6     H     0.49681  0.49681  0.00000  0.00637
       7     H     0.50385  0.50385  0.00000 -0.00769
       8     H     0.49772  0.49772  0.00000  0.00456
       9     H     0.49042  0.49042  0.00000  0.01917
      10     H     0.46921  0.46921  0.00000  0.06157
      11     H     0.46276  0.46276  0.00000  0.07447

   Total alpha = 17.00000, Total beta = 17.00000, Total charge =  0.00000


    Psi4 stopped on: Saturday, 29 September 2018 05:10PM
    Psi4 wall time for execution: 0:00:18.49

*** Psi4 exiting successfully. Buy a developer a beer!
