
    -----------------------------------------------------------------------
          Psi4: An Open-Source Ab Initio Electronic Structure Package
                               Psi4 1.2.1 release

                         Git: Rev {HEAD} 406f4de 


    R. M. Parrish, L. A. Burns, D. G. A. Smith, A. C. Simmonett,
    A. E. DePrince III, E. G. Hohenstein, U. Bozkaya, A. Yu. Sokolov,
    R. Di Remigio, R. M. Richard, J. F. Gonthier, A. M. James,
    H. R. McAlexander, A. Kumar, M. Saitow, X. Wang, B. P. Pritchard,
    P. Verma, H. F. Schaefer III, K. Patkowski, R. A. King, E. F. Valeev,
    F. A. Evangelista, J. M. Turney, T. D. Crawford, and C. D. Sherrill,
    J. Chem. Theory Comput. 13(7) pp 3185--3197 (2017).
    (doi: 10.1021/acs.jctc.7b00174)


                         Additional Contributions by
    P. Kraus, H. Kruse, M. H. Lechner, M. C. Schieber, and R. A. Shaw

    -----------------------------------------------------------------------


    Psi4 started on: Saturday, 29 September 2018 05:09PM

    Process ID: 12978
    Host:       loro.prib.upf.edu
    PSIDATADIR: /shared/joao/test_parameterize/miniconda3/share/psi4
    Memory:     500.0 MiB
    Threads:    1
    
  ==> Input File <==

--------------------------------------------------------------------------
set_num_threads(1)
set_memory('5348 MB')

set { scf_mem_safety_factor 0.7 }

set { reference rks }
set { basis cc-pVDZ }

molecule MOL {
    0 1
    noreorient
    nocom
    symmetry c1
    O    1.050400   0.042900  -0.048100
    C    2.474100   0.047400  -0.029000
    C    3.002600  -1.068900  -0.932000
    N    3.638285  -0.545852  -2.140232
    H    0.760400   0.728400   0.578000
    H    2.809900  -0.097900   1.003200
    H    2.817400   1.026800  -0.378600
    H    2.183132  -1.742944  -1.207454
    H    3.723979  -1.675674  -0.372989
    H    2.936586  -0.083849  -2.717859
    H    3.983893  -1.329205  -2.694455
}

set optking { frozen_dihedral = (" 1 2 3 4 ") }

energy, wfn = energy('B3LYP-D3', return_wfn=True)

import os
os.chdir(os.environ['HTMD_PSI4_WORKDIR'])

oeprop(wfn, 'DIPOLE', 'QUADRUPOLE', 'MULLIKEN_CHARGES')

with open('psi4out.xyz', 'w') as f:
    f.write('11 ' )
    f.write('%.12f\n' % energy)
    f.write(MOL.save_string_xyz())
--------------------------------------------------------------------------
  Threads set to 1 by Python driver.

  Memory set to   4.981 GiB by Python driver.

*** tstart() called on loro.prib.upf.edu
*** at Sat Sep 29 17:09:09 2018

   => Loading Basis Set <=

    Name: CC-PVDZ
    Role: ORBITAL
    Keyword: BASIS
    atoms 1    entry O          line   198 file /shared/joao/test_parameterize/miniconda3/share/psi4/basis/cc-pvdz.gbs 
    atoms 2-3  entry C          line   138 file /shared/joao/test_parameterize/miniconda3/share/psi4/basis/cc-pvdz.gbs 
    atoms 4    entry N          line   168 file /shared/joao/test_parameterize/miniconda3/share/psi4/basis/cc-pvdz.gbs 
    atoms 5-11 entry H          line    22 file /shared/joao/test_parameterize/miniconda3/share/psi4/basis/cc-pvdz.gbs 


         ---------------------------------------------------------
                                   SCF
            by Justin Turney, Rob Parrish, Andy Simmonett
                             and Daniel Smith
                              RKS Reference
                        1 Threads,   5100 MiB Core
         ---------------------------------------------------------

  ==> Geometry <==

    Molecular point group: c1
    Full point group: C1

    Geometry (in Angstrom), charge = 0, multiplicity = 1:

       Center              X                  Y                   Z               Mass       
    ------------   -----------------  -----------------  -----------------  -----------------
         O            1.050400000000     0.042900000000    -0.048100000000    15.994914619560
         C            2.474100000000     0.047400000000    -0.029000000000    12.000000000000
         C            3.002600000000    -1.068900000000    -0.932000000000    12.000000000000
         N            3.638285000000    -0.545852000000    -2.140232000000    14.003074004780
         H            0.760400000000     0.728400000000     0.578000000000     1.007825032070
         H            2.809900000000    -0.097900000000     1.003200000000     1.007825032070
         H            2.817400000000     1.026800000000    -0.378600000000     1.007825032070
         H            2.183132000000    -1.742944000000    -1.207454000000     1.007825032070
         H            3.723979000000    -1.675674000000    -0.372989000000     1.007825032070
         H            2.936586000000    -0.083849000000    -2.717859000000     1.007825032070
         H            3.983893000000    -1.329205000000    -2.694455000000     1.007825032070

  Running in c1 symmetry.

  Rotational constants: A =      0.41896  B =      0.03145  C =      0.03051 [cm^-1]
  Rotational constants: A =  12559.95639  B =    942.84454  C =    914.76459 [MHz]
  Nuclear repulsion =  131.363430157336012

  Charge       = 0
  Multiplicity = 1
  Electrons    = 34
  Nalpha       = 17
  Nbeta        = 17

  ==> Algorithm <==

  SCF Algorithm Type is DF.
  DIIS enabled.
  MOM disabled.
  Fractional occupation disabled.
  Guess Type is SAD.
  Energy threshold   = 1.00e-06
  Density threshold  = 1.00e-06
  Integral threshold = 0.00e+00

  ==> Primary Basis <==

  Basis Set: CC-PVDZ
    Blend: CC-PVDZ
    Number of shells: 45
    Number of basis function: 91
    Number of Cartesian functions: 95
    Spherical Harmonics?: true
    Max angular momentum: 2

  ==> DFT Potential <==

   => Composite Functional: B3LYP-D3ZERO <= 

    B3LYP-d3zero Hyb-GGA Exchange-Correlation Functional

    P. J. Stephens, F. J. Devlin, C. F. Chabalowski, and M. J. Frisch, J. Phys. Chem. 98, 11623 (1994)

    Deriv               =              1
    GGA                 =           TRUE
    Meta                =          FALSE

    Exchange Hybrid     =           TRUE
    MP2 Hybrid          =          FALSE

   => Exchange Functionals <=

    0.0800   Slater exchange
    0.7200         Becke 88

   => Exact (HF) Exchange <=

    0.2000               HF 

   => Correlation Functionals <=

    0.1900   Vosko, Wilk & Nusair (VWN5_RPA)
    0.8100   Lee, Yang & Parr

   => Molecular Quadrature <=

    Radial Scheme       =       TREUTLER
    Pruning Scheme      =           FLAT
    Nuclear Scheme      =       TREUTLER

    BS radius alpha     =              1
    Pruning alpha       =              1
    Radial Points       =             75
    Spherical Points    =            302
    Total Points        =         245102
    Total Blocks        =           1899
    Max Points          =            256
    Max Functions       =             91

   => -D3ZERO: Empirical Dispersion <=

    Grimme's -D3 (zero-damping) Dispersion Correction
    Grimme S.; Antony J.; Ehrlich S.; Krieg H. (2010), J. Chem. Phys., 132: 154104

        S6 =   1.000000E+00
        S8 =   1.703000E+00
       SR6 =   1.261000E+00
       SR8 =   1.000000E+00
    ALPHA6 =   1.400000E+01

   => Loading Basis Set <=

    Name: (CC-PVDZ AUX)
    Role: JKFIT
    Keyword: DF_BASIS_SCF
    atoms 1    entry O          line   221 file /shared/joao/test_parameterize/miniconda3/share/psi4/basis/cc-pvdz-jkfit.gbs 
    atoms 2-3  entry C          line   121 file /shared/joao/test_parameterize/miniconda3/share/psi4/basis/cc-pvdz-jkfit.gbs 
    atoms 4    entry N          line   171 file /shared/joao/test_parameterize/miniconda3/share/psi4/basis/cc-pvdz-jkfit.gbs 
    atoms 5-11 entry H          line    51 file /shared/joao/test_parameterize/miniconda3/share/psi4/basis/cc-pvdz-jkfit.gbs 

  ==> Pre-Iterations <==

   -------------------------------------------------------
    Irrep   Nso     Nmo     Nalpha   Nbeta   Ndocc  Nsocc
   -------------------------------------------------------
     A         91      91       0       0       0       0
   -------------------------------------------------------
    Total      91      91      17      17      17       0
   -------------------------------------------------------

  ==> Integral Setup <==

  DFHelper Memory: AOs need 0.036 [GiB]; user supplied 3.486 [GiB]. Using in-core AOs.

  ==> MemDFJK: Density-Fitted J/K Matrices <==

    J tasked:                   Yes
    K tasked:                   Yes
    wK tasked:                   No
    OpenMP threads:               1
    Memory (MB):               3570
    Algorithm:                 Core
    Schwarz Cutoff:           1E-12
    Mask sparsity (%):       0.2898
    Fitting Condition:        1E-12

   => Auxiliary Basis Set <=

  Basis Set: (CC-PVDZ AUX)
    Blend: CC-PVDZ-JKFIT
    Number of shells: 159
    Number of basis function: 441
    Number of Cartesian functions: 499
    Spherical Harmonics?: true
    Max angular momentum: 3

  Minimum eigenvalue in the overlap matrix is 4.6729157493E-03.
  Using Symmetric Orthogonalization.

  SCF Guess: Superposition of Atomic Densities via on-the-fly atomic UHF.

  ==> Iterations <==

                           Total Energy        Delta E     RMS |[F,P]|

   @DF-RKS iter   0:  -210.94592224620456   -2.10946e+02   3.76316e-02 
   @DF-RKS iter   1:  -210.25849822349034    6.87424e-01   6.04274e-03 
   @DF-RKS iter   2:  -210.15264927367997    1.05849e-01   8.43386e-03 DIIS
   @DF-RKS iter   3:  -210.38616349361573   -2.33514e-01   6.16964e-04 DIIS
   @DF-RKS iter   4:  -210.38716461534526   -1.00112e-03   3.23507e-04 DIIS
   @DF-RKS iter   5:  -210.38754491348746   -3.80298e-04   5.40867e-05 DIIS
   @DF-RKS iter   6:  -210.38755503710496   -1.01236e-05   1.58597e-05 DIIS
   @DF-RKS iter   7:  -210.38755588827436   -8.51169e-07   4.52572e-06 DIIS
   @DF-RKS iter   8:  -210.38755596384391   -7.55695e-08   6.78608e-07 DIIS

  ==> Post-Iterations <==

    Orbital Energies [Eh]
    ---------------------

    Doubly Occupied:                                                      

       1A    -19.125306     2A    -14.300978     3A    -10.221789  
       4A    -10.200753     5A     -1.008472     6A     -0.873675  
       7A     -0.712601     8A     -0.595357     9A     -0.510368  
      10A     -0.483837    11A     -0.447594    12A     -0.410654  
      13A     -0.390499    14A     -0.363447    15A     -0.324028  
      16A     -0.259789    17A     -0.227143  

    Virtual:                                                              

      18A      0.052234    19A      0.066959    20A      0.098443  
      21A      0.120586    22A      0.133931    23A      0.142617  
      24A      0.159013    25A      0.204489    26A      0.229781  
      27A      0.274357    28A      0.447757    29A      0.479734  
      30A      0.492085    31A      0.510244    32A      0.527367  
      33A      0.581783    34A      0.608730    35A      0.615233  
      36A      0.642670    37A      0.655055    38A      0.672863  
      39A      0.696064    40A      0.703480    41A      0.782553  
      42A      0.805855    43A      0.841061    44A      0.916538  
      45A      0.942898    46A      0.991545    47A      1.010306  
      48A      1.054118    49A      1.198921    50A      1.204688  
      51A      1.238713    52A      1.293931    53A      1.342996  
      54A      1.380397    55A      1.426652    56A      1.471676  
      57A      1.537012    58A      1.572080    59A      1.588575  
      60A      1.609157    61A      1.621093    62A      1.661163  
      63A      1.698731    64A      1.747275    65A      1.764286  
      66A      1.801510    67A      1.874098    68A      1.902444  
      69A      1.925681    70A      1.968648    71A      1.976486  
      72A      2.001324    73A      2.048568    74A      2.098024  
      75A      2.171654    76A      2.242350    77A      2.256449  
      78A      2.383378    79A      2.395556    80A      2.441660  
      81A      2.472634    82A      2.515343    83A      2.616827  
      84A      2.672545    85A      2.817391    86A      2.967978  
      87A      3.018003    88A      3.031856    89A      3.109604  
      90A      3.193591    91A      3.692422  

    Final Occupation by Irrep:
              A 
    DOCC [    17 ]

  Energy converged.

  @DF-RKS Final Energy:  -210.38755596384391

   => Energetics <=

    Nuclear Repulsion Energy =            131.3634301573360119
    One-Electron Energy =                -545.7048508702223444
    Two-Electron Energy =                 227.4490061819328162
    DFT Exchange-Correlation Energy =     -23.4903725428903982
    Empirical Dispersion Energy =          -0.0047688900000000
    VV10 Nonlocal Energy =                  0.0000000000000000
    Total Energy =                       -210.3875559638439370



Properties will be evaluated at   0.000000,   0.000000,   0.000000 [a0]

Properties computed using the SCF density matrix

  Nuclear Dipole Moment: [e a0]
     X:   162.4157      Y:   -24.1528      Z:   -50.8763

  Electronic Dipole Moment: [e a0]
     X:  -162.4557      Y:    24.1992      Z:    51.0179

  Dipole Moment: [e a0]
     X:    -0.0400      Y:     0.0463      Z:     0.1416     Total:     0.1543

  Dipole Moment: [D]
     X:    -0.1016      Y:     0.1177      Z:     0.3600     Total:     0.3922


*** tstop() called on loro.prib.upf.edu at Sat Sep 29 17:09:27 2018
Module time:
	user time   =      14.96 seconds =       0.25 minutes
	system time =       0.23 seconds =       0.00 minutes
	total time  =         18 seconds =       0.30 minutes
Total time:
	user time   =      14.96 seconds =       0.25 minutes
	system time =       0.23 seconds =       0.00 minutes
	total time  =         18 seconds =       0.30 minutes


Properties will be evaluated at   0.000000,   0.000000,   0.000000 [a0]
OEProp: No title given, name of density matrix used for the following properties is 'SCF density'
  Nuclear Dipole Moment: [e a0]
     X:   162.4157      Y:   -24.1528      Z:   -50.8763

  Electronic Dipole Moment: [e a0]
     X:  -162.4557      Y:    24.1992      Z:    51.0179

  Dipole Moment: [e a0]
     X:    -0.0400      Y:     0.0463      Z:     0.1416     Total:     0.1543

  Dipole Moment: [D]
     X:    -0.1016      Y:     0.1177      Z:     0.3600     Total:     0.3922

  Quadrupole Moment: [D A]
    XX:   -29.2953     YY:   -23.2553     ZZ:   -21.6228
    XY:    -3.3373     XZ:     0.4987     YZ:     2.9443

  Traceless Quadrupole Moment: [D A]
    XX:    -4.5709     YY:     1.4692     ZZ:     3.1017
    XY:    -3.3373     XZ:     0.4987     YZ:     2.9443

  Mulliken Charges: (a.u.)
   Center  Symbol    Alpha    Beta     Spin     Total
       1     O     4.14184  4.14184  0.00000 -0.28368
       2     C     2.92919  2.92919  0.00000  0.14162
       3     C     2.97925  2.97925  0.00000  0.04150
       4     N     3.59378  3.59378  0.00000 -0.18757
       5     H     0.43171  0.43171  0.00000  0.13659
       6     H     0.50263  0.50263  0.00000 -0.00526
       7     H     0.50003  0.50003  0.00000 -0.00006
       8     H     0.49695  0.49695  0.00000  0.00610
       9     H     0.49495  0.49495  0.00000  0.01011
      10     H     0.46334  0.46334  0.00000  0.07332
      11     H     0.46633  0.46633  0.00000  0.06733

   Total alpha = 17.00000, Total beta = 17.00000, Total charge =  0.00000


    Psi4 stopped on: Saturday, 29 September 2018 05:09PM
    Psi4 wall time for execution: 0:00:17.57

*** Psi4 exiting successfully. Buy a developer a beer!
