
    -----------------------------------------------------------------------
          Psi4: An Open-Source Ab Initio Electronic Structure Package
                               Psi4 1.2.1 release

                         Git: Rev {HEAD} 406f4de 


    R. M. Parrish, L. A. Burns, D. G. A. Smith, A. C. Simmonett,
    A. E. DePrince III, E. G. Hohenstein, U. Bozkaya, A. Yu. Sokolov,
    R. Di Remigio, R. M. Richard, J. F. Gonthier, A. M. James,
    H. R. McAlexander, A. Kumar, M. Saitow, X. Wang, B. P. Pritchard,
    P. Verma, H. F. Schaefer III, K. Patkowski, R. A. King, E. F. Valeev,
    F. A. Evangelista, J. M. Turney, T. D. Crawford, and C. D. Sherrill,
    J. Chem. Theory Comput. 13(7) pp 3185--3197 (2017).
    (doi: 10.1021/acs.jctc.7b00174)


                         Additional Contributions by
    P. Kraus, H. Kruse, M. H. Lechner, M. C. Schieber, and R. A. Shaw

    -----------------------------------------------------------------------


    Psi4 started on: Saturday, 29 September 2018 05:10PM

    Process ID: 14116
    Host:       loro.prib.upf.edu
    PSIDATADIR: /shared/joao/test_parameterize/miniconda3/share/psi4
    Memory:     500.0 MiB
    Threads:    1
    
  ==> Input File <==

--------------------------------------------------------------------------
set_num_threads(1)
set_memory('5348 MB')

set { scf_mem_safety_factor 0.7 }

set { reference rks }
set { basis cc-pVDZ }

molecule MOL {
    0 1
    noreorient
    nocom
    symmetry c1
    O    1.050400   0.042900  -0.048100
    C    2.474100   0.047400  -0.029000
    C    3.002600  -1.068900  -0.932000
    N    4.462700  -1.072400  -1.006800
    H    0.779678  -0.771651  -0.505514
    H    2.809900  -0.097900   1.003200
    H    2.817400   1.026800  -0.378600
    H    2.581000  -0.963300  -1.938400
    H    2.653800  -2.036400  -0.553400
    H    4.779000  -0.221000  -1.470000
    H    4.758600  -1.842500  -1.606500
}

set optking { frozen_dihedral = (" 3 2 1 5 ") }

energy, wfn = energy('B3LYP-D3', return_wfn=True)

import os
os.chdir(os.environ['HTMD_PSI4_WORKDIR'])

oeprop(wfn, 'DIPOLE', 'QUADRUPOLE', 'MULLIKEN_CHARGES')

with open('psi4out.xyz', 'w') as f:
    f.write('11 ' )
    f.write('%.12f\n' % energy)
    f.write(MOL.save_string_xyz())
--------------------------------------------------------------------------
  Threads set to 1 by Python driver.

  Memory set to   4.981 GiB by Python driver.

*** tstart() called on loro.prib.upf.edu
*** at Sat Sep 29 17:10:43 2018

   => Loading Basis Set <=

    Name: CC-PVDZ
    Role: ORBITAL
    Keyword: BASIS
    atoms 1    entry O          line   198 file /shared/joao/test_parameterize/miniconda3/share/psi4/basis/cc-pvdz.gbs 
    atoms 2-3  entry C          line   138 file /shared/joao/test_parameterize/miniconda3/share/psi4/basis/cc-pvdz.gbs 
    atoms 4    entry N          line   168 file /shared/joao/test_parameterize/miniconda3/share/psi4/basis/cc-pvdz.gbs 
    atoms 5-11 entry H          line    22 file /shared/joao/test_parameterize/miniconda3/share/psi4/basis/cc-pvdz.gbs 


         ---------------------------------------------------------
                                   SCF
            by Justin Turney, Rob Parrish, Andy Simmonett
                             and Daniel Smith
                              RKS Reference
                        1 Threads,   5100 MiB Core
         ---------------------------------------------------------

  ==> Geometry <==

    Molecular point group: c1
    Full point group: C1

    Geometry (in Angstrom), charge = 0, multiplicity = 1:

       Center              X                  Y                   Z               Mass       
    ------------   -----------------  -----------------  -----------------  -----------------
         O            1.050400000000     0.042900000000    -0.048100000000    15.994914619560
         C            2.474100000000     0.047400000000    -0.029000000000    12.000000000000
         C            3.002600000000    -1.068900000000    -0.932000000000    12.000000000000
         N            4.462700000000    -1.072400000000    -1.006800000000    14.003074004780
         H            0.779678000000    -0.771651000000    -0.505514000000     1.007825032070
         H            2.809900000000    -0.097900000000     1.003200000000     1.007825032070
         H            2.817400000000     1.026800000000    -0.378600000000     1.007825032070
         H            2.581000000000    -0.963300000000    -1.938400000000     1.007825032070
         H            2.653800000000    -2.036400000000    -0.553400000000     1.007825032070
         H            4.779000000000    -0.221000000000    -1.470000000000     1.007825032070
         H            4.758600000000    -1.842500000000    -1.606500000000     1.007825032070

  Running in c1 symmetry.

  Rotational constants: A =      0.74754  B =      0.02760  C =      0.02695 [cm^-1]
  Rotational constants: A =  22410.72227  B =    827.32481  C =    807.91022 [MHz]
  Nuclear repulsion =  131.107596303761085

  Charge       = 0
  Multiplicity = 1
  Electrons    = 34
  Nalpha       = 17
  Nbeta        = 17

  ==> Algorithm <==

  SCF Algorithm Type is DF.
  DIIS enabled.
  MOM disabled.
  Fractional occupation disabled.
  Guess Type is SAD.
  Energy threshold   = 1.00e-06
  Density threshold  = 1.00e-06
  Integral threshold = 0.00e+00

  ==> Primary Basis <==

  Basis Set: CC-PVDZ
    Blend: CC-PVDZ
    Number of shells: 45
    Number of basis function: 91
    Number of Cartesian functions: 95
    Spherical Harmonics?: true
    Max angular momentum: 2

  ==> DFT Potential <==

   => Composite Functional: B3LYP-D3ZERO <= 

    B3LYP-d3zero Hyb-GGA Exchange-Correlation Functional

    P. J. Stephens, F. J. Devlin, C. F. Chabalowski, and M. J. Frisch, J. Phys. Chem. 98, 11623 (1994)

    Deriv               =              1
    GGA                 =           TRUE
    Meta                =          FALSE

    Exchange Hybrid     =           TRUE
    MP2 Hybrid          =          FALSE

   => Exchange Functionals <=

    0.0800   Slater exchange
    0.7200         Becke 88

   => Exact (HF) Exchange <=

    0.2000               HF 

   => Correlation Functionals <=

    0.1900   Vosko, Wilk & Nusair (VWN5_RPA)
    0.8100   Lee, Yang & Parr

   => Molecular Quadrature <=

    Radial Scheme       =       TREUTLER
    Pruning Scheme      =           FLAT
    Nuclear Scheme      =       TREUTLER

    BS radius alpha     =              1
    Pruning alpha       =              1
    Radial Points       =             75
    Spherical Points    =            302
    Total Points        =         245052
    Total Blocks        =           1913
    Max Points          =            256
    Max Functions       =             91

   => -D3ZERO: Empirical Dispersion <=

    Grimme's -D3 (zero-damping) Dispersion Correction
    Grimme S.; Antony J.; Ehrlich S.; Krieg H. (2010), J. Chem. Phys., 132: 154104

        S6 =   1.000000E+00
        S8 =   1.703000E+00
       SR6 =   1.261000E+00
       SR8 =   1.000000E+00
    ALPHA6 =   1.400000E+01

   => Loading Basis Set <=

    Name: (CC-PVDZ AUX)
    Role: JKFIT
    Keyword: DF_BASIS_SCF
    atoms 1    entry O          line   221 file /shared/joao/test_parameterize/miniconda3/share/psi4/basis/cc-pvdz-jkfit.gbs 
    atoms 2-3  entry C          line   121 file /shared/joao/test_parameterize/miniconda3/share/psi4/basis/cc-pvdz-jkfit.gbs 
    atoms 4    entry N          line   171 file /shared/joao/test_parameterize/miniconda3/share/psi4/basis/cc-pvdz-jkfit.gbs 
    atoms 5-11 entry H          line    51 file /shared/joao/test_parameterize/miniconda3/share/psi4/basis/cc-pvdz-jkfit.gbs 

  ==> Pre-Iterations <==

   -------------------------------------------------------
    Irrep   Nso     Nmo     Nalpha   Nbeta   Ndocc  Nsocc
   -------------------------------------------------------
     A         91      91       0       0       0       0
   -------------------------------------------------------
    Total      91      91      17      17      17       0
   -------------------------------------------------------

  ==> Integral Setup <==

  DFHelper Memory: AOs need 0.036 [GiB]; user supplied 3.486 [GiB]. Using in-core AOs.

  ==> MemDFJK: Density-Fitted J/K Matrices <==

    J tasked:                   Yes
    K tasked:                   Yes
    wK tasked:                   No
    OpenMP threads:               1
    Memory (MB):               3570
    Algorithm:                 Core
    Schwarz Cutoff:           1E-12
    Mask sparsity (%):       0.2415
    Fitting Condition:        1E-12

   => Auxiliary Basis Set <=

  Basis Set: (CC-PVDZ AUX)
    Blend: CC-PVDZ-JKFIT
    Number of shells: 159
    Number of basis function: 441
    Number of Cartesian functions: 499
    Spherical Harmonics?: true
    Max angular momentum: 3

  Minimum eigenvalue in the overlap matrix is 4.3542674156E-03.
  Using Symmetric Orthogonalization.

  SCF Guess: Superposition of Atomic Densities via on-the-fly atomic UHF.

  ==> Iterations <==

                           Total Energy        Delta E     RMS |[F,P]|

   @DF-RKS iter   0:  -210.82815964951482   -2.10828e+02   3.66976e-02 
   @DF-RKS iter   1:  -210.22291591824123    6.05244e-01   6.87089e-03 
   @DF-RKS iter   2:  -210.09056994628872    1.32346e-01   9.32780e-03 DIIS
   @DF-RKS iter   3:  -210.38888635675602   -2.98316e-01   5.74844e-04 DIIS
   @DF-RKS iter   4:  -210.38964942777829   -7.63071e-04   3.42053e-04 DIIS
   @DF-RKS iter   5:  -210.39007747181395   -4.28044e-04   5.34550e-05 DIIS
   @DF-RKS iter   6:  -210.39008527013294   -7.79832e-06   2.53993e-05 DIIS
   @DF-RKS iter   7:  -210.39008754648310   -2.27635e-06   1.91757e-06 DIIS
   @DF-RKS iter   8:  -210.39008756027044   -1.37873e-08   5.51641e-07 DIIS

  ==> Post-Iterations <==

    Orbital Energies [Eh]
    ---------------------

    Doubly Occupied:                                                      

       1A    -19.126736     2A    -14.311961     3A    -10.224026  
       4A    -10.213074     5A     -1.010691     6A     -0.884168  
       7A     -0.712436     8A     -0.619700     9A     -0.501378  
      10A     -0.479568    11A     -0.451753    12A     -0.438085  
      13A     -0.397552    14A     -0.372785    15A     -0.320751  
      16A     -0.261599    17A     -0.239258  

    Virtual:                                                              

      18A      0.047359    19A      0.059686    20A      0.091603  
      21A      0.107011    22A      0.129979    23A      0.147408  
      24A      0.163883    25A      0.206551    26A      0.242146  
      27A      0.256959    28A      0.431515    29A      0.442558  
      30A      0.484457    31A      0.501462    32A      0.568116  
      33A      0.575139    34A      0.593288    35A      0.609093  
      36A      0.633928    37A      0.645662    38A      0.652099  
      39A      0.670717    40A      0.694403    41A      0.812735  
      42A      0.825237    43A      0.845035    44A      0.904889  
      45A      0.957496    46A      1.005882    47A      1.031158  
      48A      1.059878    49A      1.136757    50A      1.208635  
      51A      1.227623    52A      1.237039    53A      1.317801  
      54A      1.372109    55A      1.422278    56A      1.487441  
      57A      1.549930    58A      1.589288    59A      1.615474  
      60A      1.628109    61A      1.645112    62A      1.663260  
      63A      1.705061    64A      1.734349    65A      1.738987  
      66A      1.767838    67A      1.815266    68A      1.839925  
      69A      1.890009    70A      1.939818    71A      1.995782  
      72A      2.014710    73A      2.073614    74A      2.148079  
      75A      2.157512    76A      2.235270    77A      2.277805  
      78A      2.364978    79A      2.388058    80A      2.438156  
      81A      2.493832    82A      2.539473    83A      2.604626  
      84A      2.665855    85A      2.820894    86A      2.955142  
      87A      3.028672    88A      3.043656    89A      3.072215  
      90A      3.262069    91A      3.685598  

    Final Occupation by Irrep:
              A 
    DOCC [    17 ]

  Energy converged.

  @DF-RKS Final Energy:  -210.39008756027044

   => Energetics <=

    Nuclear Repulsion Energy =            131.1075963037610848
    One-Electron Energy =                -544.9813981982167661
    Two-Electron Energy =                 226.9762651946256540
    DFT Exchange-Correlation Energy =     -23.4874116304403877
    Empirical Dispersion Energy =          -0.0051392300000000
    VV10 Nonlocal Energy =                  0.0000000000000000
    Total Energy =                       -210.3900875602704446



Properties will be evaluated at   0.000000,   0.000000,   0.000000 [a0]

Properties computed using the SCF density matrix

  Nuclear Dipole Moment: [e a0]
     X:   177.0327      Y:   -34.3903      Z:   -35.2389

  Electronic Dipole Moment: [e a0]
     X:  -176.7523      Y:    33.9307      Z:    34.4692

  Dipole Moment: [e a0]
     X:     0.2804      Y:    -0.4596      Z:    -0.7697     Total:     0.9393

  Dipole Moment: [D]
     X:     0.7128      Y:    -1.1681      Z:    -1.9563     Total:     2.3874


*** tstop() called on loro.prib.upf.edu at Sat Sep 29 17:11:01 2018
Module time:
	user time   =      15.50 seconds =       0.26 minutes
	system time =       0.23 seconds =       0.00 minutes
	total time  =         18 seconds =       0.30 minutes
Total time:
	user time   =      15.50 seconds =       0.26 minutes
	system time =       0.23 seconds =       0.00 minutes
	total time  =         18 seconds =       0.30 minutes


Properties will be evaluated at   0.000000,   0.000000,   0.000000 [a0]
OEProp: No title given, name of density matrix used for the following properties is 'SCF density'
  Nuclear Dipole Moment: [e a0]
     X:   177.0327      Y:   -34.3903      Z:   -35.2389

  Electronic Dipole Moment: [e a0]
     X:  -176.7523      Y:    33.9307      Z:    34.4692

  Dipole Moment: [e a0]
     X:     0.2804      Y:    -0.4596      Z:    -0.7697     Total:     0.9393

  Dipole Moment: [D]
     X:     0.7128      Y:    -1.1681      Z:    -1.9563     Total:     2.3874

  Quadrupole Moment: [D A]
    XX:   -23.9787     YY:   -23.2880     ZZ:   -22.8722
    XY:     0.0237     XZ:    -7.0063     YZ:     2.0788

  Traceless Quadrupole Moment: [D A]
    XX:    -0.5991     YY:     0.0917     ZZ:     0.5075
    XY:     0.0237     XZ:    -7.0063     YZ:     2.0788

  Mulliken Charges: (a.u.)
   Center  Symbol    Alpha    Beta     Spin     Total
       1     O     4.13797  4.13797  0.00000 -0.27594
       2     C     2.91325  2.91325  0.00000  0.17351
       3     C     3.01249  3.01249  0.00000 -0.02497
       4     N     3.58899  3.58899  0.00000 -0.17799
       5     H     0.43266  0.43266  0.00000  0.13468
       6     H     0.49390  0.49390  0.00000  0.01220
       7     H     0.49792  0.49792  0.00000  0.00416
       8     H     0.50290  0.50290  0.00000 -0.00581
       9     H     0.49273  0.49273  0.00000  0.01454
      10     H     0.46343  0.46343  0.00000  0.07314
      11     H     0.46376  0.46376  0.00000  0.07248

   Total alpha = 17.00000, Total beta = 17.00000, Total charge = -0.00000


    Psi4 stopped on: Saturday, 29 September 2018 05:11PM
    Psi4 wall time for execution: 0:00:17.68

*** Psi4 exiting successfully. Buy a developer a beer!
