
    -----------------------------------------------------------------------
          Psi4: An Open-Source Ab Initio Electronic Structure Package
                               Psi4 1.2.1 release

                         Git: Rev {HEAD} 406f4de 


    R. M. Parrish, L. A. Burns, D. G. A. Smith, A. C. Simmonett,
    A. E. DePrince III, E. G. Hohenstein, U. Bozkaya, A. Yu. Sokolov,
    R. Di Remigio, R. M. Richard, J. F. Gonthier, A. M. James,
    H. R. McAlexander, A. Kumar, M. Saitow, X. Wang, B. P. Pritchard,
    P. Verma, H. F. Schaefer III, K. Patkowski, R. A. King, E. F. Valeev,
    F. A. Evangelista, J. M. Turney, T. D. Crawford, and C. D. Sherrill,
    J. Chem. Theory Comput. 13(7) pp 3185--3197 (2017).
    (doi: 10.1021/acs.jctc.7b00174)


                         Additional Contributions by
    P. Kraus, H. Kruse, M. H. Lechner, M. C. Schieber, and R. A. Shaw

    -----------------------------------------------------------------------


    Psi4 started on: Saturday, 29 September 2018 04:50PM

    Process ID: 5429
    Host:       loro.prib.upf.edu
    PSIDATADIR: /shared/joao/test_parameterize/miniconda3/share/psi4
    Memory:     500.0 MiB
    Threads:    1
    
  ==> Input File <==

--------------------------------------------------------------------------
set_num_threads(1)
set_memory('5348 MB')

set { scf_mem_safety_factor 0.7 }

set { reference rks }
set { basis cc-pVDZ }

molecule MOL {
    0 1
    noreorient
    nocom
    symmetry c1
    O    1.141000   0.017000   0.083000
    C    2.558000   0.086000  -0.005000
    C    3.192000  -0.789000   1.067000
    O    4.610000  -0.719000   0.979000
    H    0.789000   0.590000  -0.620000
    H    2.874000   1.128000   0.115000
    H    2.871000  -0.243000  -1.001000
    H    2.876000  -1.830000   0.947000
    H    2.879000  -0.459000   2.064000
    H    4.840603   0.225923   0.950207
}

set optking { frozen_dihedral = (" 2 3 4 10 ") }

energy, wfn = energy('B3LYP-D3', return_wfn=True)

import os
os.chdir(os.environ['HTMD_PSI4_WORKDIR'])

oeprop(wfn, 'DIPOLE', 'QUADRUPOLE', 'MULLIKEN_CHARGES')

with open('psi4out.xyz', 'w') as f:
    f.write('10 ' )
    f.write('%.12f\n' % energy)
    f.write(MOL.save_string_xyz())
--------------------------------------------------------------------------
  Threads set to 1 by Python driver.

  Memory set to   4.981 GiB by Python driver.

*** tstart() called on loro.prib.upf.edu
*** at Sat Sep 29 16:50:25 2018

   => Loading Basis Set <=

    Name: CC-PVDZ
    Role: ORBITAL
    Keyword: BASIS
    atoms 1, 4 entry O          line   198 file /shared/joao/test_parameterize/miniconda3/share/psi4/basis/cc-pvdz.gbs 
    atoms 2-3  entry C          line   138 file /shared/joao/test_parameterize/miniconda3/share/psi4/basis/cc-pvdz.gbs 
    atoms 5-10 entry H          line    22 file /shared/joao/test_parameterize/miniconda3/share/psi4/basis/cc-pvdz.gbs 


         ---------------------------------------------------------
                                   SCF
            by Justin Turney, Rob Parrish, Andy Simmonett
                             and Daniel Smith
                              RKS Reference
                        1 Threads,   5100 MiB Core
         ---------------------------------------------------------

  ==> Geometry <==

    Molecular point group: c1
    Full point group: C1

    Geometry (in Angstrom), charge = 0, multiplicity = 1:

       Center              X                  Y                   Z               Mass       
    ------------   -----------------  -----------------  -----------------  -----------------
         O            1.141000000000     0.017000000000     0.083000000000    15.994914619560
         C            2.558000000000     0.086000000000    -0.005000000000    12.000000000000
         C            3.192000000000    -0.789000000000     1.067000000000    12.000000000000
         O            4.610000000000    -0.719000000000     0.979000000000    15.994914619560
         H            0.789000000000     0.590000000000    -0.620000000000     1.007825032070
         H            2.874000000000     1.128000000000     0.115000000000     1.007825032070
         H            2.871000000000    -0.243000000000    -1.001000000000     1.007825032070
         H            2.876000000000    -1.830000000000     0.947000000000     1.007825032070
         H            2.879000000000    -0.459000000000     2.064000000000     1.007825032070
         H            4.840603000000     0.225923000000     0.950207000000     1.007825032070

  Running in c1 symmetry.

  Rotational constants: A =      0.81903  B =      0.02555  C =      0.02504 [cm^-1]
  Rotational constants: A =  24554.00362  B =    765.82802  C =    750.63055 [MHz]
  Nuclear repulsion =  129.963579220522547

  Charge       = 0
  Multiplicity = 1
  Electrons    = 34
  Nalpha       = 17
  Nbeta        = 17

  ==> Algorithm <==

  SCF Algorithm Type is DF.
  DIIS enabled.
  MOM disabled.
  Fractional occupation disabled.
  Guess Type is SAD.
  Energy threshold   = 1.00e-06
  Density threshold  = 1.00e-06
  Integral threshold = 0.00e+00

  ==> Primary Basis <==

  Basis Set: CC-PVDZ
    Blend: CC-PVDZ
    Number of shells: 42
    Number of basis function: 86
    Number of Cartesian functions: 90
    Spherical Harmonics?: true
    Max angular momentum: 2

  ==> DFT Potential <==

   => Composite Functional: B3LYP-D3ZERO <= 

    B3LYP-d3zero Hyb-GGA Exchange-Correlation Functional

    P. J. Stephens, F. J. Devlin, C. F. Chabalowski, and M. J. Frisch, J. Phys. Chem. 98, 11623 (1994)

    Deriv               =              1
    GGA                 =           TRUE
    Meta                =          FALSE

    Exchange Hybrid     =           TRUE
    MP2 Hybrid          =          FALSE

   => Exchange Functionals <=

    0.0800   Slater exchange
    0.7200         Becke 88

   => Exact (HF) Exchange <=

    0.2000               HF 

   => Correlation Functionals <=

    0.1900   Vosko, Wilk & Nusair (VWN5_RPA)
    0.8100   Lee, Yang & Parr

   => Molecular Quadrature <=

    Radial Scheme       =       TREUTLER
    Pruning Scheme      =           FLAT
    Nuclear Scheme      =       TREUTLER

    BS radius alpha     =              1
    Pruning alpha       =              1
    Radial Points       =             75
    Spherical Points    =            302
    Total Points        =         222536
    Total Blocks        =           1753
    Max Points          =            256
    Max Functions       =             86

   => -D3ZERO: Empirical Dispersion <=

    Grimme's -D3 (zero-damping) Dispersion Correction
    Grimme S.; Antony J.; Ehrlich S.; Krieg H. (2010), J. Chem. Phys., 132: 154104

        S6 =   1.000000E+00
        S8 =   1.703000E+00
       SR6 =   1.261000E+00
       SR8 =   1.000000E+00
    ALPHA6 =   1.400000E+01

   => Loading Basis Set <=

    Name: (CC-PVDZ AUX)
    Role: JKFIT
    Keyword: DF_BASIS_SCF
    atoms 1, 4 entry O          line   221 file /shared/joao/test_parameterize/miniconda3/share/psi4/basis/cc-pvdz-jkfit.gbs 
    atoms 2-3  entry C          line   121 file /shared/joao/test_parameterize/miniconda3/share/psi4/basis/cc-pvdz-jkfit.gbs 
    atoms 5-10 entry H          line    51 file /shared/joao/test_parameterize/miniconda3/share/psi4/basis/cc-pvdz-jkfit.gbs 

  ==> Pre-Iterations <==

   -------------------------------------------------------
    Irrep   Nso     Nmo     Nalpha   Nbeta   Ndocc  Nsocc
   -------------------------------------------------------
     A         86      86       0       0       0       0
   -------------------------------------------------------
    Total      86      86      17      17      17       0
   -------------------------------------------------------

  ==> Integral Setup <==

  DFHelper Memory: AOs need 0.030 [GiB]; user supplied 3.486 [GiB]. Using in-core AOs.

  ==> MemDFJK: Density-Fitted J/K Matrices <==

    J tasked:                   Yes
    K tasked:                   Yes
    wK tasked:                   No
    OpenMP threads:               1
    Memory (MB):               3570
    Algorithm:                 Core
    Schwarz Cutoff:           1E-12
    Mask sparsity (%):       0.2704
    Fitting Condition:        1E-12

   => Auxiliary Basis Set <=

  Basis Set: (CC-PVDZ AUX)
    Blend: CC-PVDZ-JKFIT
    Number of shells: 150
    Number of basis function: 418
    Number of Cartesian functions: 474
    Spherical Harmonics?: true
    Max angular momentum: 3

  Minimum eigenvalue in the overlap matrix is 5.0702857688E-03.
  Using Symmetric Orthogonalization.

  SCF Guess: Superposition of Atomic Densities via on-the-fly atomic UHF.

  ==> Iterations <==

                           Total Energy        Delta E     RMS |[F,P]|

   @DF-RKS iter   0:  -231.04833689311192   -2.31048e+02   4.14258e-02 
   @DF-RKS iter   1:  -230.19287708297009    8.55460e-01   4.67113e-03 
   @DF-RKS iter   2:  -230.16196103511012    3.09160e-02   5.98674e-03 DIIS
   @DF-RKS iter   3:  -230.25688658087313   -9.49255e-02   6.93393e-04 DIIS
   @DF-RKS iter   4:  -230.25817877538415   -1.29219e-03   2.13609e-04 DIIS
   @DF-RKS iter   5:  -230.25833849915074   -1.59724e-04   4.84611e-05 DIIS
   @DF-RKS iter   6:  -230.25834662022564   -8.12107e-06   6.87616e-06 DIIS
   @DF-RKS iter   7:  -230.25834670666845   -8.64428e-08   4.27941e-06 DIIS
   @DF-RKS iter   8:  -230.25834675519138   -4.85229e-08   4.62130e-07 DIIS

  ==> Post-Iterations <==

    Orbital Energies [Eh]
    ---------------------

    Doubly Occupied:                                                      

       1A    -19.135824     2A    -19.134611     3A    -10.231356  
       4A    -10.227237     5A     -1.023268     6A     -1.011577  
       7A     -0.732209     8A     -0.620182     9A     -0.518394  
      10A     -0.495066    11A     -0.460032    12A     -0.428220  
      13A     -0.398556    14A     -0.348101    15A     -0.324317  
      16A     -0.269568    17A     -0.268209  

    Virtual:                                                              

      18A      0.043492    19A      0.050309    20A      0.101444  
      21A      0.114491    22A      0.127368    23A      0.164379  
      24A      0.193366    25A      0.233273    26A      0.247338  
      27A      0.434970    28A      0.441520    29A      0.498245  
      30A      0.517395    31A      0.550689    32A      0.573075  
      33A      0.600466    34A      0.623433    35A      0.636838  
      36A      0.651719    37A      0.668377    38A      0.679000  
      39A      0.876636    40A      0.893195    41A      0.905443  
      42A      0.972878    43A      1.019003    44A      1.052821  
      45A      1.058039    46A      1.127240    47A      1.190758  
      48A      1.205567    49A      1.245467    50A      1.331703  
      51A      1.340824    52A      1.387260    53A      1.464932  
      54A      1.520678    55A      1.594051    56A      1.621043  
      57A      1.647051    58A      1.650309    59A      1.671113  
      60A      1.681630    61A      1.726888    62A      1.776381  
      63A      1.831335    64A      1.854643    65A      1.907741  
      66A      2.000378    67A      2.004279    68A      2.046714  
      69A      2.109350    70A      2.132723    71A      2.239483  
      72A      2.289517    73A      2.406164    74A      2.447441  
      75A      2.467842    76A      2.516449    77A      2.916243  
      78A      2.948380    79A      2.980189    80A      3.006571  
      81A      3.080135    82A      3.104840    83A      3.185962  
      84A      3.246360    85A      3.671018    86A      3.688780  

    Final Occupation by Irrep:
              A 
    DOCC [    17 ]

  Energy converged.

  @DF-RKS Final Energy:  -230.25834675519138

   => Energetics <=

    Nuclear Repulsion Energy =            129.9635792205225471
    One-Electron Energy =                -571.5578797303417105
    Two-Electron Energy =                 235.8785275589888784
    DFT Exchange-Correlation Energy =     -24.5379260143611155
    Empirical Dispersion Energy =          -0.0046477900000000
    VV10 Nonlocal Energy =                  0.0000000000000000
    Total Energy =                       -230.2583467551914111



Properties will be evaluated at   0.000000,   0.000000,   0.000000 [a0]

Properties computed using the SCF density matrix

  Nuclear Dipole Moment: [e a0]
     X:   184.5083      Y:   -19.6949      Z:    32.7361

  Electronic Dipole Moment: [e a0]
     X:  -184.6219      Y:    20.5180      Z:   -33.1618

  Dipole Moment: [e a0]
     X:    -0.1136      Y:     0.8231      Z:    -0.4257     Total:     0.9336

  Dipole Moment: [D]
     X:    -0.2887      Y:     2.0921      Z:    -1.0821     Total:     2.3730


*** tstop() called on loro.prib.upf.edu at Sat Sep 29 16:50:40 2018
Module time:
	user time   =      12.88 seconds =       0.21 minutes
	system time =       0.22 seconds =       0.00 minutes
	total time  =         15 seconds =       0.25 minutes
Total time:
	user time   =      12.88 seconds =       0.21 minutes
	system time =       0.22 seconds =       0.00 minutes
	total time  =         15 seconds =       0.25 minutes


Properties will be evaluated at   0.000000,   0.000000,   0.000000 [a0]
OEProp: No title given, name of density matrix used for the following properties is 'SCF density'
  Nuclear Dipole Moment: [e a0]
     X:   184.5083      Y:   -19.6949      Z:    32.7361

  Electronic Dipole Moment: [e a0]
     X:  -184.6219      Y:    20.5180      Z:   -33.1618

  Dipole Moment: [e a0]
     X:    -0.1136      Y:     0.8231      Z:    -0.4257     Total:     0.9336

  Dipole Moment: [D]
     X:    -0.2887      Y:     2.0921      Z:    -1.0821     Total:     2.3730

  Quadrupole Moment: [D A]
    XX:   -29.0470     YY:   -24.1981     ZZ:   -24.2239
    XY:     7.6774     XZ:    -1.3286     YZ:     0.4286

  Traceless Quadrupole Moment: [D A]
    XX:    -3.2240     YY:     1.6249     ZZ:     1.5991
    XY:     7.6774     XZ:    -1.3286     YZ:     0.4286

  Mulliken Charges: (a.u.)
   Center  Symbol    Alpha    Beta     Spin     Total
       1     O     4.13866  4.13866  0.00000 -0.27731
       2     C     2.95094  2.95094  0.00000  0.09812
       3     C     2.92456  2.92456  0.00000  0.15088
       4     O     4.13867  4.13867  0.00000 -0.27735
       5     H     0.42810  0.42810  0.00000  0.14380
       6     H     0.50683  0.50683  0.00000 -0.01366
       7     H     0.49786  0.49786  0.00000  0.00427
       8     H     0.48590  0.48590  0.00000  0.02820
       9     H     0.49680  0.49680  0.00000  0.00640
      10     H     0.43167  0.43167  0.00000  0.13666

   Total alpha = 17.00000, Total beta = 17.00000, Total charge = -0.00000


    Psi4 stopped on: Saturday, 29 September 2018 04:50PM
    Psi4 wall time for execution: 0:00:15.43

*** Psi4 exiting successfully. Buy a developer a beer!
