
    -----------------------------------------------------------------------
          Psi4: An Open-Source Ab Initio Electronic Structure Package
                               Psi4 1.2.1 release

                         Git: Rev {HEAD} 406f4de 


    R. M. Parrish, L. A. Burns, D. G. A. Smith, A. C. Simmonett,
    A. E. DePrince III, E. G. Hohenstein, U. Bozkaya, A. Yu. Sokolov,
    R. Di Remigio, R. M. Richard, J. F. Gonthier, A. M. James,
    H. R. McAlexander, A. Kumar, M. Saitow, X. Wang, B. P. Pritchard,
    P. Verma, H. F. Schaefer III, K. Patkowski, R. A. King, E. F. Valeev,
    F. A. Evangelista, J. M. Turney, T. D. Crawford, and C. D. Sherrill,
    J. Chem. Theory Comput. 13(7) pp 3185--3197 (2017).
    (doi: 10.1021/acs.jctc.7b00174)


                         Additional Contributions by
    P. Kraus, H. Kruse, M. H. Lechner, M. C. Schieber, and R. A. Shaw

    -----------------------------------------------------------------------


    Psi4 started on: Saturday, 29 September 2018 04:27PM

    Process ID: 26474
    Host:       loro.prib.upf.edu
    PSIDATADIR: /shared/joao/test_parameterize/miniconda3/share/psi4
    Memory:     500.0 MiB
    Threads:    1
    
  ==> Input File <==

--------------------------------------------------------------------------
set_num_threads(1)
set_memory('5348 MB')

set { scf_mem_safety_factor 0.7 }

set { reference rks }
set { basis cc-pVDZ }

molecule MOL {
    0 1
    noreorient
    nocom
    symmetry c1
    O    1.014300  -0.002300   0.060500
    O    2.462400  -0.107500  -0.002400
    H    0.821200  -0.823600  -0.430600
    H    2.654257   0.614709   0.625646
}

set optking { frozen_dihedral = (" 3 1 2 4 ") }

energy, wfn = energy('B3LYP-D3', return_wfn=True)

import os
os.chdir(os.environ['HTMD_PSI4_WORKDIR'])

oeprop(wfn, 'DIPOLE', 'QUADRUPOLE', 'MULLIKEN_CHARGES')

with open('psi4out.xyz', 'w') as f:
    f.write('4 ' )
    f.write('%.12f\n' % energy)
    f.write(MOL.save_string_xyz())
--------------------------------------------------------------------------
  Threads set to 1 by Python driver.

  Memory set to   4.981 GiB by Python driver.

*** tstart() called on loro.prib.upf.edu
*** at Sat Sep 29 16:27:10 2018

   => Loading Basis Set <=

    Name: CC-PVDZ
    Role: ORBITAL
    Keyword: BASIS
    atoms 1-2 entry O          line   198 file /shared/joao/test_parameterize/miniconda3/share/psi4/basis/cc-pvdz.gbs 
    atoms 3-4 entry H          line    22 file /shared/joao/test_parameterize/miniconda3/share/psi4/basis/cc-pvdz.gbs 


         ---------------------------------------------------------
                                   SCF
            by Justin Turney, Rob Parrish, Andy Simmonett
                             and Daniel Smith
                              RKS Reference
                        1 Threads,   5100 MiB Core
         ---------------------------------------------------------

  ==> Geometry <==

    Molecular point group: c1
    Full point group: C1

    Geometry (in Angstrom), charge = 0, multiplicity = 1:

       Center              X                  Y                   Z               Mass       
    ------------   -----------------  -----------------  -----------------  -----------------
         O            1.014300000000    -0.002300000000     0.060500000000    15.994914619560
         O            2.462400000000    -0.107500000000    -0.002400000000    15.994914619560
         H            0.821200000000    -0.823600000000    -0.430600000000     1.007825032070
         H            2.654257000000     0.614709000000     0.625646000000     1.007825032070

  Running in c1 symmetry.

  Rotational constants: A =      9.58514  B =      0.13889  C =      0.13696 [cm^-1]
  Rotational constants: A = 287355.28987  B =   4163.77250  C =   4105.99111 [MHz]
  Nuclear repulsion =   36.783244594032318

  Charge       = 0
  Multiplicity = 1
  Electrons    = 18
  Nalpha       = 9
  Nbeta        = 9

  ==> Algorithm <==

  SCF Algorithm Type is DF.
  DIIS enabled.
  MOM disabled.
  Fractional occupation disabled.
  Guess Type is SAD.
  Energy threshold   = 1.00e-06
  Density threshold  = 1.00e-06
  Integral threshold = 0.00e+00

  ==> Primary Basis <==

  Basis Set: CC-PVDZ
    Blend: CC-PVDZ
    Number of shells: 18
    Number of basis function: 38
    Number of Cartesian functions: 40
    Spherical Harmonics?: true
    Max angular momentum: 2

  ==> DFT Potential <==

   => Composite Functional: B3LYP-D3ZERO <= 

    B3LYP-d3zero Hyb-GGA Exchange-Correlation Functional

    P. J. Stephens, F. J. Devlin, C. F. Chabalowski, and M. J. Frisch, J. Phys. Chem. 98, 11623 (1994)

    Deriv               =              1
    GGA                 =           TRUE
    Meta                =          FALSE

    Exchange Hybrid     =           TRUE
    MP2 Hybrid          =          FALSE

   => Exchange Functionals <=

    0.0800   Slater exchange
    0.7200         Becke 88

   => Exact (HF) Exchange <=

    0.2000               HF 

   => Correlation Functionals <=

    0.1900   Vosko, Wilk & Nusair (VWN5_RPA)
    0.8100   Lee, Yang & Parr

   => Molecular Quadrature <=

    Radial Scheme       =       TREUTLER
    Pruning Scheme      =           FLAT
    Nuclear Scheme      =       TREUTLER

    BS radius alpha     =              1
    Pruning alpha       =              1
    Radial Points       =             75
    Spherical Points    =            302
    Total Points        =          88340
    Total Blocks        =            724
    Max Points          =            255
    Max Functions       =             38

   => -D3ZERO: Empirical Dispersion <=

    Grimme's -D3 (zero-damping) Dispersion Correction
    Grimme S.; Antony J.; Ehrlich S.; Krieg H. (2010), J. Chem. Phys., 132: 154104

        S6 =   1.000000E+00
        S8 =   1.703000E+00
       SR6 =   1.261000E+00
       SR8 =   1.000000E+00
    ALPHA6 =   1.400000E+01

   => Loading Basis Set <=

    Name: (CC-PVDZ AUX)
    Role: JKFIT
    Keyword: DF_BASIS_SCF
    atoms 1-2 entry O          line   221 file /shared/joao/test_parameterize/miniconda3/share/psi4/basis/cc-pvdz-jkfit.gbs 
    atoms 3-4 entry H          line    51 file /shared/joao/test_parameterize/miniconda3/share/psi4/basis/cc-pvdz-jkfit.gbs 

  ==> Pre-Iterations <==

   -------------------------------------------------------
    Irrep   Nso     Nmo     Nalpha   Nbeta   Ndocc  Nsocc
   -------------------------------------------------------
     A         38      38       0       0       0       0
   -------------------------------------------------------
    Total      38      38       9       9       9       0
   -------------------------------------------------------

  ==> Integral Setup <==

  DFHelper Memory: AOs need 0.003 [GiB]; user supplied 3.486 [GiB]. Using in-core AOs.

  ==> MemDFJK: Density-Fitted J/K Matrices <==

    J tasked:                   Yes
    K tasked:                   Yes
    wK tasked:                   No
    OpenMP threads:               1
    Memory (MB):               3570
    Algorithm:                 Core
    Schwarz Cutoff:           1E-12
    Mask sparsity (%):       0.0000
    Fitting Condition:        1E-12

   => Auxiliary Basis Set <=

  Basis Set: (CC-PVDZ AUX)
    Blend: CC-PVDZ-JKFIT
    Number of shells: 66
    Number of basis function: 186
    Number of Cartesian functions: 212
    Spherical Harmonics?: true
    Max angular momentum: 3

  Minimum eigenvalue in the overlap matrix is 2.3907746497E-02.
  Using Symmetric Orthogonalization.

  SCF Guess: Superposition of Atomic Densities via on-the-fly atomic UHF.

  ==> Iterations <==

                           Total Energy        Delta E     RMS |[F,P]|

   @DF-RKS iter   0:  -151.58431358455010   -1.51584e+02   4.82643e-02 
   @DF-RKS iter   1:  -151.52331516450269    6.09984e-02   6.90237e-03 
   @DF-RKS iter   2:  -151.52540113263873   -2.08597e-03   6.78279e-03 DIIS
   @DF-RKS iter   3:  -151.54942270252579   -2.40216e-02   7.85196e-04 DIIS
   @DF-RKS iter   4:  -151.54972288705582   -3.00185e-04   1.14930e-04 DIIS
   @DF-RKS iter   5:  -151.54972158583445    1.30122e-06   1.30424e-04 DIIS
   @DF-RKS iter   6:  -151.54973047767186   -8.89184e-06   1.08074e-05 DIIS
   @DF-RKS iter   7:  -151.54973054899204   -7.13202e-08   9.61202e-07 DIIS

  ==> Post-Iterations <==

    Orbital Energies [Eh]
    ---------------------

    Doubly Occupied:                                                      

       1A    -19.185416     2A    -19.185376     3A     -1.109401  
       4A     -0.886445     5A     -0.503655     6A     -0.494418  
       7A     -0.391130     8A     -0.355852     9A     -0.242581  

    Virtual:                                                              

      10A      0.026688    11A      0.051510    12A      0.105602  
      13A      0.573380    14A      0.577156    15A      0.844434  
      16A      0.847964    17A      0.870422    18A      0.978334  
      19A      0.993874    20A      1.070551    21A      1.269362  
      22A      1.318276    23A      1.319159    24A      1.475950  
      25A      1.653425    26A      1.796821    27A      2.042315  
      28A      2.107503    29A      2.300694    30A      2.384940  
      31A      2.656237    32A      2.861963    33A      2.930410  
      34A      2.991363    35A      3.167030    36A      3.513745  
      37A      3.514754    38A      3.840551  

    Final Occupation by Irrep:
              A 
    DOCC [     9 ]

  Energy converged.

  @DF-RKS Final Energy:  -151.54973054899204

   => Energetics <=

    Nuclear Repulsion Energy =             36.7832445940323183
    One-Electron Energy =                -281.5722871009452319
    Two-Electron Energy =                 107.7029584063068057
    DFT Exchange-Correlation Energy =     -14.4633269583859274
    Empirical Dispersion Energy =          -0.0003194900000000
    VV10 Nonlocal Energy =                  0.0000000000000000
    Total Energy =                       -151.5497305489920450



Properties will be evaluated at   0.000000,   0.000000,   0.000000 [a0]

Properties computed using the SCF density matrix

  Nuclear Dipole Moment: [e a0]
     X:    59.1277      Y:    -2.0547      Z:     1.2469

  Electronic Dipole Moment: [e a0]
     X:   -59.1286      Y:     1.9866      Z:    -1.1527

  Dipole Moment: [e a0]
     X:    -0.0009      Y:    -0.0681      Z:     0.0942     Total:     0.1162

  Dipole Moment: [D]
     X:    -0.0022      Y:    -0.1731      Z:     0.2394     Total:     0.2955


*** tstop() called on loro.prib.upf.edu at Sat Sep 29 16:27:15 2018
Module time:
	user time   =       2.51 seconds =       0.04 minutes
	system time =       0.08 seconds =       0.00 minutes
	total time  =          5 seconds =       0.08 minutes
Total time:
	user time   =       2.51 seconds =       0.04 minutes
	system time =       0.08 seconds =       0.00 minutes
	total time  =          5 seconds =       0.08 minutes


Properties will be evaluated at   0.000000,   0.000000,   0.000000 [a0]
OEProp: No title given, name of density matrix used for the following properties is 'SCF density'
  Nuclear Dipole Moment: [e a0]
     X:    59.1277      Y:    -2.0547      Z:     1.2469

  Electronic Dipole Moment: [e a0]
     X:   -59.1286      Y:     1.9866      Z:    -1.1527

  Dipole Moment: [e a0]
     X:    -0.0009      Y:    -0.0681      Z:     0.0942     Total:     0.1162

  Dipole Moment: [D]
     X:    -0.0022      Y:    -0.1731      Z:     0.2394     Total:     0.2955

  Quadrupole Moment: [D A]
    XX:   -10.7811     YY:    -9.7525     ZZ:   -10.9327
    XY:     2.4741     XZ:     2.4358     YZ:     1.8409

  Traceless Quadrupole Moment: [D A]
    XX:    -0.2923     YY:     0.7363     ZZ:    -0.4440
    XY:     2.4741     XZ:     2.4358     YZ:     1.8409

  Mulliken Charges: (a.u.)
   Center  Symbol    Alpha    Beta     Spin     Total
       1     O     4.09131  4.09131  0.00000 -0.18263
       2     O     4.09129  4.09129  0.00000 -0.18259
       3     H     0.40869  0.40869  0.00000  0.18263
       4     H     0.40871  0.40871  0.00000  0.18259

   Total alpha =  9.00000, Total beta =  9.00000, Total charge = -0.00000


    Psi4 stopped on: Saturday, 29 September 2018 04:27PM
    Psi4 wall time for execution: 0:00:04.31

*** Psi4 exiting successfully. Buy a developer a beer!
