
    -----------------------------------------------------------------------
          Psi4: An Open-Source Ab Initio Electronic Structure Package
                               Psi4 1.2.1 release

                         Git: Rev {HEAD} 406f4de 


    R. M. Parrish, L. A. Burns, D. G. A. Smith, A. C. Simmonett,
    A. E. DePrince III, E. G. Hohenstein, U. Bozkaya, A. Yu. Sokolov,
    R. Di Remigio, R. M. Richard, J. F. Gonthier, A. M. James,
    H. R. McAlexander, A. Kumar, M. Saitow, X. Wang, B. P. Pritchard,
    P. Verma, H. F. Schaefer III, K. Patkowski, R. A. King, E. F. Valeev,
    F. A. Evangelista, J. M. Turney, T. D. Crawford, and C. D. Sherrill,
    J. Chem. Theory Comput. 13(7) pp 3185--3197 (2017).
    (doi: 10.1021/acs.jctc.7b00174)


                         Additional Contributions by
    P. Kraus, H. Kruse, M. H. Lechner, M. C. Schieber, and R. A. Shaw

    -----------------------------------------------------------------------


    Psi4 started on: Saturday, 29 September 2018 08:24PM

    Process ID: 2124
    Host:       rosa.prib.upf.edu
    PSIDATADIR: /shared/joao/test_parameterize/miniconda3/share/psi4
    Memory:     500.0 MiB
    Threads:    1
    
  ==> Input File <==

--------------------------------------------------------------------------
set_num_threads(4)
set_memory('3000 MB')

set { scf_mem_safety_factor 0.7 }

set { reference rks }
set { basis 6-31G* }

molecule MOL {
    1 1
    noreorient
    nocom
    symmetry c1
    C   -0.000000  -0.000000  -0.177864
    C    0.036678   1.219374   0.524165
    C    0.031765   1.213120   1.915444
    C    0.000000   0.000000   2.610107
    C   -0.031765  -1.213120   1.915444
    C   -0.036678  -1.219375   0.524165
    C   -0.000000   0.000000  -1.644734
    H    0.018170   2.164705  -0.010854
    H    0.042402   2.152895   2.457886
    H    0.000000   0.000000   3.695756
    H   -0.042402  -2.152895   2.457886
    H   -0.018170  -2.164705  -0.010853
    N   -0.712590  -0.905950  -2.308461
    N    0.712590   0.905950  -2.308460
    H    0.673432   1.006470  -3.315997
    H    1.377190   1.485970  -1.813316
    H   -0.427399  -1.876454  -2.300041
    H   -1.581647  -0.684645  -2.780192
}

set optking { frozen_dihedral = (" 1 7 13 17 ") }

set optking { dynamic_level = 1 
 geom_maxiter = 250
 print_trajectory_xyz_file = True }

energy, wfn = optimize('B3LYP-D3', return_wfn=True)

import os
os.chdir(os.environ['HTMD_PSI4_WORKDIR'])

oeprop(wfn, 'DIPOLE', 'QUADRUPOLE', 'MULLIKEN_CHARGES')

with open('psi4out.xyz', 'w') as f:
    f.write('18 ' )
    f.write('%.12f\n' % energy)
    f.write(MOL.save_string_xyz())
--------------------------------------------------------------------------
  Threads set to 4 by Python driver.

  Memory set to   2.794 GiB by Python driver.
gradient() will perform analytic gradient computation.

*** tstart() called on rosa.prib.upf.edu
*** at Sat Sep 29 20:24:38 2018

   => Loading Basis Set <=

    Name: 6-31G*
    Role: ORBITAL
    Keyword: BASIS
    atoms 1-7         entry C          line   111 file /shared/joao/test_parameterize/miniconda3/share/psi4/basis/6-31gs.gbs 
    atoms 8-12, 15-18 entry H          line    44 file /shared/joao/test_parameterize/miniconda3/share/psi4/basis/6-31gs.gbs 
    atoms 13-14       entry N          line   128 file /shared/joao/test_parameterize/miniconda3/share/psi4/basis/6-31gs.gbs 


         ---------------------------------------------------------
                                   SCF
            by Justin Turney, Rob Parrish, Andy Simmonett
                             and Daniel Smith
                              RKS Reference
                        4 Threads,   2861 MiB Core
         ---------------------------------------------------------

  ==> Geometry <==

    Molecular point group: c1
    Full point group: C1

    Geometry (in Angstrom), charge = 1, multiplicity = 1:

       Center              X                  Y                   Z               Mass       
    ------------   -----------------  -----------------  -----------------  -----------------
         C            0.000000000000     0.000000000000    -0.177864000000    12.000000000000
         C            0.036678000000     1.219374000000     0.524165000000    12.000000000000
         C            0.031765000000     1.213120000000     1.915444000000    12.000000000000
         C            0.000000000000     0.000000000000     2.610107000000    12.000000000000
         C           -0.031765000000    -1.213120000000     1.915444000000    12.000000000000
         C           -0.036678000000    -1.219375000000     0.524165000000    12.000000000000
         C            0.000000000000     0.000000000000    -1.644734000000    12.000000000000
         H            0.018170000000     2.164705000000    -0.010854000000     1.007825032070
         H            0.042402000000     2.152895000000     2.457886000000     1.007825032070
         H            0.000000000000     0.000000000000     3.695756000000     1.007825032070
         H           -0.042402000000    -2.152895000000     2.457886000000     1.007825032070
         H           -0.018170000000    -2.164705000000    -0.010853000000     1.007825032070
         N           -0.712590000000    -0.905950000000    -2.308461000000    14.003074004780
         N            0.712590000000     0.905950000000    -2.308460000000    14.003074004780
         H            0.673432000000     1.006470000000    -3.315997000000     1.007825032070
         H            1.377190000000     1.485970000000    -1.813316000000     1.007825032070
         H           -0.427399000000    -1.876454000000    -2.300041000000     1.007825032070
         H           -1.581647000000    -0.684645000000    -2.780192000000     1.007825032070

  Running in c1 symmetry.

  Rotational constants: A =      0.12093  B =      0.03962  C =      0.03134 [cm^-1]
  Rotational constants: A =   3625.38235  B =   1187.89026  C =    939.62444 [MHz]
  Nuclear repulsion =  416.701938211861318

  Charge       = 1
  Multiplicity = 1
  Electrons    = 64
  Nalpha       = 32
  Nbeta        = 32

  ==> Algorithm <==

  SCF Algorithm Type is DF.
  DIIS enabled.
  MOM disabled.
  Fractional occupation disabled.
  Guess Type is SAD.
  Energy threshold   = 1.00e-08
  Density threshold  = 1.00e-08
  Integral threshold = 0.00e+00

  ==> Primary Basis <==

  Basis Set: 6-31G*
    Blend: 6-31G*
    Number of shells: 72
    Number of basis function: 153
    Number of Cartesian functions: 153
    Spherical Harmonics?: false
    Max angular momentum: 2

  ==> DFT Potential <==

   => Composite Functional: B3LYP-D3ZERO <= 

    B3LYP-d3zero Hyb-GGA Exchange-Correlation Functional

    P. J. Stephens, F. J. Devlin, C. F. Chabalowski, and M. J. Frisch, J. Phys. Chem. 98, 11623 (1994)

    Deriv               =              1
    GGA                 =           TRUE
    Meta                =          FALSE

    Exchange Hybrid     =           TRUE
    MP2 Hybrid          =          FALSE

   => Exchange Functionals <=

    0.0800   Slater exchange
    0.7200         Becke 88

   => Exact (HF) Exchange <=

    0.2000               HF 

   => Correlation Functionals <=

    0.1900   Vosko, Wilk & Nusair (VWN5_RPA)
    0.8100   Lee, Yang & Parr

   => Molecular Quadrature <=

    Radial Scheme       =       TREUTLER
    Pruning Scheme      =           FLAT
    Nuclear Scheme      =       TREUTLER

    BS radius alpha     =              1
    Pruning alpha       =              1
    Radial Points       =             75
    Spherical Points    =            302
    Total Points        =         397032
    Total Blocks        =           3021
    Max Points          =            256
    Max Functions       =            149

   => -D3ZERO: Empirical Dispersion <=

    Grimme's -D3 (zero-damping) Dispersion Correction
    Grimme S.; Antony J.; Ehrlich S.; Krieg H. (2010), J. Chem. Phys., 132: 154104

        S6 =   1.000000E+00
        S8 =   1.703000E+00
       SR6 =   1.261000E+00
       SR8 =   1.000000E+00
    ALPHA6 =   1.400000E+01

   => Loading Basis Set <=

    Name: (6-31G* AUX)
    Role: JKFIT
    Keyword: DF_BASIS_SCF
    atoms 1-7         entry C          line   121 file /shared/joao/test_parameterize/miniconda3/share/psi4/basis/cc-pvdz-jkfit.gbs 
    atoms 8-12, 15-18 entry H          line    51 file /shared/joao/test_parameterize/miniconda3/share/psi4/basis/cc-pvdz-jkfit.gbs 
    atoms 13-14       entry N          line   171 file /shared/joao/test_parameterize/miniconda3/share/psi4/basis/cc-pvdz-jkfit.gbs 

  ==> Pre-Iterations <==

   -------------------------------------------------------
    Irrep   Nso     Nmo     Nalpha   Nbeta   Ndocc  Nsocc
   -------------------------------------------------------
     A        153     153       0       0       0       0
   -------------------------------------------------------
    Total     153     153      32      32      32       0
   -------------------------------------------------------

  ==> Integral Setup <==

  ==> DiskDFJK: Density-Fitted J/K Matrices <==

    J tasked:                  Yes
    K tasked:                  Yes
    wK tasked:                  No
    OpenMP threads:              4
    Integrals threads:           4
    Memory (MB):              2002
    Algorithm:                Core
    Integral Cache:           NONE
    Schwarz Cutoff:          1E-12
    Fitting Condition:       1E-12

   => Auxiliary Basis Set <=

  Basis Set: (6-31G* AUX)
    Blend: CC-PVDZ-JKFIT
    Number of shells: 297
    Number of basis function: 954
    Number of Cartesian functions: 954
    Spherical Harmonics?: false
    Max angular momentum: 3

  Minimum eigenvalue in the overlap matrix is 4.8572594727E-04.
  Using Symmetric Orthogonalization.

  SCF Guess: Superposition of Atomic Densities via on-the-fly atomic UHF.

  ==> Iterations <==

                           Total Energy        Delta E     RMS |[F,P]|

   @DF-RKS iter   0:  -379.61471724661800   -3.79615e+02   6.72985e-02 
   @DF-RKS iter   1:  -380.97511894529055   -1.36040e+00   1.23116e-02 
   @DF-RKS iter   2:  -380.78149808763533    1.93621e-01   1.43314e-02 DIIS
   @DF-RKS iter   3:  -381.40400813684784   -6.22510e-01   2.77447e-03 DIIS
   @DF-RKS iter   4:  -381.42502685990479   -2.10187e-02   8.98356e-04 DIIS
   @DF-RKS iter   5:  -381.42689715108514   -1.87029e-03   3.65189e-04 DIIS
   @DF-RKS iter   6:  -381.42726134223858   -3.64191e-04   1.09134e-04 DIIS
   @DF-RKS iter   7:  -381.42729414965726   -3.28074e-05   3.20473e-05 DIIS
   @DF-RKS iter   8:  -381.42729708933183   -2.93967e-06   8.42448e-06 DIIS
   @DF-RKS iter   9:  -381.42729727335501   -1.84023e-07   4.88482e-06 DIIS
   @DF-RKS iter  10:  -381.42729734617933   -7.28243e-08   6.40131e-07 DIIS
   @DF-RKS iter  11:  -381.42729734755341   -1.37408e-09   3.67704e-07 DIIS
   @DF-RKS iter  12:  -381.42729734796001   -4.06601e-10   1.42436e-07 DIIS
   @DF-RKS iter  13:  -381.42729734803584   -7.58291e-11   3.89384e-08 DIIS
   @DF-RKS iter  14:  -381.42729734804061   -4.77485e-12   1.26312e-08 DIIS
   @DF-RKS iter  15:  -381.42729734804072   -1.13687e-13   6.67056e-09 DIIS

  ==> Post-Iterations <==

    Orbital Energies [Eh]
    ---------------------

    Doubly Occupied:                                                      

       1A    -14.586294     2A    -14.518618     3A    -10.502961  
       4A    -10.372850     5A    -10.359476     6A    -10.358101  
       7A    -10.346737     8A    -10.342709     9A    -10.342334  
      10A     -1.179597    11A     -1.081308    12A     -1.015563  
      13A     -0.926003    14A     -0.904154    15A     -0.842833  
      16A     -0.778850    17A     -0.770684    18A     -0.742303  
      19A     -0.720916    20A     -0.703539    21A     -0.673688  
      22A     -0.630625    23A     -0.606599    24A     -0.587683  
      25A     -0.578390    26A     -0.558916    27A     -0.517932  
      28A     -0.509492    29A     -0.500165    30A     -0.443658  
      31A     -0.410204    32A     -0.405789  

    Virtual:                                                              

      33A     -0.253234    34A     -0.156984    35A     -0.145433  
      36A     -0.100407    37A     -0.076411    38A     -0.049481  
      39A     -0.037285    40A     -0.016134    41A      0.005315  
      42A      0.015743    43A      0.027654    44A      0.057976  
      45A      0.071309    46A      0.093028    47A      0.129433  
      48A      0.139747    49A      0.155464    50A      0.165594  
      51A      0.209773    52A      0.238379    53A      0.299101  
      54A      0.352558    55A      0.361528    56A      0.380936  
      57A      0.393488    58A      0.402992    59A      0.413906  
      60A      0.421755    61A      0.438228    62A      0.448220  
      63A      0.456259    64A      0.469453    65A      0.471623  
      66A      0.481724    67A      0.487562    68A      0.503591  
      69A      0.525265    70A      0.538177    71A      0.560734  
      72A      0.580823    73A      0.611996    74A      0.643569  
      75A      0.665853    76A      0.678917    77A      0.688162  
      78A      0.700192    79A      0.713275    80A      0.724553  
      81A      0.740487    82A      0.755366    83A      0.767998  
      84A      0.774366    85A      0.807732    86A      0.831165  
      87A      0.851123    88A      0.888169    89A      0.955673  
      90A      0.959766    91A      0.979409    92A      1.016546  
      93A      1.037834    94A      1.090930    95A      1.139267  
      96A      1.156993    97A      1.253279    98A      1.273154  
      99A      1.284300   100A      1.304401   101A      1.324798  
     102A      1.339818   103A      1.359952   104A      1.377669  
     105A      1.431115   106A      1.454118   107A      1.526225  
     108A      1.580662   109A      1.626466   110A      1.667405  
     111A      1.703524   112A      1.725367   113A      1.754074  
     114A      1.785126   115A      1.804767   116A      1.830610  
     117A      1.893587   118A      1.950677   119A      1.958874  
     120A      1.984195   121A      1.995843   122A      2.004623  
     123A      2.017479   124A      2.059609   125A      2.122692  
     126A      2.125583   127A      2.150920   128A      2.192870  
     129A      2.209717   130A      2.311421   131A      2.360540  
     132A      2.431070   133A      2.446335   134A      2.457718  
     135A      2.485441   136A      2.517014   137A      2.553372  
     138A      2.587724   139A      2.595926   140A      2.625163  
     141A      2.730121   142A      2.839286   143A      2.977264  
     144A      3.256317   145A      3.616255   146A      3.695829  
     147A      3.910897   148A      3.944286   149A      3.962383  
     150A      4.040935   151A      4.171855   152A      4.249070  
     153A      4.543564  

    Final Occupation by Irrep:
              A 
    DOCC [    32 ]

  Energy converged.

  @DF-RKS Final Energy:  -381.42729734804072

   => Energetics <=

    Nuclear Repulsion Energy =            416.7019382118613180
    One-Electron Energy =               -1328.6687707754776966
    Two-Electron Energy =                 574.9628170951299353
    DFT Exchange-Correlation Energy =     -44.4113293295542562
    Empirical Dispersion Energy =          -0.0119525500000000
    VV10 Nonlocal Energy =                  0.0000000000000000
    Total Energy =                       -381.4272973480407245



Properties will be evaluated at   0.000000,   0.000000,   0.000000 [a0]

Properties computed using the SCF density matrix

  Nuclear Dipole Moment: [e a0]
     X:     0.0786      Y:    -0.1298      Z:     0.1175

  Electronic Dipole Moment: [e a0]
     X:     0.1370      Y:     0.3557      Z:    -2.1369

  Dipole Moment: [e a0]
     X:     0.2155      Y:     0.2260      Z:    -2.0194     Total:     2.0434

  Dipole Moment: [D]
     X:     0.5478      Y:     0.5743      Z:    -5.1327     Total:     5.1937


*** tstop() called on rosa.prib.upf.edu at Sat Sep 29 20:25:10 2018
Module time:
	user time   =     111.91 seconds =       1.87 minutes
	system time =       0.93 seconds =       0.02 minutes
	total time  =         32 seconds =       0.53 minutes
Total time:
	user time   =     111.91 seconds =       1.87 minutes
	system time =       0.93 seconds =       0.02 minutes
	total time  =         32 seconds =       0.53 minutes

*** tstart() called on rosa.prib.upf.edu
*** at Sat Sep 29 20:25:10 2018


         ------------------------------------------------------------
                                   SCF GRAD                          
                          Rob Parrish, Justin Turney,                
                       Andy Simmonett, and Alex Sokolov              
         ------------------------------------------------------------

  ==> Geometry <==

    Molecular point group: c1
    Full point group: C1

    Geometry (in Angstrom), charge = 1, multiplicity = 1:

       Center              X                  Y                   Z               Mass       
    ------------   -----------------  -----------------  -----------------  -----------------
         C            0.000000000000     0.000000000000    -0.177864000000    12.000000000000
         C            0.036678000000     1.219374000000     0.524165000000    12.000000000000
         C            0.031765000000     1.213120000000     1.915444000000    12.000000000000
         C            0.000000000000     0.000000000000     2.610107000000    12.000000000000
         C           -0.031765000000    -1.213120000000     1.915444000000    12.000000000000
         C           -0.036678000000    -1.219375000000     0.524165000000    12.000000000000
         C            0.000000000000     0.000000000000    -1.644734000000    12.000000000000
         H            0.018170000000     2.164705000000    -0.010854000000     1.007825032070
         H            0.042402000000     2.152895000000     2.457886000000     1.007825032070
         H            0.000000000000     0.000000000000     3.695756000000     1.007825032070
         H           -0.042402000000    -2.152895000000     2.457886000000     1.007825032070
         H           -0.018170000000    -2.164705000000    -0.010853000000     1.007825032070
         N           -0.712590000000    -0.905950000000    -2.308461000000    14.003074004780
         N            0.712590000000     0.905950000000    -2.308460000000    14.003074004780
         H            0.673432000000     1.006470000000    -3.315997000000     1.007825032070
         H            1.377190000000     1.485970000000    -1.813316000000     1.007825032070
         H           -0.427399000000    -1.876454000000    -2.300041000000     1.007825032070
         H           -1.581647000000    -0.684645000000    -2.780192000000     1.007825032070

  Nuclear repulsion =  416.701938211861318

  ==> Basis Set <==

  Basis Set: 6-31G*
    Blend: 6-31G*
    Number of shells: 72
    Number of basis function: 153
    Number of Cartesian functions: 153
    Spherical Harmonics?: false
    Max angular momentum: 2

  ==> DFJKGrad: Density-Fitted SCF Gradients <==

    Gradient:                    1
    J tasked:                  Yes
    K tasked:                  Yes
    wK tasked:                  No
    OpenMP threads:              4
    Integrals threads:           4
    Memory (MB):              2002
    Schwarz Cutoff:          0E+00
    Fitting Condition:       1E-12

   => Auxiliary Basis Set <=

  Basis Set: (6-31G* AUX)
    Blend: CC-PVDZ-JKFIT
    Number of shells: 297
    Number of basis function: 954
    Number of Cartesian functions: 954
    Spherical Harmonics?: false
    Max angular momentum: 3

  ==> DFT Potential <==

   => Composite Functional: B3LYP-D3ZERO <= 

    B3LYP-d3zero Hyb-GGA Exchange-Correlation Functional

    P. J. Stephens, F. J. Devlin, C. F. Chabalowski, and M. J. Frisch, J. Phys. Chem. 98, 11623 (1994)

    Deriv               =              1
    GGA                 =           TRUE
    Meta                =          FALSE

    Exchange Hybrid     =           TRUE
    MP2 Hybrid          =          FALSE

   => Exchange Functionals <=

    0.0800   Slater exchange
    0.7200         Becke 88

   => Exact (HF) Exchange <=

    0.2000               HF 

   => Correlation Functionals <=

    0.1900   Vosko, Wilk & Nusair (VWN5_RPA)
    0.8100   Lee, Yang & Parr

   => Molecular Quadrature <=

    Radial Scheme       =       TREUTLER
    Pruning Scheme      =           FLAT
    Nuclear Scheme      =       TREUTLER

    BS radius alpha     =              1
    Pruning alpha       =              1
    Radial Points       =             75
    Spherical Points    =            302
    Total Points        =         397032
    Total Blocks        =           3021
    Max Points          =            256
    Max Functions       =            149


  -Total Gradient:
     Atom            X                  Y                   Z
    ------   -----------------  -----------------  -----------------
       1       -0.010758179134    -0.000708005935     0.005914086484
       2       -0.003652695230    -0.001818527215    -0.003310385131
       3        0.001219630244    -0.001013236954     0.000446438073
       4       -0.000178989819    -0.001018941490    -0.000452731508
       5       -0.000974461363     0.001641812661     0.002915845665
       6        0.001692183487     0.001636883389    -0.003333860081
       7       -0.025790999681    -0.027975412603    -0.024087869453
       8       -0.000083551389    -0.000141319230    -0.000123842828
       9        0.000443579384    -0.000038760628    -0.000069473078
      10        0.000167834749    -0.000045428307    -0.000019743479
      11       -0.000098015177    -0.000016082276    -0.000011433493
      12        0.002166921708    -0.000530128429    -0.000753033068
      13        0.021096782975     0.028039250215     0.034306489312
      14        0.009605905282     0.003617107438    -0.009898479682
      15        0.001166735863     0.004605277099     0.002539071483
      16        0.002076397909    -0.006723155492    -0.001715590492
      17        0.006641662296     0.001405569777    -0.006370742910
      18       -0.004735518868    -0.000915446916     0.004024595653


*** tstop() called on rosa.prib.upf.edu at Sat Sep 29 20:25:17 2018
Module time:
	user time   =      27.68 seconds =       0.46 minutes
	system time =       0.35 seconds =       0.01 minutes
	total time  =          7 seconds =       0.12 minutes
Total time:
	user time   =     139.66 seconds =       2.33 minutes
	system time =       1.28 seconds =       0.02 minutes
	total time  =         39 seconds =       0.65 minutes

			-----------------------------------------
			 OPTKING 2.0: for geometry optimizations 
			  - R.A. King,  Bethel University        
			-----------------------------------------
	At level 1: Red. Int., RFO, no backsteps, dynamic trust

	Internal coordinates to be generated automatically.
	Detected frag 1 with atoms:  1 2 3 4 5 6 7 8 9 10 11 12 13 14 15 16 17 18
	---Fragment 1 Bond Connectivity---
	 1 : 2 6 7
	 2 : 1 3 8
	 3 : 2 4 9
	 4 : 3 5 10
	 5 : 4 6 11
	 6 : 1 5 12
	 7 : 1 13 14
	 8 : 2
	 9 : 3
	 10 : 4
	 11 : 5
	 12 : 6
	 13 : 7 17 18
	 14 : 7 15 16
	 15 : 14
	 16 : 14
	 17 : 13
	 18 : 13

	Assuming in current code that numbering for constraints corresponds to unified fragment.
	Frozen dihedral atom list: 
	     1     7    13    17
	---Fragment 1 Geometry and Gradient---
	 C           0.0000000000        0.0000000000       -0.3361142489
	 C           0.0693113751        2.3042829136        0.9905282984
	 C           0.0600271506        2.2924645663        3.6196645829
	 C           0.0000000000        0.0000000000        4.9323874075
	 C          -0.0600271506       -2.2924645663        3.6196645829
	 C          -0.0693113751       -2.3042848033        0.9905282984
	 C           0.0000000000        0.0000000000       -3.1080968214
	 H           0.0343363238        4.0906996085       -0.0205110874
	 H           0.0801281675        4.0683819429        4.6447314059
	 H           0.0000000000        0.0000000000        6.9839666940
	 H          -0.0801281675       -4.0683819429        4.6447314059
	 H          -0.0343363238       -4.0906996085       -0.0205091977
	 N          -1.3465999450       -1.7119973901       -4.3623590784
	 N           1.3465999450        1.7119973901       -4.3623571887
	 H           1.2726020491        1.9019526610       -6.2663261875
	 H           2.6025119329        2.8080763417       -3.4266706324
	 H          -0.8076670595       -3.5459841610       -4.3464475844
	 H          -2.9888796689       -1.2937915482       -5.2538014768
	            -0.0107581791       -0.0007080059        0.0059140865
	            -0.0036526952       -0.0018185272       -0.0033103851
	             0.0012196302       -0.0010132370        0.0004464381
	            -0.0001789898       -0.0010189415       -0.0004527315
	            -0.0009744614        0.0016418127        0.0029158457
	             0.0016921835        0.0016368834       -0.0033338601
	            -0.0257909997       -0.0279754126       -0.0240878695
	            -0.0000835514       -0.0001413192       -0.0001238428
	             0.0004435794       -0.0000387606       -0.0000694731
	             0.0001678347       -0.0000454283       -0.0000197435
	            -0.0000980152       -0.0000160823       -0.0000114335
	             0.0021669217       -0.0005301284       -0.0007530331
	             0.0210967830        0.0280392502        0.0343064893
	             0.0096059053        0.0036171074       -0.0098984797
	             0.0011667359        0.0046052771        0.0025390715
	             0.0020763979       -0.0067231555       -0.0017155905
	             0.0066416623        0.0014055698       -0.0063707429
	            -0.0047355189       -0.0009154469        0.0040245957

	Previous optimization step data not found.  Starting new optimization.

	---Fragment 1 Intrafragment Coordinates---
	 - Coordinate -           - BOHR/RAD -       - ANG/DEG -
	 R(1,2)           =         2.659794	       1.407502
	 R(1,6)           =         2.659796	       1.407503
	 R(1,7)           =         2.771983	       1.466870
	 R(2,3)           =         2.629179	       1.391302
	 R(2,8)           =         2.052976	       1.086388
	 R(3,4)           =         2.642393	       1.398294
	 R(3,9)           =         2.050622	       1.085142
	 R(4,5)           =         2.642393	       1.398294
	 R(4,10)          =         2.051579	       1.085649
	 R(5,6)           =         2.629179	       1.391302
	 R(5,11)          =         2.050622	       1.085142
	 R(6,12)          =         2.052973	       1.086386
	 R(7,13)          =         2.513452	       1.330061
	 R(7,14)          =         2.513451	       1.330061
	 R(13,17)         =         1.911599	       1.011574
	 R(13,18)         =         1.914849	       1.013295
	 R(14,15)         =         1.914852	       1.013296
	 R(14,16)         =         1.911600	       1.011575
	 B(1,2,3)         =         2.088380	     119.655376
	 B(1,2,8)         =         2.103396	     120.515689
	 B(1,6,5)         =         2.088379	     119.655315
	 B(1,6,12)        =         2.103396	     120.515729
	 B(1,7,13)        =         2.093264	     119.935172
	 B(1,7,14)        =         2.093263	     119.935135
	 B(2,1,6)         =         2.097220	     120.161857
	 B(2,1,7)         =         2.092983	     119.919082
	 B(2,3,4)         =         2.095279	     120.050636
	 B(2,3,9)         =         2.089719	     119.732108
	 B(3,2,8)         =         2.090149	     119.756722
	 B(3,4,5)         =         2.101793	     120.423859
	 B(3,4,10)        =         2.090696	     119.788070
	 B(4,3,9)         =         2.098135	     120.214297
	 B(4,5,6)         =         2.095280	     120.050677
	 B(4,5,11)        =         2.098135	     120.214297
	 B(5,4,10)        =         2.090696	     119.788070
	 B(5,6,12)        =         2.090149	     119.756743
	 B(6,1,7)         =         2.092982	     119.919061
	 B(6,5,11)        =         2.089719	     119.732067
	 B(7,13,17)       =         2.092411	     119.886338
	 B(7,13,18)       =         2.144860	     122.891416
	 B(7,14,15)       =         2.144860	     122.891405
	 B(7,14,16)       =         2.092412	     119.886393
	 B(13,7,14)       =         2.096659	     120.129694
	 B(15,14,16)      =         2.043399	     117.078146
	 B(17,13,18)      =         2.043400	     117.078189
	 D(1,2,3,4)       =         0.007799	       0.446825
	 D(1,2,3,9)       =        -3.122896	    -178.928735
	 D(1,6,5,4)       =         0.007799	       0.446822
	 D(1,6,5,11)      =        -3.122896	    -178.928737
	*D(1,7,13,17)     =        -1.221731	     -70.000019
	 D(1,7,13,18)     =         1.841446	     105.507066
	 D(1,7,14,15)     =        -3.032165	    -173.730230
	 D(1,7,14,16)     =         0.187844	      10.762681
	 D(2,1,6,5)       =        -0.003906	      -0.223802
	 D(2,1,6,12)      =        -3.091437	    -177.126283
	 D(2,1,7,13)      =        -2.505167	    -143.535494
	 D(2,1,7,14)      =         0.636426	      36.464506
	 D(2,3,4,5)       =        -0.003942	      -0.225875
	 D(2,3,4,10)      =         3.137650	     179.774125
	 D(3,2,1,6)       =        -0.003906	      -0.223806
	 D(3,2,1,7)       =         3.137687	     179.776196
	 D(3,4,5,6)       =        -0.003942	      -0.225874
	 D(3,4,5,11)      =         3.126699	     179.146646
	 D(4,3,2,8)       =         3.095744	     177.373058
	 D(4,5,6,12)      =         3.095744	     177.373055
	 D(5,4,3,9)       =         3.126699	     179.146646
	 D(5,6,1,7)       =         3.137687	     179.776197
	 D(6,1,2,8)       =        -3.091437	    -177.126287
	 D(6,1,7,13)      =         0.636426	      36.464508
	 D(6,1,7,14)      =        -2.505167	    -143.535492
	 D(6,5,4,10)      =         3.137650	     179.774126
	 D(7,1,2,8)       =         0.050156	       2.873714
	 D(7,1,6,12)      =         0.050156	       2.873716
	 D(8,2,3,9)       =        -0.034950	      -2.002503
	 D(9,3,4,10)      =        -0.014894	      -0.853354
	 D(10,4,5,11)     =        -0.014894	      -0.853354
	 D(11,5,6,12)     =        -0.034950	      -2.002504
	 D(13,7,14,15)    =         0.109428	       6.269770
	 D(13,7,14,16)    =        -2.953748	    -169.237319
	 D(14,7,13,17)    =         1.919862	     109.999981
	 D(14,7,13,18)    =        -1.300147	     -74.492934

	Current energy   :      -381.4272973480

	Generating empirical Hessian (Schlegel '84) for each fragment.
	Taking RFO optimization step.
	Going to follow RFO solution 1.
	Using RFO vector 1.

	Determining step-restricting scale parameter for RS-RFO.
	Maximum step size allowed    0.50000

	 Iter      |step|        alpha        rfo_root  
	------------------------------------------------
	    0     0.51200       1.00000           1
	    1     0.50041       1.06645           1
	    2     0.50000       1.06887           1
	------------------------------------------------
	Norm of target step-size    0.50000
	Projected energy change by RFO approximation:        -0.0152563491

	Back-transformation to cartesian coordinates...
	Could not converge backtransformation.
	Using first guess instead.

	Back-transformation to cartesian coordinates to adjust frozen coordinates...
	Successfully converged to displaced geometry.

	--- Internal Coordinate Step in ANG or DEG, aJ/ANG or AJ/DEG ---
	 ---------------------------------------------------------------------------
	   Coordinate                Previous        Force       Change         New 
	   ----------                --------       ------       ------       ------
	    1 R(1,2)          =      1.407502     0.030719     0.005986     1.413488
	    2 R(1,6)          =      1.407503     0.018337     0.005274     1.412778
	    3 R(1,7)          =      1.466870    -0.009905    -0.001592     1.465278
	    4 R(2,3)          =      1.391302    -0.005952    -0.000313     1.390989
	    5 R(2,8)          =      1.086388     0.000501     0.001601     1.087989
	    6 R(3,4)          =      1.398294     0.000980     0.001753     1.400047
	    7 R(3,9)          =      1.085142     0.000529     0.000741     1.085883
	    8 R(4,5)          =      1.398294     0.013358     0.002941     1.401234
	    9 R(4,10)         =      1.085649     0.000162     0.000258     1.085907
	   10 R(5,6)          =      1.391302    -0.017183    -0.002209     1.389093
	   11 R(5,11)         =      1.085142    -0.000078     0.001994     1.087136
	   12 R(6,12)         =      1.086386    -0.007162     0.002175     1.088561
	   13 R(7,13)         =      1.330061     0.393029     0.043516     1.373577
	   14 R(7,14)         =      1.330061    -0.102436    -0.000176     1.329885
	   15 R(13,17)        =      1.011574    -0.003874     0.000192     1.011767
	   16 R(13,18)        =      1.013295    -0.016384     0.001799     1.015094
	   17 R(14,15)        =      1.013296     0.017409     0.002929     1.016225
	   18 R(14,16)        =      1.011575     0.027438     0.026850     1.038425
	   19 B(1,2,3)        =    119.655376     0.000046     0.073933   119.729309
	   20 B(1,2,8)        =    120.515689    -0.000010     0.028236   120.543925
	   21 B(1,6,5)        =    119.655315     0.000031     0.045802   119.701117
	   22 B(1,6,12)       =    120.515729     0.000019     0.265275   120.781005
	   23 B(1,7,13)       =    119.935172     0.001122     3.119255   123.054427
	   24 B(1,7,14)       =    119.935135    -0.000518    -1.777730   118.157404
	   25 B(2,1,6)        =    120.161857    -0.000111    -0.205083   119.956774
	   26 B(2,1,7)        =    119.919082     0.000030     0.047765   119.966846
	   27 B(2,3,4)        =    120.050636    -0.000030    -0.084377   119.966259
	   28 B(2,3,9)        =    119.732108     0.000019     0.003730   119.735837
	   29 B(3,2,8)        =    119.756722    -0.000038    -0.151461   119.605261
	   30 B(3,4,5)        =    120.423859     0.000033     0.118652   120.542512
	   31 B(3,4,10)       =    119.788070    -0.000020    -0.033763   119.754307
	   32 B(4,3,9)        =    120.214297     0.000012     0.082759   120.297056
	   33 B(4,5,6)        =    120.050677     0.000031     0.022963   120.073640
	   34 B(4,5,11)       =    120.214297    -0.000016     0.045971   120.260267
	   35 B(5,4,10)       =    119.788070    -0.000013    -0.087403   119.700668
	   36 B(5,6,12)       =    119.756743    -0.000047    -0.263115   119.493628
	   37 B(6,1,7)        =    119.919061     0.000081     0.149411   120.068473
	   38 B(6,5,11)       =    119.732067    -0.000014    -0.068064   119.664002
	   39 B(7,13,17)      =    119.886338     0.000185     0.917151   120.803489
	   40 B(7,13,18)      =    122.891416    -0.000091    -0.163274   122.728142
	   41 B(7,14,15)      =    122.891405    -0.000470    -2.209134   120.682271
	   42 B(7,14,16)      =    119.886393     0.000322     2.199658   122.086051
	   43 B(13,7,14)      =    120.129694    -0.000604    -1.639292   118.490402
	   44 B(15,14,16)     =    117.078146     0.000163     0.148838   117.226984
	   45 B(17,13,18)     =    117.078189    -0.000079    -0.610877   116.467311
	   46 D(1,2,3,4)      =      0.446825     0.000012     1.195079     1.641904
	   47 D(1,2,3,9)      =   -178.928735     0.000009     0.904592  -178.024143
	   48 D(1,6,5,4)      =      0.446822     0.000011     1.139256     1.586078
	   49 D(1,6,5,11)     =   -178.928737    -0.000000    -0.009754  -178.938492
	   50 *D(1,7,13,17)   =    -70.000019    -0.000000     0.000000   -70.000019
	   51 D(1,7,13,18)    =    105.507066     0.000054     4.880294   110.387360
	   52 D(1,7,14,15)    =   -173.730230    -0.000004     0.033623  -173.696607
	   53 D(1,7,14,16)    =     10.762681    -0.000060    -5.269527     5.493154
	   54 D(2,1,6,5)      =     -0.223802    -0.000007    -0.757770    -0.981572
	   55 D(2,1,6,12)     =   -177.126283    -0.000019    -2.054982  -179.181265
	   56 D(2,1,7,13)     =   -143.535494    -0.000026    -4.936080  -148.471574
	   57 D(2,1,7,14)     =     36.464506    -0.000087   -11.305342    25.159164
	   58 D(2,3,4,5)      =     -0.225875    -0.000008    -0.821730    -1.047605
	   59 D(2,3,4,10)     =    179.774125    -0.000002    -0.243329   179.530796
	   60 D(3,2,1,6)      =     -0.223806    -0.000005    -0.414082    -0.637888
	   61 D(3,2,1,7)      =    179.776196    -0.000013    -1.436152   178.340043
	   62 D(3,4,5,6)      =     -0.225874    -0.000004    -0.360423    -0.586297
	   63 D(3,4,5,11)     =    179.146646     0.000007     0.794783   179.941429
	   64 D(4,3,2,8)      =    177.373058     0.000003     0.284002   177.657060
	   65 D(4,5,6,12)     =    177.373055     0.000024     2.436056   179.809111
	   66 D(5,4,3,9)      =    179.146646    -0.000005    -0.530100   178.616547
	   67 D(5,6,1,7)      =    179.776197     0.000002     0.265348   180.041545
	   68 D(6,1,2,8)      =   -177.126287     0.000005     0.511291  -176.614996
	   69 D(6,1,7,13)     =     36.464508    -0.000034    -5.959302    30.505205
	   70 D(6,1,7,14)     =   -143.535492    -0.000096   -12.328564  -155.864056
	   71 D(6,5,4,10)     =    179.774126    -0.000009    -0.938515   178.835610
	   72 D(7,1,2,8)      =      2.873714    -0.000004    -0.510779     2.362935
	   73 D(7,1,6,12)     =      2.873716    -0.000011    -1.031864     1.841852
	   74 D(8,2,3,9)      =     -2.002503     0.000000    -0.006485    -2.008987
	   75 D(9,3,4,10)     =     -0.853354     0.000000     0.048301    -0.805052
	   76 D(10,4,5,11)    =     -0.853354     0.000002     0.216690    -0.636663
	   77 D(11,5,6,12)    =     -2.002504     0.000013     1.287045    -0.715458
	   78 D(13,7,14,15)   =      6.269770    -0.000065    -6.039232     0.230538
	   79 D(13,7,14,16)   =   -169.237319    -0.000121   -11.342382  -180.579701
	   80 D(14,7,13,17)   =    109.999981     0.000061     6.389328   116.389309
	   81 D(14,7,13,18)   =    -74.492934     0.000115    11.269622   -63.223312
	 ---------------------------------------------------------------------------
	Successfully symmetrized geometry.

  ==> Convergence Check <==

  Measures of convergence in internal coordinates in au.
  Criteria marked as inactive (o), active & met (*), and active & unmet ( ).
  --------------------------------------------------------------------------------------------- ~
   Step     Total Energy     Delta E     MAX Force     RMS Force      MAX Disp      RMS Disp    ~
  --------------------------------------------------------------------------------------------- ~
    Convergence Criteria    1.00e-06 *    3.00e-04 *             o    1.20e-03 *             o  ~
  --------------------------------------------------------------------------------------------- ~
      1    -381.42729735   -3.81e+02      4.77e-02      6.17e-03 o    2.15e-01      5.50e-02 o  ~
  ---------------------------------------------------------------------------------------------

	Writing optimization data to binary file.
	Structure for next step:
	Cartesian Geometry (in Angstrom)
	    C     0.0380140207  -0.0277799838  -0.1667984939
	    C     0.1394949616   1.2009421549   0.5244994777
	    C     0.1072722887   1.2147823235   1.9150459888
	    C     0.0093803697   0.0116488422   2.6242841603
	    C    -0.0787950112  -1.2104966315   1.9445462685
	    C    -0.0819067490  -1.2359068972   0.5556896176
	    C     0.0347467895  -0.0451452026  -1.6319703574
	    H     0.1770330378   2.1411718184  -0.0216498929
	    H     0.1528198827   2.1612155438   2.4454528129
	    H    -0.0078041210   0.0259268413   3.7099614328
	    H    -0.1536796767  -2.1420830160   2.4998870345
	    H    -0.1476270649  -2.1908455909   0.0372892988
	    N    -0.6470015862  -0.9828696460  -2.3685883354
	    N     0.6167403216   0.9643873985  -2.2728452893
	    H     0.5547683853   1.0411456800  -3.2842704015
	    H     1.1385421185   1.7088135250  -1.7709703700
	    H    -0.3404584851  -1.9468124723  -2.3913292130
	    H    -1.4699634819  -0.7567546871  -2.9181527385
			--------------------------
			 OPTKING Finished Execution 
			--------------------------

    Structure for next step:
    Molecular point group: c1
    Full point group: C1

    Geometry (in Angstrom), charge = 1, multiplicity = 1:

    C            0.038014020689    -0.027779983812    -0.166798493921
    C            0.139494961583     1.200942154861     0.524499477708
    C            0.107272288707     1.214782323538     1.915045988810
    C            0.009380369691     0.011648842170     2.624284160269
    C           -0.078795011223    -1.210496631543     1.944546268527
    C           -0.081906749033    -1.235906897227     0.555689617645
    C            0.034746789491    -0.045145202625    -1.631970357389
    H            0.177033037778     2.141171818375    -0.021649892886
    H            0.152819882671     2.161215543819     2.445452812913
    H           -0.007804121007     0.025926841316     3.709961432791
    H           -0.153679676704    -2.142083016029     2.499887034455
    H           -0.147627064939    -2.190845590898     0.037289298796
    N           -0.647001586205    -0.982869645989    -2.368588335435
    N            0.616740321600     0.964387398458    -2.272845289279
    H            0.554768385336     1.041145680027    -3.284270401543
    H            1.138542118520     1.708813524958    -1.770970369969
    H           -0.340458485097    -1.946812472270    -2.391329213021
    H           -1.469963481857    -0.756754687128    -2.918152738469

gradient() will perform analytic gradient computation.

*** tstart() called on rosa.prib.upf.edu
*** at Sat Sep 29 20:25:17 2018

   => Loading Basis Set <=

    Name: 6-31G*
    Role: ORBITAL
    Keyword: BASIS
    atoms 1-7         entry C          line   111 file /shared/joao/test_parameterize/miniconda3/share/psi4/basis/6-31gs.gbs 
    atoms 8-12, 15-18 entry H          line    44 file /shared/joao/test_parameterize/miniconda3/share/psi4/basis/6-31gs.gbs 
    atoms 13-14       entry N          line   128 file /shared/joao/test_parameterize/miniconda3/share/psi4/basis/6-31gs.gbs 


         ---------------------------------------------------------
                                   SCF
            by Justin Turney, Rob Parrish, Andy Simmonett
                             and Daniel Smith
                              RKS Reference
                        4 Threads,   2861 MiB Core
         ---------------------------------------------------------

  ==> Geometry <==

    Molecular point group: c1
    Full point group: C1

    Geometry (in Angstrom), charge = 1, multiplicity = 1:

       Center              X                  Y                   Z               Mass       
    ------------   -----------------  -----------------  -----------------  -----------------
         C            0.038014020689    -0.027779983812    -0.166798493921    12.000000000000
         C            0.139494961583     1.200942154861     0.524499477708    12.000000000000
         C            0.107272288707     1.214782323538     1.915045988810    12.000000000000
         C            0.009380369691     0.011648842170     2.624284160269    12.000000000000
         C           -0.078795011223    -1.210496631543     1.944546268527    12.000000000000
         C           -0.081906749033    -1.235906897227     0.555689617645    12.000000000000
         C            0.034746789491    -0.045145202625    -1.631970357389    12.000000000000
         H            0.177033037778     2.141171818375    -0.021649892886     1.007825032070
         H            0.152819882671     2.161215543819     2.445452812913     1.007825032070
         H           -0.007804121007     0.025926841316     3.709961432791     1.007825032070
         H           -0.153679676704    -2.142083016029     2.499887034455     1.007825032070
         H           -0.147627064939    -2.190845590898     0.037289298796     1.007825032070
         N           -0.647001586205    -0.982869645989    -2.368588335435    14.003074004780
         N            0.616740321600     0.964387398458    -2.272845289279    14.003074004780
         H            0.554768385336     1.041145680027    -3.284270401543     1.007825032070
         H            1.138542118520     1.708813524958    -1.770970369969     1.007825032070
         H           -0.340458485097    -1.946812472270    -2.391329213021     1.007825032070
         H           -1.469963481857    -0.756754687128    -2.918152738469     1.007825032070

  Running in c1 symmetry.

  Rotational constants: A =      0.12004  B =      0.03962  C =      0.03072 [cm^-1]
  Rotational constants: A =   3598.55916  B =   1187.90782  C =    921.01459 [MHz]
  Nuclear repulsion =  414.949755885490447

  Charge       = 1
  Multiplicity = 1
  Electrons    = 64
  Nalpha       = 32
  Nbeta        = 32

  ==> Algorithm <==

  SCF Algorithm Type is DF.
  DIIS enabled.
  MOM disabled.
  Fractional occupation disabled.
  Guess Type is READ.
  Energy threshold   = 1.00e-08
  Density threshold  = 1.00e-08
  Integral threshold = 0.00e+00

  ==> Primary Basis <==

  Basis Set: 6-31G*
    Blend: 6-31G*
    Number of shells: 72
    Number of basis function: 153
    Number of Cartesian functions: 153
    Spherical Harmonics?: false
    Max angular momentum: 2

  ==> DFT Potential <==

   => Composite Functional: B3LYP-D3ZERO <= 

    B3LYP-d3zero Hyb-GGA Exchange-Correlation Functional

    P. J. Stephens, F. J. Devlin, C. F. Chabalowski, and M. J. Frisch, J. Phys. Chem. 98, 11623 (1994)

    Deriv               =              1
    GGA                 =           TRUE
    Meta                =          FALSE

    Exchange Hybrid     =           TRUE
    MP2 Hybrid          =          FALSE

   => Exchange Functionals <=

    0.0800   Slater exchange
    0.7200         Becke 88

   => Exact (HF) Exchange <=

    0.2000               HF 

   => Correlation Functionals <=

    0.1900   Vosko, Wilk & Nusair (VWN5_RPA)
    0.8100   Lee, Yang & Parr

   => Molecular Quadrature <=

    Radial Scheme       =       TREUTLER
    Pruning Scheme      =           FLAT
    Nuclear Scheme      =       TREUTLER

    BS radius alpha     =              1
    Pruning alpha       =              1
    Radial Points       =             75
    Spherical Points    =            302
    Total Points        =         396922
    Total Blocks        =           3007
    Max Points          =            256
    Max Functions       =            149

   => -D3ZERO: Empirical Dispersion <=

    Grimme's -D3 (zero-damping) Dispersion Correction
    Grimme S.; Antony J.; Ehrlich S.; Krieg H. (2010), J. Chem. Phys., 132: 154104

        S6 =   1.000000E+00
        S8 =   1.703000E+00
       SR6 =   1.261000E+00
       SR8 =   1.000000E+00
    ALPHA6 =   1.400000E+01

   => Loading Basis Set <=

    Name: (6-31G* AUX)
    Role: JKFIT
    Keyword: DF_BASIS_SCF
    atoms 1-7         entry C          line   121 file /shared/joao/test_parameterize/miniconda3/share/psi4/basis/cc-pvdz-jkfit.gbs 
    atoms 8-12, 15-18 entry H          line    51 file /shared/joao/test_parameterize/miniconda3/share/psi4/basis/cc-pvdz-jkfit.gbs 
    atoms 13-14       entry N          line   171 file /shared/joao/test_parameterize/miniconda3/share/psi4/basis/cc-pvdz-jkfit.gbs 

  Reading orbitals from file 180, no projection.

  ==> Pre-Iterations <==

   -------------------------------------------------------
    Irrep   Nso     Nmo     Nalpha   Nbeta   Ndocc  Nsocc
   -------------------------------------------------------
     A        153     153       0       0       0       0
   -------------------------------------------------------
    Total     153     153      32      32      32       0
   -------------------------------------------------------

  ==> Integral Setup <==

  ==> DiskDFJK: Density-Fitted J/K Matrices <==

    J tasked:                  Yes
    K tasked:                  Yes
    wK tasked:                  No
    OpenMP threads:              4
    Integrals threads:           4
    Memory (MB):              2002
    Algorithm:                Core
    Integral Cache:           NONE
    Schwarz Cutoff:          1E-12
    Fitting Condition:       1E-12

   => Auxiliary Basis Set <=

  Basis Set: (6-31G* AUX)
    Blend: CC-PVDZ-JKFIT
    Number of shells: 297
    Number of basis function: 954
    Number of Cartesian functions: 954
    Spherical Harmonics?: false
    Max angular momentum: 3

  Minimum eigenvalue in the overlap matrix is 4.9216250633E-04.
  Using Symmetric Orthogonalization.

  SCF Guess: Orbitals guess was supplied from a previous computation.

  ==> Iterations <==

                           Total Energy        Delta E     RMS |[F,P]|

   @DF-RKS iter   0:  -381.35590593015053   -3.81356e+02   3.69074e-03 
   @DF-RKS iter   1:  -381.43271351030307   -7.68076e-02   6.53927e-04 
   @DF-RKS iter   2:  -381.43090298301837    1.81053e-03   1.05264e-03 DIIS
   @DF-RKS iter   3:  -381.43434302411140   -3.44004e-03   1.47081e-04 DIIS
   @DF-RKS iter   4:  -381.43439551899678   -5.24949e-05   6.43839e-05 DIIS
   @DF-RKS iter   5:  -381.43440795360522   -1.24346e-05   2.50092e-05 DIIS
   @DF-RKS iter   6:  -381.43440993261527   -1.97901e-06   8.21944e-06 DIIS
   @DF-RKS iter   7:  -381.43441010901017   -1.76395e-07   3.04438e-06 DIIS
   @DF-RKS iter   8:  -381.43441013693462   -2.79244e-08   7.38791e-07 DIIS
   @DF-RKS iter   9:  -381.43441013846359   -1.52897e-09   2.97464e-07 DIIS
   @DF-RKS iter  10:  -381.43441013872285   -2.59263e-10   1.21407e-07 DIIS
   @DF-RKS iter  11:  -381.43441013877322   -5.03633e-11   4.39776e-08 DIIS
   @DF-RKS iter  12:  -381.43441013877896   -5.74119e-12   9.04799e-09 DIIS

  ==> Post-Iterations <==

    Orbital Energies [Eh]
    ---------------------

    Doubly Occupied:                                                      

       1A    -14.584887     2A    -14.525890     3A    -10.503546  
       4A    -10.375899     5A    -10.363320     6A    -10.359316  
       7A    -10.349338     8A    -10.345270     9A    -10.343260  
      10A     -1.172101    11A     -1.070324    12A     -1.015890  
      13A     -0.926773    14A     -0.905748    15A     -0.841757  
      16A     -0.777764    17A     -0.769190    18A     -0.736090  
      19A     -0.718328    20A     -0.697383    21A     -0.668572  
      22A     -0.632448    23A     -0.606037    24A     -0.586492  
      25A     -0.579909    26A     -0.564117    27A     -0.516325  
      28A     -0.510989    29A     -0.501315    30A     -0.446298  
      31A     -0.411330    32A     -0.408110  

    Virtual:                                                              

      33A     -0.251084    34A     -0.157610    35A     -0.141892  
      36A     -0.106651    37A     -0.077375    38A     -0.058696  
      39A     -0.036692    40A     -0.015876    41A      0.006276  
      42A      0.019022    43A      0.025483    44A      0.059807  
      45A      0.066084    46A      0.086406    47A      0.121588  
      48A      0.125207    49A      0.153067    50A      0.171993  
      51A      0.209983    52A      0.230051    53A      0.296978  
      54A      0.349703    55A      0.365252    56A      0.378697  
      57A      0.390697    58A      0.401362    59A      0.413920  
      60A      0.419067    61A      0.434681    62A      0.446147  
      63A      0.455495    64A      0.468373    65A      0.470448  
      66A      0.479364    67A      0.482826    68A      0.496311  
      69A      0.527102    70A      0.551302    71A      0.561093  
      72A      0.581851    73A      0.613261    74A      0.636924  
      75A      0.665914    76A      0.680431    77A      0.693737  
      78A      0.698923    79A      0.714179    80A      0.726440  
      81A      0.737483    82A      0.752749    83A      0.772298  
      84A      0.788737    85A      0.816218    86A      0.833632  
      87A      0.851883    88A      0.902997    89A      0.953205  
      90A      0.965937    91A      0.998914    92A      1.021988  
      93A      1.053725    94A      1.086917    95A      1.128351  
      96A      1.146639    97A      1.237102    98A      1.269664  
      99A      1.283814   100A      1.300367   101A      1.322358  
     102A      1.336565   103A      1.355693   104A      1.373693  
     105A      1.419863   106A      1.454084   107A      1.517588  
     108A      1.571929   109A      1.616451   110A      1.646726  
     111A      1.709346   112A      1.728101   113A      1.743974  
     114A      1.780704   115A      1.797029   116A      1.820558  
     117A      1.889699   118A      1.939686   119A      1.959276  
     120A      1.974303   121A      1.994772   122A      1.996920  
     123A      2.017334   124A      2.035679   125A      2.114627  
     126A      2.118476   127A      2.148181   128A      2.178274  
     129A      2.196445   130A      2.300996   131A      2.337821  
     132A      2.417969   133A      2.439038   134A      2.454933  
     135A      2.477130   136A      2.505683   137A      2.535357  
     138A      2.587117   139A      2.593560   140A      2.618272  
     141A      2.729087   142A      2.811795   143A      2.979786  
     144A      3.246976   145A      3.612227   146A      3.671713  
     147A      3.903662   148A      3.940664   149A      3.960281  
     150A      4.036112   151A      4.167068   152A      4.248663  
     153A      4.540129  

    Final Occupation by Irrep:
              A 
    DOCC [    32 ]

  Energy converged.

  @DF-RKS Final Energy:  -381.43441013877896

   => Energetics <=

    Nuclear Repulsion Energy =            414.9497558854904469
    One-Electron Energy =               -1325.2151653527523649
    Two-Electron Energy =                 573.2157952133417211
    DFT Exchange-Correlation Energy =     -44.3730902948587271
    Empirical Dispersion Energy =          -0.0117055900000000
    VV10 Nonlocal Energy =                  0.0000000000000000
    Total Energy =                       -381.4344101387789010



Properties will be evaluated at   0.000000,   0.000000,   0.000000 [a0]

Properties computed using the SCF density matrix

  Nuclear Dipole Moment: [e a0]
     X:     1.3248      Y:    -1.2082      Z:     0.7709

  Electronic Dipole Moment: [e a0]
     X:    -1.1924      Y:     1.4623      Z:    -2.7517

  Dipole Moment: [e a0]
     X:     0.1324      Y:     0.2541      Z:    -1.9807     Total:     2.0013

  Dipole Moment: [D]
     X:     0.3365      Y:     0.6459      Z:    -5.0345     Total:     5.0869


*** tstop() called on rosa.prib.upf.edu at Sat Sep 29 20:25:42 2018
Module time:
	user time   =      88.72 seconds =       1.48 minutes
	system time =       0.56 seconds =       0.01 minutes
	total time  =         25 seconds =       0.42 minutes
Total time:
	user time   =     229.27 seconds =       3.82 minutes
	system time =       1.90 seconds =       0.03 minutes
	total time  =         64 seconds =       1.07 minutes

*** tstart() called on rosa.prib.upf.edu
*** at Sat Sep 29 20:25:42 2018


         ------------------------------------------------------------
                                   SCF GRAD                          
                          Rob Parrish, Justin Turney,                
                       Andy Simmonett, and Alex Sokolov              
         ------------------------------------------------------------

  ==> Geometry <==

    Molecular point group: c1
    Full point group: C1

    Geometry (in Angstrom), charge = 1, multiplicity = 1:

       Center              X                  Y                   Z               Mass       
    ------------   -----------------  -----------------  -----------------  -----------------
         C            0.038014020689    -0.027779983812    -0.166798493921    12.000000000000
         C            0.139494961583     1.200942154861     0.524499477708    12.000000000000
         C            0.107272288707     1.214782323538     1.915045988810    12.000000000000
         C            0.009380369691     0.011648842170     2.624284160269    12.000000000000
         C           -0.078795011223    -1.210496631543     1.944546268527    12.000000000000
         C           -0.081906749033    -1.235906897227     0.555689617645    12.000000000000
         C            0.034746789491    -0.045145202625    -1.631970357389    12.000000000000
         H            0.177033037778     2.141171818375    -0.021649892886     1.007825032070
         H            0.152819882671     2.161215543819     2.445452812913     1.007825032070
         H           -0.007804121007     0.025926841316     3.709961432791     1.007825032070
         H           -0.153679676704    -2.142083016029     2.499887034455     1.007825032070
         H           -0.147627064939    -2.190845590898     0.037289298796     1.007825032070
         N           -0.647001586205    -0.982869645989    -2.368588335435    14.003074004780
         N            0.616740321600     0.964387398458    -2.272845289279    14.003074004780
         H            0.554768385336     1.041145680027    -3.284270401543     1.007825032070
         H            1.138542118520     1.708813524958    -1.770970369969     1.007825032070
         H           -0.340458485097    -1.946812472270    -2.391329213021     1.007825032070
         H           -1.469963481857    -0.756754687128    -2.918152738469     1.007825032070

  Nuclear repulsion =  414.949755885490447

  ==> Basis Set <==

  Basis Set: 6-31G*
    Blend: 6-31G*
    Number of shells: 72
    Number of basis function: 153
    Number of Cartesian functions: 153
    Spherical Harmonics?: false
    Max angular momentum: 2

  ==> DFJKGrad: Density-Fitted SCF Gradients <==

    Gradient:                    1
    J tasked:                  Yes
    K tasked:                  Yes
    wK tasked:                  No
    OpenMP threads:              4
    Integrals threads:           4
    Memory (MB):              2002
    Schwarz Cutoff:          0E+00
    Fitting Condition:       1E-12

   => Auxiliary Basis Set <=

  Basis Set: (6-31G* AUX)
    Blend: CC-PVDZ-JKFIT
    Number of shells: 297
    Number of basis function: 954
    Number of Cartesian functions: 954
    Spherical Harmonics?: false
    Max angular momentum: 3

  ==> DFT Potential <==

   => Composite Functional: B3LYP-D3ZERO <= 

    B3LYP-d3zero Hyb-GGA Exchange-Correlation Functional

    P. J. Stephens, F. J. Devlin, C. F. Chabalowski, and M. J. Frisch, J. Phys. Chem. 98, 11623 (1994)

    Deriv               =              1
    GGA                 =           TRUE
    Meta                =          FALSE

    Exchange Hybrid     =           TRUE
    MP2 Hybrid          =          FALSE

   => Exchange Functionals <=

    0.0800   Slater exchange
    0.7200         Becke 88

   => Exact (HF) Exchange <=

    0.2000               HF 

   => Correlation Functionals <=

    0.1900   Vosko, Wilk & Nusair (VWN5_RPA)
    0.8100   Lee, Yang & Parr

   => Molecular Quadrature <=

    Radial Scheme       =       TREUTLER
    Pruning Scheme      =           FLAT
    Nuclear Scheme      =       TREUTLER

    BS radius alpha     =              1
    Pruning alpha       =              1
    Radial Points       =             75
    Spherical Points    =            302
    Total Points        =         396922
    Total Blocks        =           3007
    Max Points          =            256
    Max Functions       =            149


  -Total Gradient:
     Atom            X                  Y                   Z
    ------   -----------------  -----------------  -----------------
       1       -0.006655287370     0.008984873034     0.003941944184
       2       -0.001189312402     0.001901574480    -0.001998045899
       3       -0.000327187612    -0.000265383665     0.001517571903
       4        0.000079515915     0.000961299970     0.000646257188
       5        0.000059050936     0.000198169590    -0.000909840543
       6        0.000914714831    -0.000666640560     0.000806426417
       7        0.001954067356    -0.017227994823    -0.003825083513
       8        0.000744666602     0.000367746724    -0.002656686103
       9        0.000192186871     0.000535556163     0.000146726446
      10        0.000024886306    -0.000114256652     0.000162287676
      11       -0.000228112583    -0.001414281890     0.000397159553
      12        0.001056546427    -0.002702339942    -0.000268139058
      13       -0.004928580272     0.003734327394     0.004403136386
      14        0.000270598634    -0.006757943410    -0.006313848332
      15       -0.001121754397     0.001675372249    -0.000592820058
      16        0.011592088063     0.013883802457     0.009619868280
      17        0.005436943956     0.000776965875    -0.008009385725
      18       -0.007875892860    -0.003870315881     0.002937504867


*** tstop() called on rosa.prib.upf.edu at Sat Sep 29 20:25:49 2018
Module time:
	user time   =      27.74 seconds =       0.46 minutes
	system time =       0.37 seconds =       0.01 minutes
	total time  =          7 seconds =       0.12 minutes
Total time:
	user time   =     257.09 seconds =       4.28 minutes
	system time =       2.28 seconds =       0.04 minutes
	total time  =         71 seconds =       1.18 minutes

			-----------------------------------------
			 OPTKING 2.0: for geometry optimizations 
			  - R.A. King,  Bethel University        
			-----------------------------------------
	At level 1: Red. Int., RFO, no backsteps, dynamic trust

	Previous internal coordinate definitions found.
	---Fragment 1 Geometry and Gradient---
	 C           0.0718360883       -0.0524965614       -0.3152034729
	 C           0.2636072743        2.2694517741        0.9911603697
	 C           0.2027152473        2.2956059026        3.6189124507
	 C           0.0177263297        0.0220131215        4.9591783578
	 C          -0.1489009918       -2.2875071184        3.6746599002
	 C          -0.1547813241       -2.3355255615        1.0501011922
	 C           0.0656619161       -0.0853120692       -3.0839770325
	 H           0.3345439579        4.0462283402       -0.0409123684
	 H           0.2887877259        4.0841054920        4.6212360873
	 H          -0.0147476514        0.0489946296        7.0108110715
	 H          -0.2904125012       -4.0479502542        4.7241018583
	 H          -0.2789747225       -4.1400981662        0.0704665624
	 N          -1.2226558055       -1.8573544552       -4.4759832755
	 N           1.1654703029        1.8224280691       -4.2950551392
	 H           1.0483603155        1.9674801997       -6.2063716053
	 H           2.1515327948        3.2291895743       -3.3466489887
	 H          -0.6433732965       -3.6789424047       -4.5189573062
	 H          -2.7778284061       -1.4300591085       -5.5145094896
	            -0.0066552874        0.0089848730        0.0039419442
	            -0.0011893124        0.0019015745       -0.0019980459
	            -0.0003271876       -0.0002653837        0.0015175719
	             0.0000795159        0.0009613000        0.0006462572
	             0.0000590509        0.0001981696       -0.0009098405
	             0.0009147148       -0.0006666406        0.0008064264
	             0.0019540674       -0.0172279948       -0.0038250835
	             0.0007446666        0.0003677467       -0.0026566861
	             0.0001921869        0.0005355562        0.0001467264
	             0.0000248863       -0.0001142567        0.0001622877
	            -0.0002281126       -0.0014142819        0.0003971596
	             0.0010565464       -0.0027023399       -0.0002681391
	            -0.0049285803        0.0037343274        0.0044031364
	             0.0002705986       -0.0067579434       -0.0063138483
	            -0.0011217544        0.0016753722       -0.0005928201
	             0.0115920881        0.0138838025        0.0096198683
	             0.0054369440        0.0007769659       -0.0080093857
	            -0.0078758929       -0.0038703159        0.0029375049

	---Fragment 1 Intrafragment Coordinates---
	 - Coordinate -           - BOHR/RAD -       - ANG/DEG -
	 R(1,2)           =         2.671106	       1.413488
	 R(1,6)           =         2.669763	       1.412778
	 R(1,7)           =         2.768975	       1.465278
	 R(2,3)           =         2.628588	       1.390989
	 R(2,8)           =         2.056001	       1.087989
	 R(3,4)           =         2.645706	       1.400047
	 R(3,9)           =         2.052021	       1.085883
	 R(4,5)           =         2.647949	       1.401234
	 R(4,10)          =         2.052067	       1.085907
	 R(5,6)           =         2.625005	       1.389093
	 R(5,11)          =         2.054389	       1.087136
	 R(6,12)          =         2.057083	       1.088561
	 R(7,13)          =         2.595685	       1.373577
	 R(7,14)          =         2.513118	       1.329885
	 R(13,17)         =         1.911962	       1.011767
	 R(13,18)         =         1.918249	       1.015094
	 R(14,15)         =         1.920387	       1.016225
	 R(14,16)         =         1.962338	       1.038425
	 B(1,2,3)         =         2.089671	     119.729309
	 B(1,2,8)         =         2.103888	     120.543925
	 B(1,6,5)         =         2.089179	     119.701117
	 B(1,6,12)        =         2.108026	     120.781005
	 B(1,7,13)        =         2.147705	     123.054427
	 B(1,7,14)        =         2.062236	     118.157404
	 B(2,1,6)         =         2.093641	     119.956774
	 B(2,1,7)         =         2.093816	     119.966846
	 B(2,3,4)         =         2.093806	     119.966259
	 B(2,3,9)         =         2.089785	     119.735837
	 B(3,2,8)         =         2.087506	     119.605261
	 B(3,4,5)         =         2.103864	     120.542512
	 B(3,4,10)        =         2.090107	     119.754307
	 B(4,3,9)         =         2.099580	     120.297056
	 B(4,5,6)         =         2.095680	     120.073640
	 B(4,5,11)        =         2.098938	     120.260267
	 B(5,4,10)        =         2.089171	     119.700668
	 B(5,6,12)        =         2.085557	     119.493628
	 B(6,1,7)         =         2.095590	     120.068473
	 B(6,5,11)        =         2.088531	     119.664002
	 B(7,13,17)       =         2.108419	     120.803489
	 B(7,13,18)       =         2.142010	     122.728142
	 B(7,14,15)       =         2.106303	     120.682271
	 B(7,14,16)       =         2.130804	     122.086051
	 B(13,7,14)       =         2.068048	     118.490402
	 B(15,14,16)      =         2.045997	     117.226984
	 B(17,13,18)      =         2.032738	     116.467311
	 D(1,2,3,4)       =         0.028657	       1.641904
	 D(1,2,3,9)       =        -3.107107	    -178.024143
	 D(1,6,5,4)       =         0.027682	       1.586078
	 D(1,6,5,11)      =        -3.123066	    -178.938492
	*D(1,7,13,17)     =        -1.221731	     -70.000019
	 D(1,7,13,18)     =         1.926623	     110.387360
	 D(1,7,14,15)     =        -3.031578	    -173.696607
	 D(1,7,14,16)     =         0.095874	       5.493154
	 D(2,1,6,5)       =        -0.017132	      -0.981572
	 D(2,1,6,12)      =        -3.127303	    -179.181265
	 D(2,1,7,13)      =        -2.591318	    -148.471574
	 D(2,1,7,14)      =         0.439110	      25.159164
	 D(2,3,4,5)       =        -0.018284	      -1.047605
	 D(2,3,4,10)      =         3.133403	     179.530796
	 D(3,2,1,6)       =        -0.011133	      -0.637888
	 D(3,2,1,7)       =         3.112621	     178.340043
	 D(3,4,5,6)       =        -0.010233	      -0.586297
	 D(3,4,5,11)      =         3.140570	     179.941429
	 D(4,3,2,8)       =         3.100701	     177.657060
	 D(4,5,6,12)      =         3.138261	     179.809111
	 D(5,4,3,9)       =         3.117447	     178.616547
	 D(5,6,1,7)       =        -3.140868	    -179.958455
	 D(6,1,2,8)       =        -3.082513	    -176.614996
	 D(6,1,7,13)      =         0.532416	      30.505205
	 D(6,1,7,14)      =        -2.720341	    -155.864056
	 D(6,5,4,10)      =         3.121270	     178.835610
	 D(7,1,2,8)       =         0.041241	       2.362935
	 D(7,1,6,12)      =         0.032146	       1.841852
	 D(8,2,3,9)       =        -0.035063	      -2.008987
	 D(9,3,4,10)      =        -0.014051	      -0.805052
	 D(10,4,5,11)     =        -0.011112	      -0.636663
	 D(11,5,6,12)     =        -0.012487	      -0.715458
	 D(13,7,14,15)    =         0.004024	       0.230538
	 D(13,7,14,16)    =         3.131475	     179.420299
	 D(14,7,13,17)    =         2.031377	     116.389309
	 D(14,7,13,18)    =        -1.103455	     -63.223312

	Current energy   :      -381.4344101388

	Energy change for the previous step:
		Projected    :        -0.0152563491
		Actual       :        -0.0071127907

	Performing BFGS update.
	Previous computed or guess Hessian on step 1.
	Steps to be used in Hessian update: 1
	Taking RFO optimization step.
	Going to follow RFO solution 1.
	Using RFO vector 1.

	Determining step-restricting scale parameter for RS-RFO.
	Maximum step size allowed    0.50000

	 Iter      |step|        alpha        rfo_root  
	------------------------------------------------
	    0     0.50143       1.00000           1
	    1     0.50001       1.00970           1
	------------------------------------------------
	Norm of target step-size    0.50001
	Projected energy change by RFO approximation:        -0.0088182755

	Back-transformation to cartesian coordinates...
	Could not converge backtransformation.
	Using first guess instead.

	Back-transformation to cartesian coordinates to adjust frozen coordinates...
	Successfully converged to displaced geometry.

	--- Internal Coordinate Step in ANG or DEG, aJ/ANG or AJ/DEG ---
	 ---------------------------------------------------------------------------
	   Coordinate                Previous        Force       Change         New 
	   ----------                --------       ------       ------       ------
	    1 R(1,2)          =      1.413488     0.003444     0.003791     1.417279
	    2 R(1,6)          =      1.412778    -0.018998     0.001096     1.413874
	    3 R(1,7)          =      1.465278    -0.015348    -0.003174     1.462105
	    4 R(2,3)          =      1.390989    -0.014070    -0.001887     1.389102
	    5 R(2,8)          =      1.087989    -0.013820    -0.000959     1.087030
	    6 R(3,4)          =      1.400047    -0.009534     0.000571     1.400618
	    7 R(3,9)          =      1.085883    -0.004503     0.000179     1.086062
	    8 R(4,5)          =      1.401234    -0.018636     0.000069     1.401304
	    9 R(4,10)         =      1.085907    -0.001319    -0.000065     1.085842
	   10 R(5,6)          =      1.389093    -0.002165    -0.000852     1.388240
	   11 R(5,11)         =      1.087136    -0.011783     0.000154     1.087290
	   12 R(6,12)         =      1.088561    -0.020057     0.000327     1.088888
	   13 R(7,13)         =      1.373577    -0.029487     0.013601     1.387178
	   14 R(7,14)         =      1.329885    -0.082994    -0.001693     1.328192
	   15 R(13,17)        =      1.011767    -0.008959     0.000605     1.012372
	   16 R(13,18)        =      1.015094    -0.032402     0.013663     1.028757
	   17 R(14,15)        =      1.016225    -0.006472     0.004676     1.020901
	   18 R(14,16)        =      1.038425    -0.168289    -0.000743     1.037682
	   19 B(1,2,3)        =    119.729309     0.000064     0.199485   119.928794
	   20 B(1,2,8)        =    120.543925     0.000130     0.686130   121.230055
	   21 B(1,6,5)        =    119.701117     0.000136     0.400125   120.101242
	   22 B(1,6,12)       =    120.781005    -0.000145    -0.361414   120.419590
	   23 B(1,7,13)       =    123.054427    -0.000339    -0.086565   122.967862
	   24 B(1,7,14)       =    118.157404     0.001072     2.512026   120.669430
	   25 B(2,1,6)        =    119.956774    -0.000174    -0.528824   119.427950
	   26 B(2,1,7)        =    119.966846     0.000535     1.597292   121.564138
	   27 B(2,3,4)        =    119.966259     0.000038     0.075492   120.041751
	   28 B(2,3,9)        =    119.735837    -0.000008    -0.037104   119.698733
	   29 B(3,2,8)        =    119.605261    -0.000196    -0.929215   118.676046
	   30 B(3,4,5)        =    120.542512    -0.000045    -0.062555   120.479957
	   31 B(3,4,10)       =    119.754307     0.000014     0.010932   119.765239
	   32 B(4,3,9)        =    120.297056    -0.000030    -0.040756   120.256300
	   33 B(4,5,6)        =    120.073640    -0.000019    -0.108408   119.965232
	   34 B(4,5,11)       =    120.260267    -0.000021    -0.000451   120.259817
	   35 B(5,4,10)       =    119.700668     0.000031     0.042325   119.742992
	   36 B(5,6,12)       =    119.493628     0.000010    -0.017205   119.476423
	   37 B(6,1,7)        =    120.068473    -0.000362    -1.092832   118.975641
	   38 B(6,5,11)       =    119.664002     0.000040     0.102697   119.766700
	   39 B(7,13,17)      =    120.803489     0.000106     0.715468   121.518957
	   40 B(7,13,18)      =    122.728142    -0.000302    -1.872558   120.855585
	   41 B(7,14,15)      =    120.682271    -0.000068    -1.388815   119.293457
	   42 B(7,14,16)      =    122.086051     0.000023     1.125655   123.211706
	   43 B(13,7,14)      =    118.490402    -0.000734    -2.609622   115.880780
	   44 B(15,14,16)     =    117.226984     0.000045     0.242716   117.469700
	   45 B(17,13,18)     =    116.467311     0.000193    -0.269310   116.198001
	   46 D(1,2,3,4)      =      1.641904    -0.000002    -0.036299     1.605605
	   47 D(1,2,3,9)      =   -178.024143     0.000001     0.280352  -177.743791
	   48 D(1,6,5,4)      =      1.586078     0.000002     0.613840     2.199918
	   49 D(1,6,5,11)     =   -178.938492     0.000001     0.096255  -178.842237
	   50 *D(1,7,13,17)   =    -70.000019    -0.000000    -0.000000   -70.000019
	   51 D(1,7,13,18)    =    110.387360     0.000114    13.766253   124.153613
	   52 D(1,7,14,15)    =   -173.696607    -0.000022    -2.532664  -176.229271
	   53 D(1,7,14,16)    =      5.493154    -0.000018    -3.593947     1.899207
	   54 D(2,1,6,5)      =     -0.981572    -0.000006    -1.174972    -2.156544
	   55 D(2,1,6,12)     =   -179.181265    -0.000014    -2.369451  -181.550716
	   56 D(2,1,7,13)     =   -148.471574    -0.000022    -6.507655  -154.979229
	   57 D(2,1,7,14)     =     25.159164    -0.000035    -8.434895    16.724269
	   58 D(2,3,4,5)      =     -1.047605    -0.000002    -0.534793    -1.582398
	   59 D(2,3,4,10)     =    179.530796     0.000002     0.140170   179.670966
	   60 D(3,2,1,6)      =     -0.637888     0.000007     0.882952     0.245064
	   61 D(3,2,1,7)      =    178.340043    -0.000000    -0.182809   178.157234
	   62 D(3,4,5,6)      =     -0.586297     0.000003     0.249427    -0.336871
	   63 D(3,4,5,11)     =    179.941429     0.000004     0.769050   180.710479
	   64 D(4,3,2,8)      =    177.657060    -0.000004    -0.663393   176.993667
	   65 D(4,5,6,12)     =    179.809111     0.000009     1.790697   181.599808
	   66 D(5,4,3,9)      =    178.616547    -0.000005    -0.853211   177.763336
	   67 D(5,6,1,7)      =   -179.958455    -0.000001    -0.164628  -180.123082
	   68 D(6,1,2,8)      =   -176.614996     0.000012     1.592297  -175.022698
	   69 D(6,1,7,13)     =     30.505205    -0.000029    -7.563068    22.942138
	   70 D(6,1,7,14)     =   -155.864056    -0.000042    -9.490308  -165.354364
	   71 D(6,5,4,10)     =    178.835610    -0.000001    -0.425567   178.410043
	   72 D(7,1,2,8)      =      2.362935     0.000005     0.526537     2.889472
	   73 D(7,1,6,12)     =      1.841852    -0.000009    -1.359106     0.482746
	   74 D(8,2,3,9)      =     -2.008987    -0.000002    -0.346742    -2.355729
	   75 D(9,3,4,10)     =     -0.805052    -0.000001    -0.178248    -0.983300
	   76 D(10,4,5,11)    =     -0.636663     0.000000     0.094056    -0.542607
	   77 D(11,5,6,12)    =     -0.715458     0.000007     1.273112     0.557654
	   78 D(13,7,14,15)   =      0.230538    -0.000030    -4.192761    -3.962223
	   79 D(13,7,14,16)   =    179.420299    -0.000027    -5.254044   174.166255
	   80 D(14,7,13,17)   =    116.389309    -0.000012     1.539791   117.929100
	   81 D(14,7,13,18)   =    -63.223312     0.000102    15.306044   -47.917268
	 ---------------------------------------------------------------------------
	Successfully symmetrized geometry.

  ==> Convergence Check <==

  Measures of convergence in internal coordinates in au.
  Criteria marked as inactive (o), active & met (*), and active & unmet ( ).
  ---------------------------------------------------------------------------------------------
   Step     Total Energy     Delta E     MAX Force     RMS Force      MAX Disp      RMS Disp   
  ---------------------------------------------------------------------------------------------
    Convergence Criteria    1.00e-06 *    3.00e-04 *             o    1.20e-03 *             o
  ---------------------------------------------------------------------------------------------
      2    -381.43441014   -7.11e-03      2.04e-02      3.71e-03 o    2.67e-01      5.50e-02 o  ~
  ---------------------------------------------------------------------------------------------

	Writing optimization data to binary file.
	Structure for next step:
	Cartesian Geometry (in Angstrom)
	    C     0.0580977598  -0.0057694523  -0.1505122035
	    C     0.2133492644   1.2081734171   0.5642739568
	    C     0.1770244754   1.2043221386   1.9528951593
	    C     0.0208701258  -0.0022034406   2.6468991510
	    C    -0.1328663242  -1.2082365656   1.9501202017
	    C    -0.1380253841  -1.2111964110   0.5618926505
	    C     0.0507096565  -0.0376712451  -1.6122503245
	    H     0.2855692594   2.1615119589   0.0470081094
	    H     0.2595424197   2.1412581858   2.4959163340
	    H    -0.0015530046  -0.0006312246   3.7325087139
	    H    -0.2653749755  -2.1412739068   2.4924131221
	    H    -0.2842430495  -2.1492397975   0.0286270113
	    N    -0.5737449615  -1.0383418548  -2.3423027251
	    N     0.5106934243   0.9914449021  -2.3146946512
	    H     0.4424803808   0.9714619660  -3.3331178918
	    H     0.9171410497   1.8408824657  -1.8787596995
	    H    -0.2103827070  -1.9830104716  -2.3638940450
	    H    -1.2877114093  -0.8101406641  -3.0469418695
			--------------------------
			 OPTKING Finished Execution 
			--------------------------

    Structure for next step:
    Molecular point group: c1
    Full point group: C1

    Geometry (in Angstrom), charge = 1, multiplicity = 1:

    C            0.058097759836    -0.005769452343    -0.150512203470
    C            0.213349264383     1.208173417095     0.564273956847
    C            0.177024475446     1.204322138607     1.952895159291
    C            0.020870125764    -0.002203440642     2.646899150973
    C           -0.132866324167    -1.208236565613     1.950120201750
    C           -0.138025384147    -1.211196411034     0.561892650550
    C            0.050709656503    -0.037671245129    -1.612250324467
    H            0.285569259430     2.161511958864     0.047008109373
    H            0.259542419655     2.141258185779     2.495916333992
    H           -0.001553004590    -0.000631224555     3.732508713904
    H           -0.265374975543    -2.141273906829     2.492413122104
    H           -0.284243049515    -2.149239797499     0.028627011254
    N           -0.573744961520    -1.038341854810    -2.342302725107
    N            0.510693424274     0.991444902094    -2.314694651232
    H            0.442480380786     0.971461966038    -3.333117891757
    H            0.917141049657     1.840882465686    -1.878759699459
    H           -0.210382706994    -1.983010471634    -2.363894045040
    H           -1.287711409257    -0.810140664074    -3.046941869507

gradient() will perform analytic gradient computation.

*** tstart() called on rosa.prib.upf.edu
*** at Sat Sep 29 20:25:49 2018

   => Loading Basis Set <=

    Name: 6-31G*
    Role: ORBITAL
    Keyword: BASIS
    atoms 1-7         entry C          line   111 file /shared/joao/test_parameterize/miniconda3/share/psi4/basis/6-31gs.gbs 
[...]
	             0.0000077168       -0.0000002897       -0.0000025801
	             0.0000020816        0.0000131200       -0.0000086564
	             0.0000177025       -0.0000142802       -0.0000111866
	            -0.0121508540       -0.0080827577        0.0159885148
	             0.0001064624        0.0001036761        0.0000080912
	             0.0000000398       -0.0000009146        0.0000095453
	             0.0000148087       -0.0000683900       -0.0000391869
	             0.0051134059        0.0063178852       -0.0119501535
	            -0.0000062226       -0.0000219409        0.0000081695

	---Fragment 1 Intrafragment Coordinates---
	 - Coordinate -           - BOHR/RAD -       - ANG/DEG -
	 R(1,2)           =         2.669422	       1.412597
	 R(1,6)           =         2.666110	       1.410845
	 R(1,7)           =         2.746942	       1.453619
	 R(2,3)           =         2.623147	       1.388109
	 R(2,8)           =         2.053794	       1.086821
	 R(3,4)           =         2.646972	       1.400717
	 R(3,9)           =         2.050453	       1.085053
	 R(4,5)           =         2.643126	       1.398682
	 R(4,10)          =         2.051912	       1.085825
	 R(5,6)           =         2.626889	       1.390090
	 R(5,11)          =         2.050528	       1.085093
	 R(6,12)          =         2.049388	       1.084489
	 R(7,13)          =         2.579238	       1.364874
	 R(7,14)          =         2.508481	       1.327431
	 R(13,17)         =         1.923399	       1.017819
	 R(13,18)         =         1.924792	       1.018556
	 R(14,15)         =         1.916131	       1.013973
	 R(14,16)         =         1.915199	       1.013479
	 B(1,2,3)         =         2.091156	     119.814438
	 B(1,2,8)         =         2.103877	     120.543247
	 B(1,6,5)         =         2.087434	     119.601142
	 B(1,6,12)        =         2.090785	     119.793144
	 B(1,7,13)        =         2.086818	     119.565860
	 B(1,7,14)        =         2.098120	     120.213400
	 B(2,1,6)         =         2.094525	     120.007447
	 B(2,1,7)         =         2.106584	     120.698348
	 B(2,3,4)         =         2.092293	     119.879543
	 B(2,3,9)         =         2.093308	     119.937738
	 B(3,2,8)         =         2.086958	     119.573908
	 B(3,4,5)         =         2.104783	     120.595204
	 B(3,4,10)        =         2.088340	     119.653050
	 B(4,3,9)         =         2.097457	     120.175407
	 B(4,5,6)         =         2.095939	     120.088457
	 B(4,5,11)        =         2.097106	     120.155304
	 B(5,4,10)        =         2.090052	     119.751172
	 B(5,6,12)        =         2.104016	     120.551240
	 B(6,1,7)         =         2.082074	     119.294065
	 B(6,5,11)        =         2.090098	     119.753803
	 B(7,13,17)       =         2.033174	     116.492308
	 B(7,13,18)       =         2.005083	     114.882773
	 B(7,14,15)       =         2.135193	     122.337576
	 B(7,14,16)       =         2.107143	     120.730427
	 B(13,7,14)       =         2.081699	     119.272545
	 B(15,14,16)      =         2.039823	     116.873231
	 B(17,13,18)      =         1.903288	     109.050347
	 D(1,2,3,4)       =         0.006560	       0.375848
	 D(1,2,3,9)       =         3.131016	     179.393976
	 D(1,6,5,4)       =        -0.011248	      -0.644484
	 D(1,6,5,11)      =         3.120451	     178.788659
	*D(1,7,13,17)     =        -1.221731	     -70.000019
	 D(1,7,13,18)     =         2.804995	     160.714382
	 D(1,7,14,15)     =         3.054343	     175.000981
	 D(1,7,14,16)     =        -0.137442	      -7.874847
	 D(2,1,6,5)       =         0.023961	       1.372839
	 D(2,1,6,12)      =         3.118970	     178.703831
	 D(2,1,7,13)      =         2.765178	     158.433042
	 D(2,1,7,14)      =        -0.572257	     -32.787925
	 D(2,3,4,5)       =         0.006223	       0.356554
	 D(2,3,4,10)      =        -3.140191	    -179.919675
	 D(3,2,1,6)       =        -0.021646	      -1.240228
	 D(3,2,1,7)       =         3.117552	     178.622551
	 D(3,4,5,6)       =        -0.003850	      -0.220612
	 D(3,4,5,11)      =        -3.135509	    -179.651461
	 D(4,3,2,8)       =        -3.082831	    -176.633222
	 D(4,5,6,12)      =        -3.105898	    -177.954851
	 D(5,4,3,9)       =        -3.118192	    -178.659214
	 D(5,6,1,7)       =        -3.115271	    -178.491868
	 D(6,1,2,8)       =         3.067231	     175.739387
	 D(6,1,7,13)      =        -0.378792	     -21.703210
	 D(6,1,7,14)      =         2.566957	     147.075822
	 D(6,5,4,10)      =        -3.140617	    -179.944113
	 D(7,1,2,8)       =        -0.076757	      -4.397835
	 D(7,1,6,12)      =        -0.020261	      -1.160875
	 D(8,2,3,9)       =         0.041624	       2.384907
	 D(9,3,4,10)      =         0.018580	       1.064557
	 D(10,4,5,11)     =         0.010909	       0.625038
	 D(11,5,6,12)     =         0.025801	       1.478292
	 D(13,7,14,15)    =        -0.282520	     -16.187221
	 D(13,7,14,16)    =         2.808880	     160.936950
	 D(14,7,13,17)    =         2.113852	     121.114813
	 D(14,7,13,18)    =        -0.142607	      -8.170786

	Current energy   :      -381.4575788143

	Energy change for the previous step:
		Projected    :        -0.0000000125
		Actual       :        -0.0000008289

	Performing BFGS update.
	Previous computed or guess Hessian on step 1.
	Steps to be used in Hessian update: 8 7
	Taking RFO optimization step.
	Going to follow RFO solution 1.
	Rejecting RFO root 1 because normalization gives large value.
	Using RFO vector 2.
	Norm of target step-size    0.15643
	Projected energy change by RFO approximation:         0.0001391509

	Back-transformation to cartesian coordinates...
	Could not converge backtransformation.
	Using first guess instead.

	Back-transformation to cartesian coordinates to adjust frozen coordinates...
	Successfully converged to displaced geometry.

	--- Internal Coordinate Step in ANG or DEG, aJ/ANG or AJ/DEG ---
	 ---------------------------------------------------------------------------
	   Coordinate                Previous        Force       Change         New 
	   ----------                --------       ------       ------       ------
	    1 R(1,2)          =      1.412597    -0.000124     0.001206     1.413803
	    2 R(1,6)          =      1.410845     0.000207     0.001676     1.412520
	    3 R(1,7)          =      1.453619     0.000624    -0.002469     1.451150
	    4 R(2,3)          =      1.388109     0.000141    -0.000508     1.387601
	    5 R(2,8)          =      1.086821     0.000169     0.001209     1.088030
	    6 R(3,4)          =      1.400717     0.000170     0.001977     1.402694
	    7 R(3,9)          =      1.085053     0.000102     0.000883     1.085936
	    8 R(4,5)          =      1.398682     0.000078     0.000717     1.399399
	    9 R(4,10)         =      1.085825     0.000017     0.000042     1.085866
	   10 R(5,6)          =      1.390090     0.000227    -0.000080     1.390010
	   11 R(5,11)         =      1.085093     0.000125     0.001103     1.086196
	   12 R(6,12)         =      1.084489    -0.000078     0.000278     1.084767
	   13 R(7,13)         =      1.364874     0.000078     0.005088     1.369962
	   14 R(7,14)         =      1.327431    -0.000208     0.004924     1.332355
	   15 R(13,17)        =      1.017819     0.000315     0.004313     1.022133
	   16 R(13,18)        =      1.018556     0.000064     0.000408     1.018964
	   17 R(14,15)        =      1.013973     0.000084     0.000363     1.014336
	   18 R(14,16)        =      1.013479     0.000654     0.003044     1.016523
	   19 B(1,2,3)        =    119.814438     0.000000     0.051868   119.866305
	   20 B(1,2,8)        =    120.543247     0.000001     0.224071   120.767318
	   21 B(1,6,5)        =    119.601142     0.000000     0.139717   119.740858
	   22 B(1,6,12)       =    119.793144     0.000001    -0.044090   119.749053
	   23 B(1,7,13)       =    119.565860     0.000002     0.413469   119.979329
	   24 B(1,7,14)       =    120.213400    -0.000001     0.178252   120.391652
	   25 B(2,1,6)        =    120.007447     0.000000    -0.129470   119.877977
	   26 B(2,1,7)        =    120.698348    -0.000002     0.205666   120.904014
	   27 B(2,3,4)        =    119.879543     0.000000     0.010369   119.889912
	   28 B(2,3,9)        =    119.937738    -0.000000    -0.068722   119.869016
	   29 B(3,2,8)        =    119.573908    -0.000001    -0.303837   119.270070
	   30 B(3,4,5)        =    120.595204    -0.000000     0.004011   120.599215
	   31 B(3,4,10)       =    119.653050     0.000000    -0.011869   119.641181
	   32 B(4,3,9)        =    120.175407     0.000000     0.055209   120.230616
	   33 B(4,5,6)        =    120.088457    -0.000000    -0.076332   120.012126
	   34 B(4,5,11)       =    120.155304     0.000000     0.091332   120.246636
	   35 B(5,4,10)       =    119.751172    -0.000000     0.007165   119.758337
	   36 B(5,6,12)       =    120.551240    -0.000001    -0.108139   120.443101
	   37 B(6,1,7)        =    119.294065     0.000002    -0.076230   119.217835
	   38 B(6,5,11)       =    119.753803     0.000000    -0.015712   119.738091
	   39 B(7,13,17)      =    116.492308    -0.000001     0.737904   117.230212
	   40 B(7,13,18)      =    114.882773    -0.000001     0.528429   115.411201
	   41 B(7,14,15)      =    122.337576     0.000000    -0.253866   122.083710
	   42 B(7,14,16)      =    120.730427    -0.000000     0.349754   121.080182
	   43 B(13,7,14)      =    119.272545    -0.000002    -0.686377   118.586168
	   44 B(15,14,16)     =    116.873231     0.000000    -0.319060   116.554171
	   45 B(17,13,18)     =    109.050347     0.000002    -1.293978   107.756369
	   46 D(1,2,3,4)      =      0.375848     0.000000     0.437866     0.813714
	   47 D(1,2,3,9)      =    179.393976     0.000000     0.246296   179.640272
	   48 D(1,6,5,4)      =     -0.644484     0.000000     0.512043    -0.132441
	   49 D(1,6,5,11)     =    178.788659     0.000000     0.435123   179.223782
	   50 *D(1,7,13,17)   =    -70.000019     0.000000    -0.000000   -70.000019
	   51 D(1,7,13,18)    =    160.714382    -0.000000     0.662836   161.377218
	   52 D(1,7,14,15)    =    175.000981     0.000001     1.908644   176.909625
	   53 D(1,7,14,16)    =     -7.874847     0.000001    -1.525617    -9.400464
	   54 D(2,1,6,5)      =      1.372839    -0.000000    -0.306752     1.066087
	   55 D(2,1,6,12)     =    178.703831    -0.000000    -0.600463   178.103368
	   56 D(2,1,7,13)     =    158.433042     0.000001     3.866332   162.299374
	   57 D(2,1,7,14)     =    -32.787925    -0.000001     3.245200   -29.542725
	   58 D(2,3,4,5)      =      0.356554    -0.000000    -0.232201     0.124353
	   59 D(2,3,4,10)     =   -179.919675     0.000000    -0.366396  -180.286071
	   60 D(3,2,1,6)      =     -1.240228     0.000000    -0.169457    -1.409684
	   61 D(3,2,1,7)      =    178.622551    -0.000000     0.121006   178.743557
	   62 D(3,4,5,6)      =     -0.220612     0.000000    -0.248337    -0.468948
	   63 D(3,4,5,11)     =   -179.651461     0.000000    -0.170404  -179.821865
	   64 D(4,3,2,8)      =   -176.633222    -0.000000     0.987138  -175.646083
	   65 D(4,5,6,12)     =   -177.954851     0.000000     0.806022  -177.148829
	   66 D(5,4,3,9)      =   -178.659214    -0.000000    -0.038699  -178.697913
	   67 D(5,6,1,7)      =   -178.491868    -0.000000    -0.592699  -179.084567
	   68 D(6,1,2,8)      =    175.739387     0.000000    -0.743206   174.996181
	   69 D(6,1,7,13)     =    -21.703210     0.000001     4.154828   -17.548382
	   70 D(6,1,7,14)     =    147.075822    -0.000001     3.533696   150.609519
	   71 D(6,5,4,10)     =   -179.944113    -0.000000    -0.113933  -180.058045
	   72 D(7,1,2,8)      =     -4.397835     0.000000    -0.452743    -4.850578
	   73 D(7,1,6,12)     =     -1.160875    -0.000000    -0.886410    -2.047286
	   74 D(8,2,3,9)      =      2.384907     0.000000     0.795568     3.180475
	   75 D(9,3,4,10)     =      1.064557    -0.000000    -0.172893     0.891663
	   76 D(10,4,5,11)    =      0.625038    -0.000000    -0.036001     0.589038
	   77 D(11,5,6,12)    =      1.478292     0.000000     0.729102     2.207394
	   78 D(13,7,14,15)   =    -16.187221    -0.000001     1.417409   -14.769812
	   79 D(13,7,14,16)   =    160.936950    -0.000001    -2.016852   158.920099
	   80 D(14,7,13,17)   =    121.114813     0.000001     0.515134   121.629948
	   81 D(14,7,13,18)   =     -8.170786     0.000001     1.177971    -6.992815
	 ---------------------------------------------------------------------------
	Successfully symmetrized geometry.

  ==> Convergence Check <==

  Measures of convergence in internal coordinates in au.
  Criteria marked as inactive (o), active & met (*), and active & unmet ( ).
  ---------------------------------------------------------------------------------------------
   Step     Total Energy     Delta E     MAX Force     RMS Force      MAX Disp      RMS Disp   
  ---------------------------------------------------------------------------------------------
    Convergence Criteria    1.00e-06 *    3.00e-04 *             o    1.20e-03 *             o
  ---------------------------------------------------------------------------------------------
      9    -381.45757881   -8.29e-07 *    7.94e-05 *    2.37e-05 o    7.25e-02      1.74e-02 o  ~
  ---------------------------------------------------------------------------------------------


  **** Optimization is complete! (in 9 steps) ****

  ==> Optimization Summary <==

  Measures of convergence in internal coordinates in au.
  --------------------------------------------------------------------------------------------------------------- ~
   Step         Total Energy             Delta E       MAX Force       RMS Force        MAX Disp        RMS Disp  ~
  --------------------------------------------------------------------------------------------------------------- ~
      1    -381.447295871557   -381.447295871557      0.04939009      0.00682173      0.12497651      0.02198751  ~
      2    -381.453496353385     -0.006200481828      0.00649968      0.00178678      0.10539918      0.02220521  ~
      3    -381.454912022265     -0.001415668881      0.00518983      0.00109658      0.10167894      0.02219302  ~
      4    -381.456058407520     -0.001146385254      0.00233187      0.00083387      0.09825166      0.02220498  ~
      5    -381.456938197243     -0.000879789723      0.00235167      0.00065696      0.10107295      0.02221051  ~
      6    -381.457448481326     -0.000510284083      0.00236092      0.00052592      0.08666754      0.01797712  ~
      7    -381.457561466929     -0.000112985603      0.00190264      0.00031607      0.01563017      0.00403947  ~
      8    -381.457577985385     -0.000016518456      0.00029042      0.00005904      0.00324050      0.00087394  ~
      9    -381.457578814327     -0.000000828942      0.00007942      0.00002373      0.07251543      0.01739291  ~
  --------------------------------------------------------------------------------------------------------------- ~

	Writing optimization data to binary file.
	Final energy is   -381.4575788143272
	Final (previous) structure:
	Cartesian Geometry (in Angstrom)
	    C     0.0343119701  -0.0136521741  -0.1556446057
	    C     0.5543518883   1.0948406576   0.5487931403
	    C     0.5384603439   1.0997234013   1.9368029433
	    C     0.0143738570   0.0027631529   2.6325182072
	    C    -0.4881177609  -1.1045314828   1.9413505794
	    C    -0.4753783262  -1.1230335233   0.5514422585
	    C     0.0140964815  -0.0262160495  -1.6090687070
	    H     1.0117088045   1.9235307556   0.0146799294
	    H     0.9463436054   1.9458109093   2.4800402916
	    H     0.0025694161   0.0110297702   3.7182475153
	    H    -0.8976350107  -1.9480671459   2.4873998282
	    H    -0.8930513542  -1.9631287970   0.0074697733
	    N    -0.0628326319  -1.2172126552  -2.2712548980
	    N    -0.1539932786   1.1040489118  -2.2845832742
	    H    -0.0995484995   1.1444863091  -3.2962856886
	    H    -0.3875152723   1.9650145664  -1.8035986646
	    H     0.7611318759  -1.8133542203  -2.2305913775
	    H    -0.3777001084  -1.1507123862  -3.2376362508
	Saving final (previous) structure.
	Removing binary optimization data file.
			--------------------------
			 OPTKING Finished Execution 
			--------------------------

    Final optimized geometry and variables:
    Molecular point group: c1
    Full point group: C1

    Geometry (in Angstrom), charge = 1, multiplicity = 1:

    C            0.034311970149    -0.013652174054    -0.155644605748
    C            0.554351888318     1.094840657631     0.548793140292
    C            0.538460343873     1.099723401347     1.936802943334
    C            0.014373856999     0.002763152859     2.632518207198
    C           -0.488117760929    -1.104531482823     1.941350579362
    C           -0.475378326174    -1.123033523294     0.551442258470
    C            0.014096481476    -0.026216049507    -1.609068707033
    H            1.011708804490     1.923530755566     0.014679929407
    H            0.946343605425     1.945810909267     2.480040291607
    H            0.002569416064     0.011029770232     3.718247515284
    H           -0.897635010708    -1.948067145934     2.487399828221
    H           -0.893051354226    -1.963128796970     0.007469773312
    N           -0.062832631916    -1.217212655168    -2.271254898010
    N           -0.153993278627     1.104048911776    -2.284583274188
    H           -0.099548499458     1.144486309096    -3.296285688647
    H           -0.387515272297     1.965014566447    -1.803598664550
    H            0.761131875904    -1.813354220321    -2.230591377470
    H           -0.377700108364    -1.150712386152    -3.237636250840

	Removing binary optimization data file.
	Cleaning optimization helper files.


Properties will be evaluated at   0.000000,   0.000000,   0.000000 [a0]
OEProp: No title given, name of density matrix used for the following properties is 'SCF density'
  Nuclear Dipole Moment: [e a0]
     X:    -0.5648      Y:    -2.0752      Z:     2.5058

  Electronic Dipole Moment: [e a0]
     X:     0.7297      Y:     2.3581      Z:    -4.7069

  Dipole Moment: [e a0]
     X:     0.1648      Y:     0.2829      Z:    -2.2011     Total:     2.2253

  Dipole Moment: [D]
     X:     0.4190      Y:     0.7190      Z:    -5.5946     Total:     5.6562

  Quadrupole Moment: [D A]
    XX:   -51.3966     YY:   -36.9174     ZZ:   -12.3174
    XY:     0.7053     XZ:    -0.4022     YZ:    -0.7982

  Traceless Quadrupole Moment: [D A]
    XX:   -17.8528     YY:    -3.3736     ZZ:    21.2264
    XY:     0.7053     XZ:    -0.4022     YZ:    -0.7982

  Mulliken Charges: (a.u.)
   Center  Symbol    Alpha    Beta     Spin     Total
       1     C     2.95079  2.95079  0.00000  0.09841
       2     C     3.08463  3.08463  0.00000 -0.16926
       3     C     3.06274  3.06274  0.00000 -0.12548
       4     C     3.04973  3.04973  0.00000 -0.09946
       5     C     3.06261  3.06261  0.00000 -0.12522
       6     C     3.07163  3.07163  0.00000 -0.14325
       7     C     2.75683  2.75683  0.00000  0.48633
       8     H     0.41547  0.41547  0.00000  0.16906
       9     H     0.40495  0.40495  0.00000  0.19011
      10     H     0.40259  0.40259  0.00000  0.19482
      11     H     0.40443  0.40443  0.00000  0.19114
      12     H     0.40417  0.40417  0.00000  0.19167
      13     N     3.85804  3.85804  0.00000 -0.71608
      14     N     3.84889  3.84889  0.00000 -0.69777
      15     H     0.30472  0.30472  0.00000  0.39057
      16     H     0.29931  0.29931  0.00000  0.40138
      17     H     0.30246  0.30246  0.00000  0.39507
      18     H     0.31602  0.31602  0.00000  0.36797

   Total alpha = 32.00000, Total beta = 32.00000, Total charge =  1.00000


    Psi4 stopped on: Saturday, 29 September 2018 08:32PM
    Psi4 wall time for execution: 0:07:46.80

*** Psi4 exiting successfully. Buy a developer a beer!
