
    -----------------------------------------------------------------------
          Psi4: An Open-Source Ab Initio Electronic Structure Package
                               Psi4 1.2.1 release

                         Git: Rev {HEAD} 406f4de 


    R. M. Parrish, L. A. Burns, D. G. A. Smith, A. C. Simmonett,
    A. E. DePrince III, E. G. Hohenstein, U. Bozkaya, A. Yu. Sokolov,
    R. Di Remigio, R. M. Richard, J. F. Gonthier, A. M. James,
    H. R. McAlexander, A. Kumar, M. Saitow, X. Wang, B. P. Pritchard,
    P. Verma, H. F. Schaefer III, K. Patkowski, R. A. King, E. F. Valeev,
    F. A. Evangelista, J. M. Turney, T. D. Crawford, and C. D. Sherrill,
    J. Chem. Theory Comput. 13(7) pp 3185--3197 (2017).
    (doi: 10.1021/acs.jctc.7b00174)


                         Additional Contributions by
    P. Kraus, H. Kruse, M. H. Lechner, M. C. Schieber, and R. A. Shaw

    -----------------------------------------------------------------------


    Psi4 started on: Saturday, 29 September 2018 05:09PM

    Process ID: 13493
    Host:       loro.prib.upf.edu
    PSIDATADIR: /shared/joao/test_parameterize/miniconda3/share/psi4
    Memory:     500.0 MiB
    Threads:    1
    
  ==> Input File <==

--------------------------------------------------------------------------
set_num_threads(1)
set_memory('5348 MB')

set { scf_mem_safety_factor 0.7 }

set { reference rks }
set { basis cc-pVDZ }

molecule MOL {
    0 1
    noreorient
    nocom
    symmetry c1
    O    1.050400   0.042900  -0.048100
    C    2.474100   0.047400  -0.029000
    C    3.002600  -1.068900  -0.932000
    N    4.462700  -1.072400  -1.006800
    H    0.760400   0.728400   0.578000
    H    2.809900  -0.097900   1.003200
    H    2.817400   1.026800  -0.378600
    H    2.581000  -0.963300  -1.938400
    H    2.653800  -2.036400  -0.553400
    H    4.846334  -0.714656  -0.132542
    H    4.755720  -0.415090  -1.729527
}

set optking { frozen_dihedral = (" 2 3 4 10 ") }

energy, wfn = energy('B3LYP-D3', return_wfn=True)

import os
os.chdir(os.environ['HTMD_PSI4_WORKDIR'])

oeprop(wfn, 'DIPOLE', 'QUADRUPOLE', 'MULLIKEN_CHARGES')

with open('psi4out.xyz', 'w') as f:
    f.write('11 ' )
    f.write('%.12f\n' % energy)
    f.write(MOL.save_string_xyz())
--------------------------------------------------------------------------
  Threads set to 1 by Python driver.

  Memory set to   4.981 GiB by Python driver.

*** tstart() called on loro.prib.upf.edu
*** at Sat Sep 29 17:09:48 2018

   => Loading Basis Set <=

    Name: CC-PVDZ
    Role: ORBITAL
    Keyword: BASIS
    atoms 1    entry O          line   198 file /shared/joao/test_parameterize/miniconda3/share/psi4/basis/cc-pvdz.gbs 
    atoms 2-3  entry C          line   138 file /shared/joao/test_parameterize/miniconda3/share/psi4/basis/cc-pvdz.gbs 
    atoms 4    entry N          line   168 file /shared/joao/test_parameterize/miniconda3/share/psi4/basis/cc-pvdz.gbs 
    atoms 5-11 entry H          line    22 file /shared/joao/test_parameterize/miniconda3/share/psi4/basis/cc-pvdz.gbs 


         ---------------------------------------------------------
                                   SCF
            by Justin Turney, Rob Parrish, Andy Simmonett
                             and Daniel Smith
                              RKS Reference
                        1 Threads,   5100 MiB Core
         ---------------------------------------------------------

  ==> Geometry <==

    Molecular point group: c1
    Full point group: C1

    Geometry (in Angstrom), charge = 0, multiplicity = 1:

       Center              X                  Y                   Z               Mass       
    ------------   -----------------  -----------------  -----------------  -----------------
         O            1.050400000000     0.042900000000    -0.048100000000    15.994914619560
         C            2.474100000000     0.047400000000    -0.029000000000    12.000000000000
         C            3.002600000000    -1.068900000000    -0.932000000000    12.000000000000
         N            4.462700000000    -1.072400000000    -1.006800000000    14.003074004780
         H            0.760400000000     0.728400000000     0.578000000000     1.007825032070
         H            2.809900000000    -0.097900000000     1.003200000000     1.007825032070
         H            2.817400000000     1.026800000000    -0.378600000000     1.007825032070
         H            2.581000000000    -0.963300000000    -1.938400000000     1.007825032070
         H            2.653800000000    -2.036400000000    -0.553400000000     1.007825032070
         H            4.846334000000    -0.714656000000    -0.132542000000     1.007825032070
         H            4.755720000000    -0.415090000000    -1.729527000000     1.007825032070

  Running in c1 symmetry.

  Rotational constants: A =      0.72267  B =      0.02779  C =      0.02714 [cm^-1]
  Rotational constants: A =  21665.21931  B =    833.18474  C =    813.52620 [MHz]
  Nuclear repulsion =  130.866560127821003

  Charge       = 0
  Multiplicity = 1
  Electrons    = 34
  Nalpha       = 17
  Nbeta        = 17

  ==> Algorithm <==

  SCF Algorithm Type is DF.
  DIIS enabled.
  MOM disabled.
  Fractional occupation disabled.
  Guess Type is SAD.
  Energy threshold   = 1.00e-06
  Density threshold  = 1.00e-06
  Integral threshold = 0.00e+00

  ==> Primary Basis <==

  Basis Set: CC-PVDZ
    Blend: CC-PVDZ
    Number of shells: 45
    Number of basis function: 91
    Number of Cartesian functions: 95
    Spherical Harmonics?: true
    Max angular momentum: 2

  ==> DFT Potential <==

   => Composite Functional: B3LYP-D3ZERO <= 

    B3LYP-d3zero Hyb-GGA Exchange-Correlation Functional

    P. J. Stephens, F. J. Devlin, C. F. Chabalowski, and M. J. Frisch, J. Phys. Chem. 98, 11623 (1994)

    Deriv               =              1
    GGA                 =           TRUE
    Meta                =          FALSE

    Exchange Hybrid     =           TRUE
    MP2 Hybrid          =          FALSE

   => Exchange Functionals <=

    0.0800   Slater exchange
    0.7200         Becke 88

   => Exact (HF) Exchange <=

    0.2000               HF 

   => Correlation Functionals <=

    0.1900   Vosko, Wilk & Nusair (VWN5_RPA)
    0.8100   Lee, Yang & Parr

   => Molecular Quadrature <=

    Radial Scheme       =       TREUTLER
    Pruning Scheme      =           FLAT
    Nuclear Scheme      =       TREUTLER

    BS radius alpha     =              1
    Pruning alpha       =              1
    Radial Points       =             75
    Spherical Points    =            302
    Total Points        =         245070
    Total Blocks        =           1884
    Max Points          =            256
    Max Functions       =             91

   => -D3ZERO: Empirical Dispersion <=

    Grimme's -D3 (zero-damping) Dispersion Correction
    Grimme S.; Antony J.; Ehrlich S.; Krieg H. (2010), J. Chem. Phys., 132: 154104

        S6 =   1.000000E+00
        S8 =   1.703000E+00
       SR6 =   1.261000E+00
       SR8 =   1.000000E+00
    ALPHA6 =   1.400000E+01

   => Loading Basis Set <=

    Name: (CC-PVDZ AUX)
    Role: JKFIT
    Keyword: DF_BASIS_SCF
    atoms 1    entry O          line   221 file /shared/joao/test_parameterize/miniconda3/share/psi4/basis/cc-pvdz-jkfit.gbs 
    atoms 2-3  entry C          line   121 file /shared/joao/test_parameterize/miniconda3/share/psi4/basis/cc-pvdz-jkfit.gbs 
    atoms 4    entry N          line   171 file /shared/joao/test_parameterize/miniconda3/share/psi4/basis/cc-pvdz-jkfit.gbs 
    atoms 5-11 entry H          line    51 file /shared/joao/test_parameterize/miniconda3/share/psi4/basis/cc-pvdz-jkfit.gbs 

  ==> Pre-Iterations <==

   -------------------------------------------------------
    Irrep   Nso     Nmo     Nalpha   Nbeta   Ndocc  Nsocc
   -------------------------------------------------------
     A         91      91       0       0       0       0
   -------------------------------------------------------
    Total      91      91      17      17      17       0
   -------------------------------------------------------

  ==> Integral Setup <==

  DFHelper Memory: AOs need 0.036 [GiB]; user supplied 3.486 [GiB]. Using in-core AOs.

  ==> MemDFJK: Density-Fitted J/K Matrices <==

    J tasked:                   Yes
    K tasked:                   Yes
    wK tasked:                   No
    OpenMP threads:               1
    Memory (MB):               3570
    Algorithm:                 Core
    Schwarz Cutoff:           1E-12
    Mask sparsity (%):       0.0966
    Fitting Condition:        1E-12

   => Auxiliary Basis Set <=

  Basis Set: (CC-PVDZ AUX)
    Blend: CC-PVDZ-JKFIT
    Number of shells: 159
    Number of basis function: 441
    Number of Cartesian functions: 499
    Spherical Harmonics?: true
    Max angular momentum: 3

  Minimum eigenvalue in the overlap matrix is 4.5896080204E-03.
  Using Symmetric Orthogonalization.

  SCF Guess: Superposition of Atomic Densities via on-the-fly atomic UHF.

  ==> Iterations <==

                           Total Energy        Delta E     RMS |[F,P]|

   @DF-RKS iter   0:  -210.84356976607808   -2.10844e+02   3.66603e-02 
   @DF-RKS iter   1:  -210.21873720828535    6.24833e-01   6.98508e-03 
   @DF-RKS iter   2:  -210.07209315295827    1.46644e-01   9.64345e-03 DIIS
   @DF-RKS iter   3:  -210.39003958475186   -3.17946e-01   6.26778e-04 DIIS
   @DF-RKS iter   4:  -210.39098358015647   -9.43995e-04   3.60161e-04 DIIS
   @DF-RKS iter   5:  -210.39145260025720   -4.69020e-04   4.85556e-05 DIIS
   @DF-RKS iter   6:  -210.39145869120128   -6.09094e-06   2.45268e-05 DIIS
   @DF-RKS iter   7:  -210.39146084434807   -2.15315e-06   2.19490e-06 DIIS
   @DF-RKS iter   8:  -210.39146086164428   -1.72962e-08   8.38112e-07 DIIS

  ==> Post-Iterations <==

    Orbital Energies [Eh]
    ---------------------

    Doubly Occupied:                                                      

       1A    -19.128999     2A    -14.307234     3A    -10.225879  
       4A    -10.202373     5A     -1.011664     6A     -0.879657  
       7A     -0.711066     8A     -0.605406     9A     -0.508098  
      10A     -0.493764    11A     -0.445801    12A     -0.417939  
      13A     -0.399087    14A     -0.354086    15A     -0.330515  
      16A     -0.263896    17A     -0.235211  

    Virtual:                                                              

      18A      0.050176    19A      0.055428    20A      0.094325  
      21A      0.110944    22A      0.128526    23A      0.152978  
      24A      0.167656    25A      0.213201    26A      0.247754  
      27A      0.257251    28A      0.429449    29A      0.451087  
      30A      0.493411    31A      0.519387    32A      0.525603  
      33A      0.563148    34A      0.598322    35A      0.631082  
      36A      0.633407    37A      0.652380    38A      0.657546  
      39A      0.679853    40A      0.703771    41A      0.826848  
      42A      0.845958    43A      0.855034    44A      0.909758  
      45A      0.935651    46A      0.974503    47A      0.991485  
      48A      1.060827    49A      1.195119    50A      1.205772  
      51A      1.233196    52A      1.274104    53A      1.291686  
      54A      1.346229    55A      1.391724    56A      1.512400  
      57A      1.576409    58A      1.588837    59A      1.607179  
      60A      1.634801    61A      1.643355    62A      1.662341  
      63A      1.680770    64A      1.716250    65A      1.735982  
      66A      1.788961    67A      1.813167    68A      1.879484  
      69A      1.904608    70A      1.942072    71A      1.985148  
      72A      2.021075    73A      2.080042    74A      2.104723  
      75A      2.165242    76A      2.213583    77A      2.290805  
      78A      2.379998    79A      2.409174    80A      2.421966  
      81A      2.473138    82A      2.536972    83A      2.638387  
      84A      2.665817    85A      2.814733    86A      2.952746  
      87A      3.023411    88A      3.044647    89A      3.094082  
      90A      3.207028    91A      3.691816  

    Final Occupation by Irrep:
              A 
    DOCC [    17 ]

  Energy converged.

  @DF-RKS Final Energy:  -210.39146086164428

   => Energetics <=

    Nuclear Repulsion Energy =            130.8665601278210033
    One-Electron Energy =                -544.5923158668266524
    Two-Electron Energy =                 226.8258781559541433
    DFT Exchange-Correlation Energy =     -23.4864959285927775
    Empirical Dispersion Energy =          -0.0050873500000000
    VV10 Nonlocal Energy =                  0.0000000000000000
    Total Energy =                       -210.3914608616442763



Properties will be evaluated at   0.000000,   0.000000,   0.000000 [a0]

Properties computed using the SCF density matrix

  Nuclear Dipole Moment: [e a0]
     X:   177.1181      Y:   -29.7911      Z:   -30.8964

  Electronic Dipole Moment: [e a0]
     X:  -176.9273      Y:    30.6347      Z:    31.3042

  Dipole Moment: [e a0]
     X:     0.1908      Y:     0.8436      Z:     0.4078     Total:     0.9563

  Dipole Moment: [D]
     X:     0.4850      Y:     2.1443      Z:     1.0366     Total:     2.4306


*** tstop() called on loro.prib.upf.edu at Sat Sep 29 17:10:05 2018
Module time:
	user time   =      15.19 seconds =       0.25 minutes
	system time =       0.23 seconds =       0.00 minutes
	total time  =         17 seconds =       0.28 minutes
Total time:
	user time   =      15.19 seconds =       0.25 minutes
	system time =       0.23 seconds =       0.00 minutes
	total time  =         17 seconds =       0.28 minutes


Properties will be evaluated at   0.000000,   0.000000,   0.000000 [a0]
OEProp: No title given, name of density matrix used for the following properties is 'SCF density'
  Nuclear Dipole Moment: [e a0]
     X:   177.1181      Y:   -29.7911      Z:   -30.8964

  Electronic Dipole Moment: [e a0]
     X:  -176.9273      Y:    30.6347      Z:    31.3042

  Dipole Moment: [e a0]
     X:     0.1908      Y:     0.8436      Z:     0.4078     Total:     0.9563

  Dipole Moment: [D]
     X:     0.4850      Y:     2.1443      Z:     1.0366     Total:     2.4306

  Quadrupole Moment: [D A]
    XX:   -24.7408     YY:   -27.6772     ZZ:   -23.9458
    XY:     6.8340     XZ:     1.5456     YZ:    -0.9696

  Traceless Quadrupole Moment: [D A]
    XX:     0.7138     YY:    -2.2226     ZZ:     1.5088
    XY:     6.8340     XZ:     1.5456     YZ:    -0.9696

  Mulliken Charges: (a.u.)
   Center  Symbol    Alpha    Beta     Spin     Total
       1     O     4.13833  4.13833  0.00000 -0.27665
       2     C     2.94297  2.94297  0.00000  0.11406
       3     C     2.97825  2.97825  0.00000  0.04350
       4     N     3.59042  3.59042  0.00000 -0.18084
       5     H     0.43088  0.43088  0.00000  0.13824
       6     H     0.50172  0.50172  0.00000 -0.00343
       7     H     0.50683  0.50683  0.00000 -0.01366
       8     H     0.49007  0.49007  0.00000  0.01987
       9     H     0.48975  0.48975  0.00000  0.02050
      10     H     0.46705  0.46705  0.00000  0.06591
      11     H     0.46375  0.46375  0.00000  0.07251

   Total alpha = 17.00000, Total beta = 17.00000, Total charge =  0.00000


    Psi4 stopped on: Saturday, 29 September 2018 05:10PM
    Psi4 wall time for execution: 0:00:18.04

*** Psi4 exiting successfully. Buy a developer a beer!
