
    -----------------------------------------------------------------------
          Psi4: An Open-Source Ab Initio Electronic Structure Package
                               Psi4 1.2.1 release

                         Git: Rev {HEAD} 406f4de 


    R. M. Parrish, L. A. Burns, D. G. A. Smith, A. C. Simmonett,
    A. E. DePrince III, E. G. Hohenstein, U. Bozkaya, A. Yu. Sokolov,
    R. Di Remigio, R. M. Richard, J. F. Gonthier, A. M. James,
    H. R. McAlexander, A. Kumar, M. Saitow, X. Wang, B. P. Pritchard,
    P. Verma, H. F. Schaefer III, K. Patkowski, R. A. King, E. F. Valeev,
    F. A. Evangelista, J. M. Turney, T. D. Crawford, and C. D. Sherrill,
    J. Chem. Theory Comput. 13(7) pp 3185--3197 (2017).
    (doi: 10.1021/acs.jctc.7b00174)


                         Additional Contributions by
    P. Kraus, H. Kruse, M. H. Lechner, M. C. Schieber, and R. A. Shaw

    -----------------------------------------------------------------------


    Psi4 started on: Saturday, 29 September 2018 04:49PM

    Process ID: 4224
    Host:       loro.prib.upf.edu
    PSIDATADIR: /shared/joao/test_parameterize/miniconda3/share/psi4
    Memory:     500.0 MiB
    Threads:    1
    
  ==> Input File <==

--------------------------------------------------------------------------
set_num_threads(1)
set_memory('5348 MB')

set { scf_mem_safety_factor 0.7 }

set { reference rks }
set { basis cc-pVDZ }

molecule MOL {
    0 1
    noreorient
    nocom
    symmetry c1
    O    1.141000   0.017000   0.083000
    C    2.558000   0.086000  -0.005000
    C    3.192000  -0.789000   1.067000
    O    2.981915  -0.216450   2.352076
    H    0.789000   0.590000  -0.620000
    H    2.874000   1.128000   0.115000
    H    2.871000  -0.243000  -1.001000
    H    4.267457  -0.890541   0.890883
    H    2.755248  -1.793863   1.047631
    H    3.404910  -0.812349   2.994622
}

set optking { frozen_dihedral = (" 1 2 3 4 ") }

energy, wfn = energy('B3LYP-D3', return_wfn=True)

import os
os.chdir(os.environ['HTMD_PSI4_WORKDIR'])

oeprop(wfn, 'DIPOLE', 'QUADRUPOLE', 'MULLIKEN_CHARGES')

with open('psi4out.xyz', 'w') as f:
    f.write('10 ' )
    f.write('%.12f\n' % energy)
    f.write(MOL.save_string_xyz())
--------------------------------------------------------------------------
  Threads set to 1 by Python driver.

  Memory set to   4.981 GiB by Python driver.

*** tstart() called on loro.prib.upf.edu
*** at Sat Sep 29 16:49:18 2018

   => Loading Basis Set <=

    Name: CC-PVDZ
    Role: ORBITAL
    Keyword: BASIS
    atoms 1, 4 entry O          line   198 file /shared/joao/test_parameterize/miniconda3/share/psi4/basis/cc-pvdz.gbs 
    atoms 2-3  entry C          line   138 file /shared/joao/test_parameterize/miniconda3/share/psi4/basis/cc-pvdz.gbs 
    atoms 5-10 entry H          line    22 file /shared/joao/test_parameterize/miniconda3/share/psi4/basis/cc-pvdz.gbs 


         ---------------------------------------------------------
                                   SCF
            by Justin Turney, Rob Parrish, Andy Simmonett
                             and Daniel Smith
                              RKS Reference
                        1 Threads,   5100 MiB Core
         ---------------------------------------------------------

  ==> Geometry <==

    Molecular point group: c1
    Full point group: C1

    Geometry (in Angstrom), charge = 0, multiplicity = 1:

       Center              X                  Y                   Z               Mass       
    ------------   -----------------  -----------------  -----------------  -----------------
         O            1.141000000000     0.017000000000     0.083000000000    15.994914619560
         C            2.558000000000     0.086000000000    -0.005000000000    12.000000000000
         C            3.192000000000    -0.789000000000     1.067000000000    12.000000000000
         O            2.981915000000    -0.216450000000     2.352076000000    15.994914619560
         H            0.789000000000     0.590000000000    -0.620000000000     1.007825032070
         H            2.874000000000     1.128000000000     0.115000000000     1.007825032070
         H            2.871000000000    -0.243000000000    -1.001000000000     1.007825032070
         H            4.267457000000    -0.890541000000     0.890883000000     1.007825032070
         H            2.755248000000    -1.793863000000     1.047631000000     1.007825032070
         H            3.404910000000    -0.812349000000     2.994622000000     1.007825032070

  Running in c1 symmetry.

  Rotational constants: A =      0.34398  B =      0.03318  C =      0.03127 [cm^-1]
  Rotational constants: A =  10312.21605  B =    994.67542  C =    937.40175 [MHz]
  Nuclear repulsion =  131.480271120185563

  Charge       = 0
  Multiplicity = 1
  Electrons    = 34
  Nalpha       = 17
  Nbeta        = 17

  ==> Algorithm <==

  SCF Algorithm Type is DF.
  DIIS enabled.
  MOM disabled.
  Fractional occupation disabled.
  Guess Type is SAD.
  Energy threshold   = 1.00e-06
  Density threshold  = 1.00e-06
  Integral threshold = 0.00e+00

  ==> Primary Basis <==

  Basis Set: CC-PVDZ
    Blend: CC-PVDZ
    Number of shells: 42
    Number of basis function: 86
    Number of Cartesian functions: 90
    Spherical Harmonics?: true
    Max angular momentum: 2

  ==> DFT Potential <==

   => Composite Functional: B3LYP-D3ZERO <= 

    B3LYP-d3zero Hyb-GGA Exchange-Correlation Functional

    P. J. Stephens, F. J. Devlin, C. F. Chabalowski, and M. J. Frisch, J. Phys. Chem. 98, 11623 (1994)

    Deriv               =              1
    GGA                 =           TRUE
    Meta                =          FALSE

    Exchange Hybrid     =           TRUE
    MP2 Hybrid          =          FALSE

   => Exchange Functionals <=

    0.0800   Slater exchange
    0.7200         Becke 88

   => Exact (HF) Exchange <=

    0.2000               HF 

   => Correlation Functionals <=

    0.1900   Vosko, Wilk & Nusair (VWN5_RPA)
    0.8100   Lee, Yang & Parr

   => Molecular Quadrature <=

    Radial Scheme       =       TREUTLER
    Pruning Scheme      =           FLAT
    Nuclear Scheme      =       TREUTLER

    BS radius alpha     =              1
    Pruning alpha       =              1
    Radial Points       =             75
    Spherical Points    =            302
    Total Points        =         222572
    Total Blocks        =           1745
    Max Points          =            256
    Max Functions       =             86

   => -D3ZERO: Empirical Dispersion <=

    Grimme's -D3 (zero-damping) Dispersion Correction
    Grimme S.; Antony J.; Ehrlich S.; Krieg H. (2010), J. Chem. Phys., 132: 154104

        S6 =   1.000000E+00
        S8 =   1.703000E+00
       SR6 =   1.261000E+00
       SR8 =   1.000000E+00
    ALPHA6 =   1.400000E+01

   => Loading Basis Set <=

    Name: (CC-PVDZ AUX)
    Role: JKFIT
    Keyword: DF_BASIS_SCF
    atoms 1, 4 entry O          line   221 file /shared/joao/test_parameterize/miniconda3/share/psi4/basis/cc-pvdz-jkfit.gbs 
    atoms 2-3  entry C          line   121 file /shared/joao/test_parameterize/miniconda3/share/psi4/basis/cc-pvdz-jkfit.gbs 
    atoms 5-10 entry H          line    51 file /shared/joao/test_parameterize/miniconda3/share/psi4/basis/cc-pvdz-jkfit.gbs 

  ==> Pre-Iterations <==

   -------------------------------------------------------
    Irrep   Nso     Nmo     Nalpha   Nbeta   Ndocc  Nsocc
   -------------------------------------------------------
     A         86      86       0       0       0       0
   -------------------------------------------------------
    Total      86      86      17      17      17       0
   -------------------------------------------------------

  ==> Integral Setup <==

  DFHelper Memory: AOs need 0.030 [GiB]; user supplied 3.486 [GiB]. Using in-core AOs.

  ==> MemDFJK: Density-Fitted J/K Matrices <==

    J tasked:                   Yes
    K tasked:                   Yes
    wK tasked:                   No
    OpenMP threads:               1
    Memory (MB):               3570
    Algorithm:                 Core
    Schwarz Cutoff:           1E-12
    Mask sparsity (%):       0.0000
    Fitting Condition:        1E-12

   => Auxiliary Basis Set <=

  Basis Set: (CC-PVDZ AUX)
    Blend: CC-PVDZ-JKFIT
    Number of shells: 150
    Number of basis function: 418
    Number of Cartesian functions: 474
    Spherical Harmonics?: true
    Max angular momentum: 3

  Minimum eigenvalue in the overlap matrix is 5.1673905649E-03.
  Using Symmetric Orthogonalization.

  SCF Guess: Superposition of Atomic Densities via on-the-fly atomic UHF.

  ==> Iterations <==

                           Total Energy        Delta E     RMS |[F,P]|

   @DF-RKS iter   0:  -230.89129124716627   -2.30891e+02   4.02051e-02 
   @DF-RKS iter   1:  -230.17329107220294    7.18000e-01   5.06959e-03 
   @DF-RKS iter   2:  -230.13262267500781    4.06684e-02   6.56696e-03 DIIS
   @DF-RKS iter   3:  -230.25477349321375   -1.22151e-01   7.46139e-04 DIIS
   @DF-RKS iter   4:  -230.25612920620637   -1.35571e-03   2.95839e-04 DIIS
   @DF-RKS iter   5:  -230.25642434491522   -2.95139e-04   4.45678e-05 DIIS
   @DF-RKS iter   6:  -230.25643093325104   -6.58834e-06   5.36591e-06 DIIS
   @DF-RKS iter   7:  -230.25643100248610   -6.92351e-08   2.91283e-06 DIIS
   @DF-RKS iter   8:  -230.25643102631761   -2.38315e-08   6.36666e-07 DIIS

  ==> Post-Iterations <==

    Orbital Energies [Eh]
    ---------------------

    Doubly Occupied:                                                      

       1A    -19.125252     2A    -19.125216     3A    -10.227263  
       4A    -10.227075     5A     -1.016467     6A     -1.000019  
       7A     -0.733708     8A     -0.602468     9A     -0.518107  
      10A     -0.505286    11A     -0.433592    12A     -0.418112  
      13A     -0.405742    14A     -0.341967    15A     -0.318007  
      16A     -0.264068    17A     -0.255887  

    Virtual:                                                              

      18A      0.046758    19A      0.067219    20A      0.099254  
      21A      0.124043    22A      0.134731    23A      0.140540  
      24A      0.205946    25A      0.210495    26A      0.229004  
      27A      0.465907    28A      0.477159    29A      0.502992  
      30A      0.508757    31A      0.541104    32A      0.562585  
      33A      0.607493    34A      0.624777    35A      0.640218  
      36A      0.652710    37A      0.670643    38A      0.695186  
      39A      0.889347    40A      0.913227    41A      0.913454  
      42A      0.989880    43A      0.995894    44A      1.042330  
      45A      1.080705    46A      1.153658    47A      1.225019  
      48A      1.233069    49A      1.276328    50A      1.308900  
      51A      1.329815    52A      1.375852    53A      1.495307  
      54A      1.514428    55A      1.604626    56A      1.607069  
      57A      1.616983    58A      1.624453    59A      1.649254  
      60A      1.701932    61A      1.731925    62A      1.739135  
      63A      1.889515    64A      1.897301    65A      1.930025  
      66A      1.980259    67A      2.010094    68A      2.048837  
      69A      2.135518    70A      2.156397    71A      2.225075  
      72A      2.305534    73A      2.408890    74A      2.409704  
      75A      2.510388    76A      2.529120    77A      2.928721  
      78A      2.945657    79A      2.980931    80A      3.050993  
      81A      3.076962    82A      3.144435    83A      3.188786  
      84A      3.229925    85A      3.659338    86A      3.734925  

    Final Occupation by Irrep:
              A 
    DOCC [    17 ]

  Energy converged.

  @DF-RKS Final Energy:  -230.25643102631761

   => Energetics <=

    Nuclear Repulsion Energy =            131.4802711201855629
    One-Electron Energy =                -574.8058573021060056
    Two-Electron Energy =                 237.6101072290437912
    DFT Exchange-Correlation Energy =     -24.5365897234409225
    Empirical Dispersion Energy =          -0.0043623500000000
    VV10 Nonlocal Energy =                  0.0000000000000000
    Total Energy =                       -230.2564310263176139



Properties will be evaluated at   0.000000,   0.000000,   0.000000 [a0]

Properties computed using the SCF density matrix

  Nuclear Dipole Moment: [e a0]
     X:   159.5778      Y:   -14.8067      Z:    55.3307

  Electronic Dipole Moment: [e a0]
     X:  -159.0253      Y:    14.6353      Z:   -55.7983

  Dipole Moment: [e a0]
     X:     0.5525      Y:    -0.1714      Z:    -0.4676     Total:     0.7438

  Dipole Moment: [D]
     X:     1.4044      Y:    -0.4357      Z:    -1.1885     Total:     1.8907


*** tstop() called on loro.prib.upf.edu at Sat Sep 29 16:49:33 2018
Module time:
	user time   =      12.78 seconds =       0.21 minutes
	system time =       0.19 seconds =       0.00 minutes
	total time  =         15 seconds =       0.25 minutes
Total time:
	user time   =      12.78 seconds =       0.21 minutes
	system time =       0.19 seconds =       0.00 minutes
	total time  =         15 seconds =       0.25 minutes


Properties will be evaluated at   0.000000,   0.000000,   0.000000 [a0]
OEProp: No title given, name of density matrix used for the following properties is 'SCF density'
  Nuclear Dipole Moment: [e a0]
     X:   159.5778      Y:   -14.8067      Z:    55.3307

  Electronic Dipole Moment: [e a0]
     X:  -159.0253      Y:    14.6353      Z:   -55.7983

  Dipole Moment: [e a0]
     X:     0.5525      Y:    -0.1714      Z:    -0.4676     Total:     0.7438

  Dipole Moment: [D]
     X:     1.4044      Y:    -0.4357      Z:    -1.1885     Total:     1.8907

  Quadrupole Moment: [D A]
    XX:   -17.2107     YY:   -22.8969     ZZ:   -22.6308
    XY:    -4.2153     XZ:     1.5462     YZ:    -4.5306

  Traceless Quadrupole Moment: [D A]
    XX:     3.7021     YY:    -1.9841     ZZ:    -1.7180
    XY:    -4.2153     XZ:     1.5462     YZ:    -4.5306

  Mulliken Charges: (a.u.)
   Center  Symbol    Alpha    Beta     Spin     Total
       1     O     4.13586  4.13586  0.00000 -0.27172
       2     C     2.93184  2.93184  0.00000  0.13631
       3     C     2.93197  2.93197  0.00000  0.13605
       4     O     4.13611  4.13611  0.00000 -0.27222
       5     H     0.43080  0.43080  0.00000  0.13840
       6     H     0.49744  0.49744  0.00000  0.00513
       7     H     0.50401  0.50401  0.00000 -0.00801
       8     H     0.50388  0.50388  0.00000 -0.00777
       9     H     0.49734  0.49734  0.00000  0.00532
      10     H     0.43074  0.43074  0.00000  0.13851

   Total alpha = 17.00000, Total beta = 17.00000, Total charge = -0.00000


    Psi4 stopped on: Saturday, 29 September 2018 04:49PM
    Psi4 wall time for execution: 0:00:15.33

*** Psi4 exiting successfully. Buy a developer a beer!
