
    -----------------------------------------------------------------------
          Psi4: An Open-Source Ab Initio Electronic Structure Package
                               Psi4 1.2.1 release

                         Git: Rev {HEAD} 406f4de 


    R. M. Parrish, L. A. Burns, D. G. A. Smith, A. C. Simmonett,
    A. E. DePrince III, E. G. Hohenstein, U. Bozkaya, A. Yu. Sokolov,
    R. Di Remigio, R. M. Richard, J. F. Gonthier, A. M. James,
    H. R. McAlexander, A. Kumar, M. Saitow, X. Wang, B. P. Pritchard,
    P. Verma, H. F. Schaefer III, K. Patkowski, R. A. King, E. F. Valeev,
    F. A. Evangelista, J. M. Turney, T. D. Crawford, and C. D. Sherrill,
    J. Chem. Theory Comput. 13(7) pp 3185--3197 (2017).
    (doi: 10.1021/acs.jctc.7b00174)


                         Additional Contributions by
    P. Kraus, H. Kruse, M. H. Lechner, M. C. Schieber, and R. A. Shaw

    -----------------------------------------------------------------------


    Psi4 started on: Saturday, 29 September 2018 08:24PM

    Process ID: 2149
    Host:       rosa.prib.upf.edu
    PSIDATADIR: /shared/joao/test_parameterize/miniconda3/share/psi4
    Memory:     500.0 MiB
    Threads:    1
    
  ==> Input File <==

--------------------------------------------------------------------------
set_num_threads(4)
set_memory('3000 MB')

set { scf_mem_safety_factor 0.7 }

set { reference rks }
set { basis 6-31G* }

molecule MOL {
    1 1
    noreorient
    nocom
    symmetry c1
    C   -0.000000  -0.000000  -0.177864
    C    0.036678   1.219374   0.524165
    C    0.031765   1.213120   1.915444
    C    0.000000   0.000000   2.610107
    C   -0.031765  -1.213120   1.915444
    C   -0.036678  -1.219375   0.524165
    C   -0.000000   0.000000  -1.644734
    H    0.018170   2.164705  -0.010854
    H    0.042402   2.152895   2.457886
    H    0.000000   0.000000   3.695756
    H   -0.042402  -2.152895   2.457886
    H   -0.018170  -2.164705  -0.010853
    N   -0.712590  -0.905950  -2.308461
    N    0.712590   0.905950  -2.308460
    H    0.673432   1.006470  -3.315997
    H    1.377190   1.485970  -1.813316
    H   -0.293282  -1.791499  -2.559991
    H   -1.694682  -0.782482  -2.525294
}

set optking { frozen_dihedral = (" 1 7 13 17 ") }

set optking { dynamic_level = 1 
 geom_maxiter = 250
 print_trajectory_xyz_file = True }

energy, wfn = optimize('B3LYP-D3', return_wfn=True)

import os
os.chdir(os.environ['HTMD_PSI4_WORKDIR'])

oeprop(wfn, 'DIPOLE', 'QUADRUPOLE', 'MULLIKEN_CHARGES')

with open('psi4out.xyz', 'w') as f:
    f.write('18 ' )
    f.write('%.12f\n' % energy)
    f.write(MOL.save_string_xyz())
--------------------------------------------------------------------------
  Threads set to 4 by Python driver.

  Memory set to   2.794 GiB by Python driver.
gradient() will perform analytic gradient computation.

*** tstart() called on rosa.prib.upf.edu
*** at Sat Sep 29 20:24:39 2018

   => Loading Basis Set <=

    Name: 6-31G*
    Role: ORBITAL
    Keyword: BASIS
    atoms 1-7         entry C          line   111 file /shared/joao/test_parameterize/miniconda3/share/psi4/basis/6-31gs.gbs 
    atoms 8-12, 15-18 entry H          line    44 file /shared/joao/test_parameterize/miniconda3/share/psi4/basis/6-31gs.gbs 
    atoms 13-14       entry N          line   128 file /shared/joao/test_parameterize/miniconda3/share/psi4/basis/6-31gs.gbs 


         ---------------------------------------------------------
                                   SCF
            by Justin Turney, Rob Parrish, Andy Simmonett
                             and Daniel Smith
                              RKS Reference
                        4 Threads,   2861 MiB Core
         ---------------------------------------------------------

  ==> Geometry <==

    Molecular point group: c1
    Full point group: C1

    Geometry (in Angstrom), charge = 1, multiplicity = 1:

       Center              X                  Y                   Z               Mass       
    ------------   -----------------  -----------------  -----------------  -----------------
         C            0.000000000000     0.000000000000    -0.177864000000    12.000000000000
         C            0.036678000000     1.219374000000     0.524165000000    12.000000000000
         C            0.031765000000     1.213120000000     1.915444000000    12.000000000000
         C            0.000000000000     0.000000000000     2.610107000000    12.000000000000
         C           -0.031765000000    -1.213120000000     1.915444000000    12.000000000000
         C           -0.036678000000    -1.219375000000     0.524165000000    12.000000000000
         C            0.000000000000     0.000000000000    -1.644734000000    12.000000000000
         H            0.018170000000     2.164705000000    -0.010854000000     1.007825032070
         H            0.042402000000     2.152895000000     2.457886000000     1.007825032070
         H            0.000000000000     0.000000000000     3.695756000000     1.007825032070
         H           -0.042402000000    -2.152895000000     2.457886000000     1.007825032070
         H           -0.018170000000    -2.164705000000    -0.010853000000     1.007825032070
         N           -0.712590000000    -0.905950000000    -2.308461000000    14.003074004780
         N            0.712590000000     0.905950000000    -2.308460000000    14.003074004780
         H            0.673432000000     1.006470000000    -3.315997000000     1.007825032070
         H            1.377190000000     1.485970000000    -1.813316000000     1.007825032070
         H           -0.293282000000    -1.791499000000    -2.559991000000     1.007825032070
         H           -1.694682000000    -0.782482000000    -2.525294000000     1.007825032070

  Running in c1 symmetry.

  Rotational constants: A =      0.12084  B =      0.03961  C =      0.03136 [cm^-1]
  Rotational constants: A =   3622.61663  B =   1187.39160  C =    940.06419 [MHz]
  Nuclear repulsion =  416.635402677655634

  Charge       = 1
  Multiplicity = 1
  Electrons    = 64
  Nalpha       = 32
  Nbeta        = 32

  ==> Algorithm <==

  SCF Algorithm Type is DF.
  DIIS enabled.
  MOM disabled.
  Fractional occupation disabled.
  Guess Type is SAD.
  Energy threshold   = 1.00e-08
  Density threshold  = 1.00e-08
  Integral threshold = 0.00e+00

  ==> Primary Basis <==

  Basis Set: 6-31G*
    Blend: 6-31G*
    Number of shells: 72
    Number of basis function: 153
    Number of Cartesian functions: 153
    Spherical Harmonics?: false
    Max angular momentum: 2

  ==> DFT Potential <==

   => Composite Functional: B3LYP-D3ZERO <= 

    B3LYP-d3zero Hyb-GGA Exchange-Correlation Functional

    P. J. Stephens, F. J. Devlin, C. F. Chabalowski, and M. J. Frisch, J. Phys. Chem. 98, 11623 (1994)

    Deriv               =              1
    GGA                 =           TRUE
    Meta                =          FALSE

    Exchange Hybrid     =           TRUE
    MP2 Hybrid          =          FALSE

   => Exchange Functionals <=

    0.0800   Slater exchange
    0.7200         Becke 88

   => Exact (HF) Exchange <=

    0.2000               HF 

   => Correlation Functionals <=

    0.1900   Vosko, Wilk & Nusair (VWN5_RPA)
    0.8100   Lee, Yang & Parr

   => Molecular Quadrature <=

    Radial Scheme       =       TREUTLER
    Pruning Scheme      =           FLAT
    Nuclear Scheme      =       TREUTLER

    BS radius alpha     =              1
    Pruning alpha       =              1
    Radial Points       =             75
    Spherical Points    =            302
    Total Points        =         397075
    Total Blocks        =           3013
    Max Points          =            256
    Max Functions       =            149

   => -D3ZERO: Empirical Dispersion <=

    Grimme's -D3 (zero-damping) Dispersion Correction
    Grimme S.; Antony J.; Ehrlich S.; Krieg H. (2010), J. Chem. Phys., 132: 154104

        S6 =   1.000000E+00
        S8 =   1.703000E+00
       SR6 =   1.261000E+00
       SR8 =   1.000000E+00
    ALPHA6 =   1.400000E+01

   => Loading Basis Set <=

    Name: (6-31G* AUX)
    Role: JKFIT
    Keyword: DF_BASIS_SCF
    atoms 1-7         entry C          line   121 file /shared/joao/test_parameterize/miniconda3/share/psi4/basis/cc-pvdz-jkfit.gbs 
    atoms 8-12, 15-18 entry H          line    51 file /shared/joao/test_parameterize/miniconda3/share/psi4/basis/cc-pvdz-jkfit.gbs 
    atoms 13-14       entry N          line   171 file /shared/joao/test_parameterize/miniconda3/share/psi4/basis/cc-pvdz-jkfit.gbs 

  ==> Pre-Iterations <==

   -------------------------------------------------------
    Irrep   Nso     Nmo     Nalpha   Nbeta   Ndocc  Nsocc
   -------------------------------------------------------
     A        153     153       0       0       0       0
   -------------------------------------------------------
    Total     153     153      32      32      32       0
   -------------------------------------------------------

  ==> Integral Setup <==

  ==> DiskDFJK: Density-Fitted J/K Matrices <==

    J tasked:                  Yes
    K tasked:                  Yes
    wK tasked:                  No
    OpenMP threads:              4
    Integrals threads:           4
    Memory (MB):              2002
    Algorithm:                Core
    Integral Cache:           NONE
    Schwarz Cutoff:          1E-12
    Fitting Condition:       1E-12

   => Auxiliary Basis Set <=

  Basis Set: (6-31G* AUX)
    Blend: CC-PVDZ-JKFIT
    Number of shells: 297
    Number of basis function: 954
    Number of Cartesian functions: 954
    Spherical Harmonics?: false
    Max angular momentum: 3

  Minimum eigenvalue in the overlap matrix is 4.8653664844E-04.
  Using Symmetric Orthogonalization.

  SCF Guess: Superposition of Atomic Densities via on-the-fly atomic UHF.

  ==> Iterations <==

                           Total Energy        Delta E     RMS |[F,P]|

   @DF-RKS iter   0:  -379.61198206323957   -3.79612e+02   6.81693e-02 
   @DF-RKS iter   1:  -380.97113360276467   -1.35915e+00   1.23410e-02 
   @DF-RKS iter   2:  -380.72605669531157    2.45077e-01   1.06049e-02 DIIS
   @DF-RKS iter   3:  -381.39228368753601   -6.66227e-01   3.30960e-03 DIIS
   @DF-RKS iter   4:  -381.42374918028020   -3.14655e-02   9.67931e-04 DIIS
   @DF-RKS iter   5:  -381.42569397213180   -1.94479e-03   4.55695e-04 DIIS
   @DF-RKS iter   6:  -381.42626391734581   -5.69945e-04   1.28501e-04 DIIS
   @DF-RKS iter   7:  -381.42630870424188   -4.47869e-05   4.16693e-05 DIIS
   @DF-RKS iter   8:  -381.42631351351184   -4.80927e-06   9.51993e-06 DIIS
   @DF-RKS iter   9:  -381.42631372757506   -2.14063e-07   5.73456e-06 DIIS
   @DF-RKS iter  10:  -381.42631382650853   -9.89335e-08   9.20528e-07 DIIS
   @DF-RKS iter  11:  -381.42631382847833   -1.96979e-09   5.58107e-07 DIIS
   @DF-RKS iter  12:  -381.42631382946939   -9.91065e-10   1.13501e-07 DIIS
   @DF-RKS iter  13:  -381.42631382951669   -4.72937e-11   5.50899e-08 DIIS
   @DF-RKS iter  14:  -381.42631382952698   -1.02887e-11   1.47862e-08 DIIS
   @DF-RKS iter  15:  -381.42631382952703   -5.68434e-14   4.35002e-09 DIIS

  ==> Post-Iterations <==

    Orbital Energies [Eh]
    ---------------------

    Doubly Occupied:                                                      

       1A    -14.587480     2A    -14.510807     3A    -10.500788  
       4A    -10.371740     5A    -10.360126     6A    -10.358735  
       7A    -10.349512     8A    -10.343822     9A    -10.343067  
      10A     -1.177602    11A     -1.077525    12A     -1.016126  
      13A     -0.925898    14A     -0.904782    15A     -0.841625  
      16A     -0.777663    17A     -0.769105    18A     -0.741957  
      19A     -0.714347    20A     -0.707907    21A     -0.672533  
      22A     -0.629885    23A     -0.607233    24A     -0.586617  
      25A     -0.578893    26A     -0.554388    27A     -0.519339  
      28A     -0.509942    29A     -0.500592    30A     -0.436252  
      31A     -0.414020    32A     -0.407401  

    Virtual:                                                              

      33A     -0.256169    34A     -0.157717    35A     -0.144114  
      36A     -0.096971    37A     -0.072944    38A     -0.048797  
      39A     -0.037306    40A     -0.007678    41A      0.004754  
      42A      0.012768    43A      0.024329    44A      0.056668  
      45A      0.063520    46A      0.094492    47A      0.131503  
      48A      0.138224    49A      0.155056    50A      0.162583  
      51A      0.210661    52A      0.239700    53A      0.299122  
      54A      0.353625    55A      0.362366    56A      0.380165  
      57A      0.393556    58A      0.402832    59A      0.414071  
      60A      0.422642    61A      0.438979    62A      0.448049  
      63A      0.455189    64A      0.468792    65A      0.470510  
      66A      0.481587    67A      0.488172    68A      0.505603  
      69A      0.530248    70A      0.545007    71A      0.551350  
      72A      0.578047    73A      0.618309    74A      0.635132  
      75A      0.666193    76A      0.684161    77A      0.684991  
      78A      0.701193    79A      0.714766    80A      0.722391  
      81A      0.740653    82A      0.754341    83A      0.769322  
      84A      0.773346    85A      0.807273    86A      0.828550  
      87A      0.848690    88A      0.894872    89A      0.953389  
      90A      0.958269    91A      0.984226    92A      1.016007  
      93A      1.042896    94A      1.086390    95A      1.138415  
      96A      1.158248    97A      1.249152    98A      1.272554  
      99A      1.281897   100A      1.306308   101A      1.322310  
     102A      1.338883   103A      1.358356   104A      1.379381  
     105A      1.435099   106A      1.479347   107A      1.532100  
     108A      1.560349   109A      1.624888   110A      1.665923  
     111A      1.707661   112A      1.721810   113A      1.752620  
     114A      1.772873   115A      1.804843   116A      1.827683  
     117A      1.892274   118A      1.954127   119A      1.962369  
     120A      1.978748   121A      1.995040   122A      2.012683  
     123A      2.021174   124A      2.067785   125A      2.114868  
     126A      2.127580   127A      2.150405   128A      2.195645  
     129A      2.219729   130A      2.320421   131A      2.367198  
     132A      2.423768   133A      2.446064   134A      2.462996  
     135A      2.483539   136A      2.513734   137A      2.556447  
     138A      2.582855   139A      2.596542   140A      2.623906  
     141A      2.732262   142A      2.837235   143A      2.978380  
     144A      3.255195   145A      3.616421   146A      3.707248  
     147A      3.910631   148A      3.943097   149A      3.961215  
     150A      4.040995   151A      4.170682   152A      4.248734  
     153A      4.543092  

    Final Occupation by Irrep:
              A 
    DOCC [    32 ]

  Energy converged.

  @DF-RKS Final Energy:  -381.42631382952703

   => Energetics <=

    Nuclear Repulsion Energy =            416.6354026776556339
    One-Electron Energy =               -1328.5759221249413713
    Two-Electron Energy =                 574.9380116875980775
    DFT Exchange-Correlation Energy =     -44.4118872998393570
    Empirical Dispersion Energy =          -0.0119187700000000
    VV10 Nonlocal Energy =                  0.0000000000000000
    Total Energy =                       -381.4263138295270323



Properties will be evaluated at   0.000000,   0.000000,   0.000000 [a0]

Properties computed using the SCF density matrix

  Nuclear Dipole Moment: [e a0]
     X:     0.1184      Y:    -0.1541      Z:     0.1080

  Electronic Dipole Moment: [e a0]
     X:     0.1505      Y:     0.3824      Z:    -2.0259

  Dipole Moment: [e a0]
     X:     0.2689      Y:     0.2283      Z:    -1.9180     Total:     1.9501

  Dipole Moment: [D]
     X:     0.6834      Y:     0.5803      Z:    -4.8750     Total:     4.9568


*** tstop() called on rosa.prib.upf.edu at Sat Sep 29 20:25:10 2018
Module time:
	user time   =     112.42 seconds =       1.87 minutes
	system time =       0.79 seconds =       0.01 minutes
	total time  =         31 seconds =       0.52 minutes
Total time:
	user time   =     112.42 seconds =       1.87 minutes
	system time =       0.79 seconds =       0.01 minutes
	total time  =         31 seconds =       0.52 minutes

*** tstart() called on rosa.prib.upf.edu
*** at Sat Sep 29 20:25:10 2018


         ------------------------------------------------------------
                                   SCF GRAD                          
                          Rob Parrish, Justin Turney,                
                       Andy Simmonett, and Alex Sokolov              
         ------------------------------------------------------------

  ==> Geometry <==

    Molecular point group: c1
    Full point group: C1

    Geometry (in Angstrom), charge = 1, multiplicity = 1:

       Center              X                  Y                   Z               Mass       
    ------------   -----------------  -----------------  -----------------  -----------------
         C            0.000000000000     0.000000000000    -0.177864000000    12.000000000000
         C            0.036678000000     1.219374000000     0.524165000000    12.000000000000
         C            0.031765000000     1.213120000000     1.915444000000    12.000000000000
         C            0.000000000000     0.000000000000     2.610107000000    12.000000000000
         C           -0.031765000000    -1.213120000000     1.915444000000    12.000000000000
         C           -0.036678000000    -1.219375000000     0.524165000000    12.000000000000
         C            0.000000000000     0.000000000000    -1.644734000000    12.000000000000
         H            0.018170000000     2.164705000000    -0.010854000000     1.007825032070
         H            0.042402000000     2.152895000000     2.457886000000     1.007825032070
         H            0.000000000000     0.000000000000     3.695756000000     1.007825032070
         H           -0.042402000000    -2.152895000000     2.457886000000     1.007825032070
         H           -0.018170000000    -2.164705000000    -0.010853000000     1.007825032070
         N           -0.712590000000    -0.905950000000    -2.308461000000    14.003074004780
         N            0.712590000000     0.905950000000    -2.308460000000    14.003074004780
         H            0.673432000000     1.006470000000    -3.315997000000     1.007825032070
         H            1.377190000000     1.485970000000    -1.813316000000     1.007825032070
         H           -0.293282000000    -1.791499000000    -2.559991000000     1.007825032070
         H           -1.694682000000    -0.782482000000    -2.525294000000     1.007825032070

  Nuclear repulsion =  416.635402677655634

  ==> Basis Set <==

  Basis Set: 6-31G*
    Blend: 6-31G*
    Number of shells: 72
    Number of basis function: 153
    Number of Cartesian functions: 153
    Spherical Harmonics?: false
    Max angular momentum: 2

  ==> DFJKGrad: Density-Fitted SCF Gradients <==

    Gradient:                    1
    J tasked:                  Yes
    K tasked:                  Yes
    wK tasked:                  No
    OpenMP threads:              4
    Integrals threads:           4
    Memory (MB):              2002
    Schwarz Cutoff:          0E+00
    Fitting Condition:       1E-12

   => Auxiliary Basis Set <=

  Basis Set: (6-31G* AUX)
    Blend: CC-PVDZ-JKFIT
    Number of shells: 297
    Number of basis function: 954
    Number of Cartesian functions: 954
    Spherical Harmonics?: false
    Max angular momentum: 3

  ==> DFT Potential <==

   => Composite Functional: B3LYP-D3ZERO <= 

    B3LYP-d3zero Hyb-GGA Exchange-Correlation Functional

    P. J. Stephens, F. J. Devlin, C. F. Chabalowski, and M. J. Frisch, J. Phys. Chem. 98, 11623 (1994)

    Deriv               =              1
    GGA                 =           TRUE
    Meta                =          FALSE

    Exchange Hybrid     =           TRUE
    MP2 Hybrid          =          FALSE

   => Exchange Functionals <=

    0.0800   Slater exchange
    0.7200         Becke 88

   => Exact (HF) Exchange <=

    0.2000               HF 

   => Correlation Functionals <=

    0.1900   Vosko, Wilk & Nusair (VWN5_RPA)
    0.8100   Lee, Yang & Parr

   => Molecular Quadrature <=

    Radial Scheme       =       TREUTLER
    Pruning Scheme      =           FLAT
    Nuclear Scheme      =       TREUTLER

    BS radius alpha     =              1
    Pruning alpha       =              1
    Radial Points       =             75
    Spherical Points    =            302
    Total Points        =         397075
    Total Blocks        =           3013
    Max Points          =            256
    Max Functions       =            149


  -Total Gradient:
     Atom            X                  Y                   Z
    ------   -----------------  -----------------  -----------------
       1       -0.003018843942    -0.009063033073     0.010380072686
       2       -0.003202091825    -0.002387559625    -0.006874886872
       3        0.000339822819    -0.002993488155     0.001770341197
       4       -0.000073380807    -0.000094288833    -0.000411836976
       5       -0.001311432725     0.001419630511     0.002718393779
       6        0.002209063984     0.004084087838    -0.002677568567
       7       -0.023405111734    -0.033853446432    -0.031752118323
       8        0.000318810936    -0.000175738825    -0.000008015059
       9        0.000417758125     0.000018366378    -0.000260784570
      10        0.000268767740    -0.000080831612    -0.000087244407
      11       -0.000144344765    -0.000015771053     0.000023019272
      12        0.002534405881    -0.001364384769     0.000396686687
      13        0.020556846759     0.033657995949     0.038009820066
      14        0.003154778806     0.009919245166    -0.010655626054
      15        0.002698643273     0.004377454665     0.002904849307
      16       -0.001581198572    -0.004686451942    -0.001389508150
      17        0.000723322962    -0.001149203185     0.005668462578
      18       -0.000487784818     0.002391654518    -0.007755386086


*** tstop() called on rosa.prib.upf.edu at Sat Sep 29 20:25:18 2018
Module time:
	user time   =      27.57 seconds =       0.46 minutes
	system time =       0.34 seconds =       0.01 minutes
	total time  =          8 seconds =       0.13 minutes
Total time:
	user time   =     140.05 seconds =       2.33 minutes
	system time =       1.13 seconds =       0.02 minutes
	total time  =         39 seconds =       0.65 minutes

			-----------------------------------------
			 OPTKING 2.0: for geometry optimizations 
			  - R.A. King,  Bethel University        
			-----------------------------------------
	At level 1: Red. Int., RFO, no backsteps, dynamic trust

	Internal coordinates to be generated automatically.
	Detected frag 1 with atoms:  1 2 3 4 5 6 7 8 9 10 11 12 13 14 15 16 17 18
	---Fragment 1 Bond Connectivity---
	 1 : 2 6 7
	 2 : 1 3 8
	 3 : 2 4 9
	 4 : 3 5 10
	 5 : 4 6 11
	 6 : 1 5 12
	 7 : 1 13 14
	 8 : 2
	 9 : 3
	 10 : 4
	 11 : 5
	 12 : 6
	 13 : 7 17 18
	 14 : 7 15 16
	 15 : 14
	 16 : 14
	 17 : 13
	 18 : 13

	Assuming in current code that numbering for constraints corresponds to unified fragment.
	Frozen dihedral atom list: 
	     1     7    13    17
	---Fragment 1 Geometry and Gradient---
	 C           0.0000000000        0.0000000000       -0.3361142489
	 C           0.0693113751        2.3042829136        0.9905282984
	 C           0.0600271506        2.2924645663        3.6196645829
	 C           0.0000000000        0.0000000000        4.9323874075
	 C          -0.0600271506       -2.2924645663        3.6196645829
	 C          -0.0693113751       -2.3042848033        0.9905282984
	 C           0.0000000000        0.0000000000       -3.1080968214
	 H           0.0343363238        4.0906996085       -0.0205110874
	 H           0.0801281675        4.0683819429        4.6447314059
	 H           0.0000000000        0.0000000000        6.9839666940
	 H          -0.0801281675       -4.0683819429        4.6447314059
	 H          -0.0343363238       -4.0906996085       -0.0205091977
	 N          -1.3465999450       -1.7119973901       -4.3623590784
	 N           1.3465999450        1.7119973901       -4.3623571887
	 H           1.2726020491        1.9019526610       -6.2663261875
	 H           2.6025119329        2.8080763417       -3.4266706324
	 H          -0.5542226597       -3.3854424773       -4.8376818927
	 H          -3.2024848623       -1.4786766839       -4.7721140650
	            -0.0030188439       -0.0090630331        0.0103800727
	            -0.0032020918       -0.0023875596       -0.0068748869
	             0.0003398228       -0.0029934882        0.0017703412
	            -0.0000733808       -0.0000942888       -0.0004118370
	            -0.0013114327        0.0014196305        0.0027183938
	             0.0022090640        0.0040840878       -0.0026775686
	            -0.0234051117       -0.0338534464       -0.0317521183
	             0.0003188109       -0.0001757388       -0.0000080151
	             0.0004177581        0.0000183664       -0.0002607846
	             0.0002687677       -0.0000808316       -0.0000872444
	            -0.0001443448       -0.0000157711        0.0000230193
	             0.0025344059       -0.0013643848        0.0003966867
	             0.0205568468        0.0336579959        0.0380098201
	             0.0031547788        0.0099192452       -0.0106556261
	             0.0026986433        0.0043774547        0.0029048493
	            -0.0015811986       -0.0046864519       -0.0013895081
	             0.0007233230       -0.0011492032        0.0056684626
	            -0.0004877848        0.0023916545       -0.0077553861

	Previous optimization step data not found.  Starting new optimization.

	---Fragment 1 Intrafragment Coordinates---
	 - Coordinate -           - BOHR/RAD -       - ANG/DEG -
	 R(1,2)           =         2.659794	       1.407502
	 R(1,6)           =         2.659796	       1.407503
	 R(1,7)           =         2.771983	       1.466870
	 R(2,3)           =         2.629179	       1.391302
	 R(2,8)           =         2.052976	       1.086388
	 R(3,4)           =         2.642393	       1.398294
	 R(3,9)           =         2.050622	       1.085142
	 R(4,5)           =         2.642393	       1.398294
	 R(4,10)          =         2.051579	       1.085649
	 R(5,6)           =         2.629179	       1.391302
	 R(5,11)          =         2.050622	       1.085142
	 R(6,12)          =         2.052973	       1.086386
	 R(7,13)          =         2.513452	       1.330061
	 R(7,14)          =         2.513451	       1.330061
	 R(13,17)         =         1.911599	       1.011575
	 R(13,18)         =         1.914849	       1.013294
	 R(14,15)         =         1.914852	       1.013296
	 R(14,16)         =         1.911600	       1.011575
	 B(1,2,3)         =         2.088380	     119.655376
	 B(1,2,8)         =         2.103396	     120.515689
	 B(1,6,5)         =         2.088379	     119.655315
	 B(1,6,12)        =         2.103396	     120.515729
	 B(1,7,13)        =         2.093264	     119.935172
	 B(1,7,14)        =         2.093263	     119.935135
	 B(2,1,6)         =         2.097220	     120.161857
	 B(2,1,7)         =         2.092983	     119.919082
	 B(2,3,4)         =         2.095279	     120.050636
	 B(2,3,9)         =         2.089719	     119.732108
	 B(3,2,8)         =         2.090149	     119.756722
	 B(3,4,5)         =         2.101793	     120.423859
	 B(3,4,10)        =         2.090696	     119.788070
	 B(4,3,9)         =         2.098135	     120.214297
	 B(4,5,6)         =         2.095280	     120.050677
	 B(4,5,11)        =         2.098135	     120.214297
	 B(5,4,10)        =         2.090696	     119.788070
	 B(5,6,12)        =         2.090149	     119.756743
	 B(6,1,7)         =         2.092982	     119.919061
	 B(6,5,11)        =         2.089719	     119.732067
	 B(7,13,17)       =         2.092411	     119.886347
	 B(7,13,18)       =         2.144860	     122.891443
	 B(7,14,15)       =         2.144860	     122.891405
	 B(7,14,16)       =         2.092412	     119.886393
	 B(13,7,14)       =         2.096659	     120.129694
	 B(15,14,16)      =         2.043399	     117.078146
	 B(17,13,18)      =         2.043399	     117.078147
	 D(1,2,3,4)       =         0.007799	       0.446825
	 D(1,2,3,9)       =        -3.122896	    -178.928735
	 D(1,6,5,4)       =         0.007799	       0.446822
	 D(1,6,5,11)      =        -3.122896	    -178.928737
	*D(1,7,13,17)     =        -1.570796	     -89.999980
	 D(1,7,13,18)     =         1.492379	      85.507013
	 D(1,7,14,15)     =        -3.032165	    -173.730230
	 D(1,7,14,16)     =         0.187844	      10.762681
	 D(2,1,6,5)       =        -0.003906	      -0.223802
	 D(2,1,6,12)      =        -3.091437	    -177.126283
	 D(2,1,7,13)      =        -2.505167	    -143.535494
	 D(2,1,7,14)      =         0.636426	      36.464506
	 D(2,3,4,5)       =        -0.003942	      -0.225875
	 D(2,3,4,10)      =         3.137650	     179.774125
	 D(3,2,1,6)       =        -0.003906	      -0.223806
	 D(3,2,1,7)       =         3.137687	     179.776196
	 D(3,4,5,6)       =        -0.003942	      -0.225874
	 D(3,4,5,11)      =         3.126699	     179.146646
	 D(4,3,2,8)       =         3.095744	     177.373058
	 D(4,5,6,12)      =         3.095744	     177.373055
	 D(5,4,3,9)       =         3.126699	     179.146646
	 D(5,6,1,7)       =         3.137687	     179.776197
	 D(6,1,2,8)       =        -3.091437	    -177.126287
	 D(6,1,7,13)      =         0.636426	      36.464508
	 D(6,1,7,14)      =        -2.505167	    -143.535492
	 D(6,5,4,10)      =         3.137650	     179.774126
	 D(7,1,2,8)       =         0.050156	       2.873714
	 D(7,1,6,12)      =         0.050156	       2.873716
	 D(8,2,3,9)       =        -0.034950	      -2.002503
	 D(9,3,4,10)      =        -0.014894	      -0.853354
	 D(10,4,5,11)     =        -0.014894	      -0.853354
	 D(11,5,6,12)     =        -0.034950	      -2.002504
	 D(13,7,14,15)    =         0.109428	       6.269770
	 D(13,7,14,16)    =        -2.953748	    -169.237319
	 D(14,7,13,17)    =         1.570797	      90.000020
	 D(14,7,13,18)    =        -1.649214	     -94.492987

	Current energy   :      -381.4263138295

	Generating empirical Hessian (Schlegel '84) for each fragment.
	Taking RFO optimization step.
	Going to follow RFO solution 1.
	Using RFO vector 1.
	Norm of target step-size    0.46881
	Projected energy change by RFO approximation:        -0.0189520631

	Back-transformation to cartesian coordinates...
	Could not converge backtransformation.
	Using first guess instead.

	Back-transformation to cartesian coordinates to adjust frozen coordinates...
	Successfully converged to displaced geometry.

	--- Internal Coordinate Step in ANG or DEG, aJ/ANG or AJ/DEG ---
	 ---------------------------------------------------------------------------
	   Coordinate                Previous        Force       Change         New 
	   ----------                --------       ------       ------       ------
	    1 R(1,2)          =      1.407502     0.047809     0.009162     1.416665
	    2 R(1,6)          =      1.407503     0.016990     0.005114     1.412617
	    3 R(1,7)          =      1.466870    -0.040938    -0.006944     1.459926
	    4 R(2,3)          =      1.391302    -0.014657    -0.001849     1.389453
	    5 R(2,8)          =      1.086388     0.001274     0.001475     1.087863
	    6 R(3,4)          =      1.398294     0.012120     0.003112     1.401406
	    7 R(3,9)          =      1.085142     0.000911     0.001401     1.086543
	    8 R(4,5)          =      1.398294     0.017553     0.004580     1.402874
	    9 R(4,10)         =      1.085649     0.000718     0.000166     1.085815
	   10 R(5,6)          =      1.391302    -0.016242    -0.002008     1.389294
	   11 R(5,11)         =      1.085142    -0.000221     0.001859     1.087001
	   12 R(6,12)         =      1.086386    -0.008529     0.003523     1.089910
	   13 R(7,13)         =      1.330061     0.435318     0.054521     1.384583
	   14 R(7,14)         =      1.330061    -0.110366    -0.008654     1.321407
	   15 R(13,17)        =      1.011575     0.000851     0.006473     1.018048
	   16 R(13,18)        =      1.013294    -0.019965     0.014538     1.027832
	   17 R(14,15)        =      1.013296     0.021080     0.004638     1.017934
	   18 R(14,16)        =      1.011575     0.036298     0.014505     1.026080
	   19 B(1,2,3)        =    119.655376     0.000048     0.136699   119.792075
	   20 B(1,2,8)        =    120.515689    -0.000018     0.005785   120.521474
	   21 B(1,6,5)        =    119.655315    -0.000008    -0.156475   119.498840
	   22 B(1,6,12)       =    120.515729    -0.000071    -0.121614   120.394115
	   23 B(1,7,13)       =    119.935172     0.001115     2.924209   122.859381
	   24 B(1,7,14)       =    119.935135    -0.000368    -1.135109   118.800026
	   25 B(2,1,6)        =    120.161857    -0.000071    -0.056677   120.105180
	   26 B(2,1,7)        =    119.919082     0.000381     1.042229   120.961310
	   27 B(2,3,4)        =    120.050636    -0.000082    -0.301222   119.749414
	   28 B(2,3,9)        =    119.732108     0.000060     0.180614   119.912722
	   29 B(3,2,8)        =    119.756722    -0.000031    -0.171612   119.585110
	   30 B(3,4,5)        =    120.423859     0.000081     0.294717   120.718576
	   31 B(3,4,10)       =    119.788070    -0.000046    -0.167343   119.620727
	   32 B(4,3,9)        =    120.214297     0.000022     0.121133   120.335429
	   33 B(4,5,6)        =    120.050677     0.000032     0.054659   120.105337
	   34 B(4,5,11)       =    120.214297    -0.000015     0.095307   120.309603
	   35 B(5,4,10)       =    119.788070    -0.000035    -0.131289   119.656781
	   36 B(5,6,12)       =    119.756743     0.000081     0.323131   120.079874
	   37 B(6,1,7)        =    119.919061    -0.000310    -0.988555   118.930506
	   38 B(6,5,11)       =    119.732067    -0.000017    -0.149382   119.582684
	   39 B(7,13,17)      =    119.886347     0.000326     1.142012   121.028359
	   40 B(7,13,18)      =    122.891443    -0.000279    -2.008000   120.883444
	   41 B(7,14,15)      =    122.891405    -0.000569    -2.729693   120.161712
	   42 B(7,14,16)      =    119.886393     0.000382     1.887938   121.774331
	   43 B(13,7,14)      =    120.129694    -0.000748    -1.835385   118.294308
	   44 B(15,14,16)     =    117.078146     0.000190     0.924477   118.002622
	   45 B(17,13,18)     =    117.078147    -0.000074    -0.227423   116.850724
	   46 D(1,2,3,4)      =      0.446825     0.000007     0.675472     1.122297
	   47 D(1,2,3,9)      =   -178.928735     0.000006     0.616751  -178.311984
	   48 D(1,6,5,4)      =      0.446822     0.000013     1.339827     1.786649
	   49 D(1,6,5,11)     =   -178.928737     0.000002     0.156473  -178.772264
	   50 *D(1,7,13,17)   =    -89.999980     0.000000     0.000000   -89.999980
	   51 D(1,7,13,18)    =     85.507013    -0.000095    -8.615298    76.891715
	   52 D(1,7,14,15)    =   -173.730230    -0.000029    -2.731946  -176.462175
	   53 D(1,7,14,16)    =     10.762681    -0.000043    -4.319329     6.443352
	   54 D(2,1,6,5)      =     -0.223802    -0.000013    -1.392105    -1.615906
	   55 D(2,1,6,12)     =   -177.126283    -0.000024    -2.595262  -179.721545
	   56 D(2,1,7,13)     =   -143.535494    -0.000073   -10.493965  -154.029459
	   57 D(2,1,7,14)     =     36.464506    -0.000050    -7.975209    28.489297
	   58 D(2,3,4,5)      =     -0.225875    -0.000007    -0.734693    -0.960569
	   59 D(2,3,4,10)     =    179.774125    -0.000000    -0.012378   179.761747
	   60 D(3,2,1,6)      =     -0.223806     0.000003     0.379478     0.155672
	   61 D(3,2,1,7)      =    179.776196    -0.000003    -0.257734   179.518461
	   62 D(3,4,5,6)      =     -0.225874    -0.000003    -0.288250    -0.514125
	   63 D(3,4,5,11)     =    179.146646     0.000008     0.902243   180.048889
	   64 D(4,3,2,8)      =    177.373058     0.000001     0.108775   177.481832
	   65 D(4,5,6,12)     =    177.373055     0.000023     2.525281   179.898337
	   66 D(5,4,3,9)      =    179.146646    -0.000006    -0.675361   178.471286
	   67 D(5,6,1,7)      =    179.776197    -0.000007    -0.767774   179.008423
	   68 D(6,1,2,8)      =   -177.126287     0.000009     0.957058  -176.169229
	   69 D(6,1,7,13)     =     36.464508    -0.000079   -11.123822    25.340685
	   70 D(6,1,7,14)     =   -143.535492    -0.000056    -8.605066  -152.140559
	   71 D(6,5,4,10)     =    179.774126    -0.000010    -1.010824   178.763301
	   72 D(7,1,2,8)      =      2.873714     0.000003     0.319846     3.193561
	   73 D(7,1,6,12)     =      2.873716    -0.000018    -1.970932     0.902784
	   74 D(8,2,3,9)      =     -2.002503     0.000001     0.050054    -1.952449
	   75 D(9,3,4,10)     =     -0.853354     0.000000     0.046955    -0.806399
	   76 D(10,4,5,11)    =     -0.853354     0.000001     0.179669    -0.673685
	   77 D(11,5,6,12)    =     -2.002504     0.000012     1.341927    -0.660577
	   78 D(13,7,14,15)   =      6.269770    -0.000006    -0.329167     5.940604
	   79 D(13,7,14,16)   =   -169.237319    -0.000020    -1.916550  -171.153869
	   80 D(14,7,13,17)   =     90.000020    -0.000024    -2.506683    87.493337
	   81 D(14,7,13,18)   =    -94.492987    -0.000118   -11.121981  -105.614968
	 ---------------------------------------------------------------------------
	Successfully symmetrized geometry.

  ==> Convergence Check <==

  Measures of convergence in internal coordinates in au.
  Criteria marked as inactive (o), active & met (*), and active & unmet ( ).
  --------------------------------------------------------------------------------------------- ~
   Step     Total Energy     Delta E     MAX Force     RMS Force      MAX Disp      RMS Disp    ~
  --------------------------------------------------------------------------------------------- ~
    Convergence Criteria    1.00e-06 *    3.00e-04 *             o    1.20e-03 *             o  ~
  --------------------------------------------------------------------------------------------- ~
      1    -381.42631383   -3.81e+02      5.28e-02      6.79e-03 o    1.94e-01      5.17e-02 o  ~
  ---------------------------------------------------------------------------------------------

	Writing optimization data to binary file.
	Structure for next step:
	Cartesian Geometry (in Angstrom)
	    C     0.0002946553   0.0210663892  -0.1754133300
	    C     0.1165115398   1.2373342437   0.5416118583
	    C     0.1123113842   1.2227622131   1.9309822935
	    C     0.0168322054   0.0024209489   2.6133243806
	    C    -0.0949069476  -1.2056353860   1.9089321639
	    C    -0.1227901629  -1.2023901961   0.5199222350
	    C    -0.0086354970   0.0077145371  -1.6352507514
	    H     0.1492267046   2.1884340072   0.0145588690
	    H     0.1736777858   2.1567167128   2.4828332509
	    H     0.0176502833  -0.0068405134   3.6990995227
	    H    -0.1693564865  -2.1483434082   2.4449632591
	    H    -0.2079449997  -2.1413201469  -0.0269437178
	    N    -0.6165668223  -0.9934001544  -2.3736666372
	    N     0.6310859761   0.9644219541  -2.2845460848
	    H     0.5936178306   1.0060956626  -3.3009360774
	    H     1.2107801026   1.6552475949  -1.7951021822
	    H    -0.1011774451  -1.8254069681  -2.6539535007
	    H    -1.6379521066  -1.0204194907  -2.4853865516
			--------------------------
			 OPTKING Finished Execution 
			--------------------------

    Structure for next step:
    Molecular point group: c1
    Full point group: C1

    Geometry (in Angstrom), charge = 1, multiplicity = 1:

    C            0.000294655344     0.021066389228    -0.175413330011
    C            0.116511539801     1.237334243716     0.541611858349
    C            0.112311384213     1.222762213086     1.930982293529
    C            0.016832205355     0.002420948906     2.613324380613
    C           -0.094906947629    -1.205635385977     1.908932163924
    C           -0.122790162897    -1.202390196071     0.519922234997
    C           -0.008635496953     0.007714537107    -1.635250751362
    H            0.149226704556     2.188434007211     0.014558869043
    H            0.173677785759     2.156716712826     2.482833250863
    H            0.017650283342    -0.006840513434     3.699099522713
    H           -0.169356486497    -2.148343408192     2.444963259111
    H           -0.207944999670    -2.141320146927    -0.026943717809
    N           -0.616566822338    -0.993400154365    -2.373666637222
    N            0.631085976121     0.964421954136    -2.284546084791
    H            0.593617830628     1.006095662639    -3.300936077429
    H            1.210780102556     1.655247594932    -1.795102182195
    H           -0.101177445134    -1.825406968121    -2.653953500690
    H           -1.637952106557    -1.020419490700    -2.485386551633

gradient() will perform analytic gradient computation.

*** tstart() called on rosa.prib.upf.edu
*** at Sat Sep 29 20:25:18 2018

   => Loading Basis Set <=

    Name: 6-31G*
    Role: ORBITAL
    Keyword: BASIS
    atoms 1-7         entry C          line   111 file /shared/joao/test_parameterize/miniconda3/share/psi4/basis/6-31gs.gbs 
    atoms 8-12, 15-18 entry H          line    44 file /shared/joao/test_parameterize/miniconda3/share/psi4/basis/6-31gs.gbs 
    atoms 13-14       entry N          line   128 file /shared/joao/test_parameterize/miniconda3/share/psi4/basis/6-31gs.gbs 


         ---------------------------------------------------------
                                   SCF
            by Justin Turney, Rob Parrish, Andy Simmonett
                             and Daniel Smith
                              RKS Reference
                        4 Threads,   2861 MiB Core
         ---------------------------------------------------------

  ==> Geometry <==

    Molecular point group: c1
    Full point group: C1

    Geometry (in Angstrom), charge = 1, multiplicity = 1:

       Center              X                  Y                   Z               Mass       
    ------------   -----------------  -----------------  -----------------  -----------------
         C            0.000294655344     0.021066389228    -0.175413330011    12.000000000000
         C            0.116511539801     1.237334243716     0.541611858349    12.000000000000
         C            0.112311384213     1.222762213086     1.930982293529    12.000000000000
         C            0.016832205355     0.002420948906     2.613324380613    12.000000000000
         C           -0.094906947629    -1.205635385977     1.908932163924    12.000000000000
         C           -0.122790162897    -1.202390196071     0.519922234997    12.000000000000
         C           -0.008635496953     0.007714537107    -1.635250751362    12.000000000000
         H            0.149226704556     2.188434007211     0.014558869043     1.007825032070
         H            0.173677785759     2.156716712826     2.482833250863     1.007825032070
         H            0.017650283342    -0.006840513434     3.699099522713     1.007825032070
         H           -0.169356486497    -2.148343408192     2.444963259111     1.007825032070
         H           -0.207944999670    -2.141320146927    -0.026943717809     1.007825032070
         N           -0.616566822338    -0.993400154365    -2.373666637222    14.003074004780
         N            0.631085976121     0.964421954136    -2.284546084791    14.003074004780
         H            0.593617830628     1.006095662639    -3.300936077429     1.007825032070
         H            1.210780102556     1.655247594932    -1.795102182195     1.007825032070
         H           -0.101177445134    -1.825406968121    -2.653953500690     1.007825032070
         H           -1.637952106557    -1.020419490700    -2.485386551633     1.007825032070

  Running in c1 symmetry.

  Rotational constants: A =      0.11953  B =      0.03977  C =      0.03078 [cm^-1]
  Rotational constants: A =   3583.55353  B =   1192.14861  C =    922.73831 [MHz]
  Nuclear repulsion =  414.968472292018589

  Charge       = 1
  Multiplicity = 1
  Electrons    = 64
  Nalpha       = 32
  Nbeta        = 32

  ==> Algorithm <==

  SCF Algorithm Type is DF.
  DIIS enabled.
  MOM disabled.
  Fractional occupation disabled.
  Guess Type is READ.
  Energy threshold   = 1.00e-08
  Density threshold  = 1.00e-08
  Integral threshold = 0.00e+00

  ==> Primary Basis <==

  Basis Set: 6-31G*
    Blend: 6-31G*
    Number of shells: 72
    Number of basis function: 153
    Number of Cartesian functions: 153
    Spherical Harmonics?: false
    Max angular momentum: 2

  ==> DFT Potential <==

   => Composite Functional: B3LYP-D3ZERO <= 

    B3LYP-d3zero Hyb-GGA Exchange-Correlation Functional

    P. J. Stephens, F. J. Devlin, C. F. Chabalowski, and M. J. Frisch, J. Phys. Chem. 98, 11623 (1994)

    Deriv               =              1
    GGA                 =           TRUE
    Meta                =          FALSE

    Exchange Hybrid     =           TRUE
    MP2 Hybrid          =          FALSE

   => Exchange Functionals <=

    0.0800   Slater exchange
    0.7200         Becke 88

   => Exact (HF) Exchange <=

    0.2000               HF 

   => Correlation Functionals <=

    0.1900   Vosko, Wilk & Nusair (VWN5_RPA)
    0.8100   Lee, Yang & Parr

   => Molecular Quadrature <=

    Radial Scheme       =       TREUTLER
    Pruning Scheme      =           FLAT
    Nuclear Scheme      =       TREUTLER

    BS radius alpha     =              1
    Pruning alpha       =              1
    Radial Points       =             75
    Spherical Points    =            302
    Total Points        =         397004
    Total Blocks        =           3021
    Max Points          =            256
    Max Functions       =            149

   => -D3ZERO: Empirical Dispersion <=

    Grimme's -D3 (zero-damping) Dispersion Correction
    Grimme S.; Antony J.; Ehrlich S.; Krieg H. (2010), J. Chem. Phys., 132: 154104

        S6 =   1.000000E+00
        S8 =   1.703000E+00
       SR6 =   1.261000E+00
       SR8 =   1.000000E+00
    ALPHA6 =   1.400000E+01

   => Loading Basis Set <=

    Name: (6-31G* AUX)
    Role: JKFIT
    Keyword: DF_BASIS_SCF
    atoms 1-7         entry C          line   121 file /shared/joao/test_parameterize/miniconda3/share/psi4/basis/cc-pvdz-jkfit.gbs 
    atoms 8-12, 15-18 entry H          line    51 file /shared/joao/test_parameterize/miniconda3/share/psi4/basis/cc-pvdz-jkfit.gbs 
    atoms 13-14       entry N          line   171 file /shared/joao/test_parameterize/miniconda3/share/psi4/basis/cc-pvdz-jkfit.gbs 

  Reading orbitals from file 180, no projection.

  ==> Pre-Iterations <==

   -------------------------------------------------------
    Irrep   Nso     Nmo     Nalpha   Nbeta   Ndocc  Nsocc
   -------------------------------------------------------
     A        153     153       0       0       0       0
   -------------------------------------------------------
    Total     153     153      32      32      32       0
   -------------------------------------------------------

  ==> Integral Setup <==

  ==> DiskDFJK: Density-Fitted J/K Matrices <==

    J tasked:                  Yes
    K tasked:                  Yes
    wK tasked:                  No
    OpenMP threads:              4
    Integrals threads:           4
    Memory (MB):              2002
    Algorithm:                Core
    Integral Cache:           NONE
    Schwarz Cutoff:          1E-12
    Fitting Condition:       1E-12

   => Auxiliary Basis Set <=

  Basis Set: (6-31G* AUX)
    Blend: CC-PVDZ-JKFIT
    Number of shells: 297
    Number of basis function: 954
    Number of Cartesian functions: 954
    Spherical Harmonics?: false
    Max angular momentum: 3

  Minimum eigenvalue in the overlap matrix is 4.9641399583E-04.
  Using Symmetric Orthogonalization.

  SCF Guess: Orbitals guess was supplied from a previous computation.

  ==> Iterations <==

                           Total Energy        Delta E     RMS |[F,P]|

   @DF-RKS iter   0:  -381.35461918618097   -3.81355e+02   3.62486e-03 
   @DF-RKS iter   1:  -381.43323462304215   -7.86154e-02   5.96569e-04 
   @DF-RKS iter   2:  -381.43241937680887    8.15246e-04   8.29360e-04 DIIS
   @DF-RKS iter   3:  -381.43449844398310   -2.07907e-03   1.58284e-04 DIIS
   @DF-RKS iter   4:  -381.43455860588745   -6.01619e-05   7.69840e-05 DIIS
   @DF-RKS iter   5:  -381.43457740111228   -1.87952e-05   2.25706e-05 DIIS
   @DF-RKS iter   6:  -381.43457904141741   -1.64031e-06   6.20269e-06 DIIS
   @DF-RKS iter   7:  -381.43457916727561   -1.25858e-07   1.65426e-06 DIIS
   @DF-RKS iter   8:  -381.43457917607776   -8.80215e-09   8.40387e-07 DIIS
   @DF-RKS iter   9:  -381.43457917855312   -2.47536e-09   2.56719e-07 DIIS
   @DF-RKS iter  10:  -381.43457917878419   -2.31068e-10   1.33864e-07 DIIS
   @DF-RKS iter  11:  -381.43457917885479   -7.05995e-11   2.30249e-08 DIIS
   @DF-RKS iter  12:  -381.43457917885576   -9.66338e-13   1.50597e-08 DIIS
   @DF-RKS iter  13:  -381.43457917885655   -7.95808e-13   4.45503e-09 DIIS

  ==> Post-Iterations <==

    Orbital Energies [Eh]
    ---------------------

    Doubly Occupied:                                                      

       1A    -14.586069     2A    -14.515623     3A    -10.500153  
       4A    -10.375015     5A    -10.364873     6A    -10.361361  
       7A    -10.354048     8A    -10.347777     9A    -10.345520  
      10A     -1.171418    11A     -1.062669    12A     -1.017029  
      13A     -0.927014    14A     -0.907621    15A     -0.840051  
      16A     -0.778003    17A     -0.769373    18A     -0.736941  
      19A     -0.708425    20A     -0.695429    21A     -0.668441  
      22A     -0.631826    23A     -0.607161    24A     -0.586591  
      25A     -0.581886    26A     -0.560089    27A     -0.518748  
      28A     -0.512163    29A     -0.502803    30A     -0.434330  
      31A     -0.417665    32A     -0.411264  

    Virtual:                                                              

      33A     -0.254814    34A     -0.159651    35A     -0.140452  
      36A     -0.100540    37A     -0.075322    38A     -0.052766  
      39A     -0.038458    40A     -0.005340    41A      0.004430  
      42A      0.010358    43A      0.021420    44A      0.055492  
      45A      0.057924    46A      0.086364    47A      0.120745  
      48A      0.125212    49A      0.151816    50A      0.167406  
      51A      0.212562    52A      0.231787    53A      0.296381  
      54A      0.349286    55A      0.369233    56A      0.376396  
      57A      0.391659    58A      0.400540    59A      0.412316  
      60A      0.419328    61A      0.435033    62A      0.444915  
      63A      0.453037    64A      0.466229    65A      0.468761  
      66A      0.479968    67A      0.485259    68A      0.504416  
      69A      0.531781    70A      0.544200    71A      0.548507  
      72A      0.580037    73A      0.617365    74A      0.644119  
      75A      0.674694    76A      0.688114    77A      0.693826  
      78A      0.698861    79A      0.716691    80A      0.721349  
      81A      0.734314    82A      0.753492    83A      0.770064  
      84A      0.787940    85A      0.813840    86A      0.832991  
      87A      0.851188    88A      0.879360    89A      0.942316  
      90A      0.972698    91A      0.992209    92A      1.019106  
      93A      1.066129    94A      1.081159    95A      1.128460  
      96A      1.155460    97A      1.239611    98A      1.269418  
      99A      1.276557   100A      1.295735   101A      1.325058  
     102A      1.334923   103A      1.352819   104A      1.367784  
     105A      1.419553   106A      1.450693   107A      1.544562  
     108A      1.572940   109A      1.618994   110A      1.643645  
     111A      1.702060   112A      1.720737   113A      1.743331  
     114A      1.773633   115A      1.791293   116A      1.811559  
     117A      1.888543   118A      1.942851   119A      1.961713  
     120A      1.968583   121A      1.992863   122A      2.006994  
     123A      2.024367   124A      2.055499   125A      2.101850  
     126A      2.128520   127A      2.149646   128A      2.182062  
     129A      2.221603   130A      2.288464   131A      2.356267  
     132A      2.400472   133A      2.440256   134A      2.454930  
     135A      2.471043   136A      2.494742   137A      2.534874  
     138A      2.579866   139A      2.588742   140A      2.620467  
     141A      2.730731   142A      2.805842   143A      2.986231  
     144A      3.243109   145A      3.613366   146A      3.690946  
     147A      3.901333   148A      3.937273   149A      3.958203  
     150A      4.035096   151A      4.164326   152A      4.248570  
     153A      4.539116  

    Final Occupation by Irrep:
              A 
    DOCC [    32 ]

  Energy converged.

  @DF-RKS Final Energy:  -381.43457917885655

   => Energetics <=

    Nuclear Repulsion Energy =            414.9684722920185891
    One-Electron Energy =               -1325.2878208520794487
    Two-Electron Energy =                 573.2670974997623716
    DFT Exchange-Correlation Energy =     -44.3705607385580052
    Empirical Dispersion Energy =          -0.0117673800000000
    VV10 Nonlocal Energy =                  0.0000000000000000
    Total Energy =                       -381.4345791788565521



Properties will be evaluated at   0.000000,   0.000000,   0.000000 [a0]

Properties computed using the SCF density matrix

  Nuclear Dipole Moment: [e a0]
     X:     0.4684      Y:     0.3042      Z:    -0.0070

  Electronic Dipole Moment: [e a0]
     X:    -0.2349      Y:    -0.0754      Z:    -1.7278

  Dipole Moment: [e a0]
     X:     0.2335      Y:     0.2288      Z:    -1.7348     Total:     1.7653

  Dipole Moment: [D]
     X:     0.5935      Y:     0.5815      Z:    -4.4094     Total:     4.4870


*** tstop() called on rosa.prib.upf.edu at Sat Sep 29 20:25:44 2018
Module time:
	user time   =      94.74 seconds =       1.58 minutes
	system time =       0.62 seconds =       0.01 minutes
	total time  =         26 seconds =       0.43 minutes
Total time:
	user time   =     235.62 seconds =       3.93 minutes
	system time =       1.78 seconds =       0.03 minutes
	total time  =         65 seconds =       1.08 minutes

*** tstart() called on rosa.prib.upf.edu
*** at Sat Sep 29 20:25:44 2018


         ------------------------------------------------------------
                                   SCF GRAD                          
                          Rob Parrish, Justin Turney,                
                       Andy Simmonett, and Alex Sokolov              
         ------------------------------------------------------------

  ==> Geometry <==

    Molecular point group: c1
    Full point group: C1

    Geometry (in Angstrom), charge = 1, multiplicity = 1:

       Center              X                  Y                   Z               Mass       
    ------------   -----------------  -----------------  -----------------  -----------------
         C            0.000294655344     0.021066389228    -0.175413330011    12.000000000000
         C            0.116511539801     1.237334243716     0.541611858349    12.000000000000
         C            0.112311384213     1.222762213086     1.930982293529    12.000000000000
         C            0.016832205355     0.002420948906     2.613324380613    12.000000000000
         C           -0.094906947629    -1.205635385977     1.908932163924    12.000000000000
         C           -0.122790162897    -1.202390196071     0.519922234997    12.000000000000
         C           -0.008635496953     0.007714537107    -1.635250751362    12.000000000000
         H            0.149226704556     2.188434007211     0.014558869043     1.007825032070
         H            0.173677785759     2.156716712826     2.482833250863     1.007825032070
         H            0.017650283342    -0.006840513434     3.699099522713     1.007825032070
         H           -0.169356486497    -2.148343408192     2.444963259111     1.007825032070
         H           -0.207944999670    -2.141320146927    -0.026943717809     1.007825032070
         N           -0.616566822338    -0.993400154365    -2.373666637222    14.003074004780
         N            0.631085976121     0.964421954136    -2.284546084791    14.003074004780
         H            0.593617830628     1.006095662639    -3.300936077429     1.007825032070
         H            1.210780102556     1.655247594932    -1.795102182195     1.007825032070
         H           -0.101177445134    -1.825406968121    -2.653953500690     1.007825032070
         H           -1.637952106557    -1.020419490700    -2.485386551633     1.007825032070

  Nuclear repulsion =  414.968472292018589

  ==> Basis Set <==

  Basis Set: 6-31G*
    Blend: 6-31G*
    Number of shells: 72
    Number of basis function: 153
    Number of Cartesian functions: 153
    Spherical Harmonics?: false
    Max angular momentum: 2

  ==> DFJKGrad: Density-Fitted SCF Gradients <==

    Gradient:                    1
    J tasked:                  Yes
    K tasked:                  Yes
    wK tasked:                  No
    OpenMP threads:              4
    Integrals threads:           4
    Memory (MB):              2002
    Schwarz Cutoff:          0E+00
    Fitting Condition:       1E-12

   => Auxiliary Basis Set <=

  Basis Set: (6-31G* AUX)
    Blend: CC-PVDZ-JKFIT
    Number of shells: 297
    Number of basis function: 954
    Number of Cartesian functions: 954
    Spherical Harmonics?: false
    Max angular momentum: 3

  ==> DFT Potential <==

   => Composite Functional: B3LYP-D3ZERO <= 

    B3LYP-d3zero Hyb-GGA Exchange-Correlation Functional

    P. J. Stephens, F. J. Devlin, C. F. Chabalowski, and M. J. Frisch, J. Phys. Chem. 98, 11623 (1994)

    Deriv               =              1
    GGA                 =           TRUE
    Meta                =          FALSE

    Exchange Hybrid     =           TRUE
    MP2 Hybrid          =          FALSE

   => Exchange Functionals <=

    0.0800   Slater exchange
    0.7200         Becke 88

   => Exact (HF) Exchange <=

    0.2000               HF 

   => Correlation Functionals <=

    0.1900   Vosko, Wilk & Nusair (VWN5_RPA)
    0.8100   Lee, Yang & Parr

   => Molecular Quadrature <=

    Radial Scheme       =       TREUTLER
    Pruning Scheme      =           FLAT
    Nuclear Scheme      =       TREUTLER

    BS radius alpha     =              1
    Pruning alpha       =              1
    Radial Points       =             75
    Spherical Points    =            302
    Total Points        =         397004
    Total Blocks        =           3021
    Max Points          =            256
    Max Functions       =            149


  -Total Gradient:
     Atom            X                  Y                   Z
    ------   -----------------  -----------------  -----------------
       1        0.007064849485    -0.002169552600     0.006331465709
       2       -0.000312850726     0.001886801563    -0.002324014819
       3       -0.001140049684    -0.000840936823     0.002116144972
       4        0.000430409858     0.002537674261     0.001124063564
       5       -0.000111494364    -0.000558118523    -0.001644186953
       6        0.001154312590     0.001223285612     0.000129142257
       7       -0.005550772291    -0.001273831691    -0.012643804816
       8        0.000835135106     0.000414238238    -0.001137895763
       9        0.000074892089     0.001030755291     0.000277897524
      10        0.000019776796     0.000054230516    -0.000013116750
      11       -0.000287372559    -0.001476184682     0.000057770447
      12        0.000595099521    -0.004021097877    -0.000840661102
      13        0.008132656704    -0.000125951903     0.011907151573
      14       -0.003843428437     0.001052638183     0.001541955752
      15        0.000451853574     0.000915551262    -0.001462971751
      16        0.004713507591     0.006245461699     0.004965013493
      17        0.001440159689    -0.007873922747     0.002246153511
      18       -0.013670535557     0.002970462048    -0.010639275769


*** tstop() called on rosa.prib.upf.edu at Sat Sep 29 20:25:51 2018
Module time:
	user time   =      26.97 seconds =       0.45 minutes
	system time =       0.35 seconds =       0.01 minutes
	total time  =          7 seconds =       0.12 minutes
Total time:
	user time   =     262.65 seconds =       4.38 minutes
	system time =       2.14 seconds =       0.04 minutes
	total time  =         72 seconds =       1.20 minutes

			-----------------------------------------
			 OPTKING 2.0: for geometry optimizations 
			  - R.A. King,  Bethel University        
			-----------------------------------------
	At level 1: Red. Int., RFO, no backsteps, dynamic trust

	Previous internal coordinate definitions found.
	---Fragment 1 Geometry and Gradient---
	 C           0.0005568179        0.0398097063       -0.3314831538
	 C           0.2201749015        2.3382228555        1.0234980826
	 C           0.2122377578        2.3106857084        3.6490277022
	 C           0.0318082583        0.0045749304        4.9384673758
	 C          -0.1793481391       -2.2783206956        3.6073589961
	 C          -0.2320397797       -2.2721881754        0.9825106345
	 C          -0.0163187243        0.0145783624       -3.0901760787
	 H           0.2819976033        4.1355409335        0.0275122753
	 H           0.3282034505        4.0756039335        4.6918748778
	 H           0.0333542017       -0.0129266970        6.9902850362
	 H          -0.3200373783       -4.0597806809        4.6203109647
	 H          -0.3929591001       -4.0465086405       -0.0509162477
	 N          -1.1651424368       -1.8772542321       -4.4855798751
	 N           1.1925796612        1.8224933699       -4.3171664382
	 H           1.1217751275        1.9012452659       -6.2378651685
	 H           2.2880428010        3.1279646365       -3.3922515049
	 H          -0.1911976621       -3.4495192508       -5.0152452857
	 H          -3.0952809002       -1.9283133781       -4.6966999169
	             0.0070648495       -0.0021695526        0.0063314657
	            -0.0003128507        0.0018868016       -0.0023240148
	            -0.0011400497       -0.0008409368        0.0021161450
	             0.0004304099        0.0025376743        0.0011240636
	            -0.0001114944       -0.0005581185       -0.0016441870
	             0.0011543126        0.0012232856        0.0001291423
	            -0.0055507723       -0.0012738317       -0.0126438048
	             0.0008351351        0.0004142382       -0.0011378958
	             0.0000748921        0.0010307553        0.0002778975
	             0.0000197768        0.0000542305       -0.0000131168
	            -0.0002873726       -0.0014761847        0.0000577704
	             0.0005950995       -0.0040210979       -0.0008406611
	             0.0081326567       -0.0001259519        0.0119071516
	            -0.0038434284        0.0010526382        0.0015419558
	             0.0004518536        0.0009155513       -0.0014629718
	             0.0047135076        0.0062454617        0.0049650135
	             0.0014401597       -0.0078739227        0.0022461535
	            -0.0136705356        0.0029704620       -0.0106392758

	---Fragment 1 Intrafragment Coordinates---
	 - Coordinate -           - BOHR/RAD -       - ANG/DEG -
	 R(1,2)           =         2.677108	       1.416665
	 R(1,6)           =         2.669460	       1.412617
	 R(1,7)           =         2.758860	       1.459926
	 R(2,3)           =         2.625686	       1.389453
	 R(2,8)           =         2.055763	       1.087863
	 R(3,4)           =         2.648274	       1.401406
	 R(3,9)           =         2.053269	       1.086543
	 R(4,5)           =         2.651047	       1.402874
	 R(4,10)          =         2.051893	       1.085815
	 R(5,6)           =         2.625384	       1.389294
	 R(5,11)          =         2.054134	       1.087001
	 R(6,12)          =         2.059631	       1.089910
	 R(7,13)          =         2.616482	       1.384583
	 R(7,14)          =         2.497098	       1.321407
	 R(13,17)         =         1.923832	       1.018048
	 R(13,18)         =         1.942322	       1.027832
	 R(14,15)         =         1.923616	       1.017934
	 R(14,16)         =         1.939011	       1.026080
	 B(1,2,3)         =         2.090766	     119.792075
	 B(1,2,8)         =         2.103497	     120.521474
	 B(1,6,5)         =         2.085648	     119.498840
	 B(1,6,12)        =         2.101274	     120.394115
	 B(1,7,13)        =         2.144301	     122.859381
	 B(1,7,14)        =         2.073452	     118.800026
	 B(2,1,6)         =         2.096231	     120.105180
	 B(2,1,7)         =         2.111173	     120.961310
	 B(2,3,4)         =         2.090022	     119.749414
	 B(2,3,9)         =         2.092872	     119.912722
	 B(3,2,8)         =         2.087154	     119.585110
	 B(3,4,5)         =         2.106937	     120.718576
	 B(3,4,10)        =         2.087776	     119.620727
	 B(4,3,9)         =         2.100249	     120.335429
	 B(4,5,6)         =         2.096234	     120.105337
	 B(4,5,11)        =         2.099799	     120.309603
	 B(5,4,10)        =         2.088405	     119.656781
	 B(5,6,12)        =         2.095789	     120.079874
	 B(6,1,7)         =         2.075729	     118.930506
	 B(6,5,11)        =         2.087112	     119.582684
	 B(7,13,17)       =         2.112343	     121.028359
	 B(7,13,18)       =         2.109814	     120.883444
	 B(7,14,15)       =         2.097218	     120.161712
	 B(7,14,16)       =         2.125363	     121.774331
	 B(13,7,14)       =         2.064625	     118.294308
	 B(15,14,16)      =         2.059534	     118.002622
	 B(17,13,18)      =         2.039430	     116.850724
	 D(1,2,3,4)       =         0.019588	       1.122297
	 D(1,2,3,9)       =        -3.112131	    -178.311984
	 D(1,6,5,4)       =         0.031183	       1.786649
	 D(1,6,5,11)      =        -3.120165	    -178.772264
	*D(1,7,13,17)     =        -1.570796	     -89.999980
	 D(1,7,13,18)     =         1.342014	      76.891715
	 D(1,7,14,15)     =        -3.079846	    -176.462175
	 D(1,7,14,16)     =         0.112458	       6.443352
	 D(2,1,6,5)       =        -0.028203	      -1.615906
	 D(2,1,6,12)      =        -3.136733	    -179.721545
	 D(2,1,7,13)      =        -2.688321	    -154.029459
	 D(2,1,7,14)      =         0.497232	      28.489297
	 D(2,3,4,5)       =        -0.016765	      -0.960569
	 D(2,3,4,10)      =         3.137434	     179.761747
	 D(3,2,1,6)       =         0.002717	       0.155672
	 D(3,2,1,7)       =         3.133188	     179.518461
	 D(3,4,5,6)       =        -0.008973	      -0.514125
	 D(3,4,5,11)      =        -3.140739	    -179.951111
	 D(4,3,2,8)       =         3.097642	     177.481832
	 D(4,5,6,12)      =         3.139818	     179.898337
	 D(5,4,3,9)       =         3.114912	     178.471286
	 D(5,6,1,7)       =         3.124286	     179.008423
	 D(6,1,2,8)       =        -3.074733	    -176.169229
	 D(6,1,7,13)      =         0.442278	      25.340685
	 D(6,1,7,14)      =        -2.655354	    -152.140559
	 D(6,5,4,10)      =         3.120008	     178.763301
	 D(7,1,2,8)       =         0.055738	       3.193561
	 D(7,1,6,12)      =         0.015757	       0.902784
	 D(8,2,3,9)       =        -0.034077	      -1.952449
	 D(9,3,4,10)      =        -0.014074	      -0.806399
	 D(10,4,5,11)     =        -0.011758	      -0.673685
	 D(11,5,6,12)     =        -0.011529	      -0.660577
	 D(13,7,14,15)    =         0.103683	       5.940604
	 D(13,7,14,16)    =        -2.987199	    -171.153869
	 D(14,7,13,17)    =         1.527047	      87.493337
	 D(14,7,13,18)    =        -1.843329	    -105.614968

	Current energy   :      -381.4345791789

	Energy change for the previous step:
		Projected    :        -0.0189520631
		Actual       :        -0.0082653493

	Performing BFGS update.
	Previous computed or guess Hessian on step 1.
	Steps to be used in Hessian update: 1
	Taking RFO optimization step.
	Going to follow RFO solution 1.
	Using RFO vector 1.

	Determining step-restricting scale parameter for RS-RFO.
	Maximum step size allowed    0.50000

	 Iter      |step|        alpha        rfo_root  
	------------------------------------------------
	    0     0.56652       1.00000           1
	    1     0.51025       1.38020           1
	    2     0.50031       1.46173           1
	    3     0.50000       1.46436           1
	------------------------------------------------
	Norm of target step-size    0.50000
	Projected energy change by RFO approximation:        -0.0050984014

	Back-transformation to cartesian coordinates...
	Could not converge backtransformation.
	Using first guess instead.

	Back-transformation to cartesian coordinates to adjust frozen coordinates...
	Successfully converged to displaced geometry.

	--- Internal Coordinate Step in ANG or DEG, aJ/ANG or AJ/DEG ---
	 ---------------------------------------------------------------------------
	   Coordinate                Previous        Force       Change         New 
	   ----------                --------       ------       ------       ------
	    1 R(1,2)          =      1.416665    -0.007242     0.003570     1.420235
	    2 R(1,6)          =      1.412617    -0.008513     0.002198     1.414815
	    3 R(1,7)          =      1.459926    -0.033906    -0.008995     1.450931
	    4 R(2,3)          =      1.389453    -0.015511    -0.002648     1.386805
	    5 R(2,8)          =      1.087863    -0.007736    -0.000182     1.087681
	    6 R(3,4)          =      1.401406    -0.001421     0.002012     1.403418
	    7 R(3,9)          =      1.086543    -0.008504    -0.000107     1.086436
	    8 R(4,5)          =      1.402874    -0.028877    -0.000814     1.402060
	    9 R(4,10)         =      1.085815     0.000108     0.000298     1.086113
	   10 R(5,6)          =      1.389294    -0.000322    -0.000409     1.388884
	   11 R(5,11)         =      1.087001    -0.010941    -0.000370     1.086631
	   12 R(6,12)         =      1.089910    -0.031624    -0.002135     1.087775
	   13 R(7,13)         =      1.384583    -0.029338     0.021554     1.406137
	   14 R(7,14)         =      1.321407    -0.033838    -0.005402     1.316005
	   15 R(13,17)        =      1.018048    -0.053923    -0.001787     1.016261
	   16 R(13,18)        =      1.027832    -0.120811     0.027319     1.055151
	   17 R(14,15)        =      1.017934    -0.012207     0.003084     1.021017
	   18 R(14,16)        =      1.026080    -0.076090    -0.001866     1.024214
	   19 B(1,2,3)        =    119.792075     0.000044     0.199257   119.991332
	   20 B(1,2,8)        =    120.521474     0.000036     0.248906   120.770380
	   21 B(1,6,5)        =    119.498840     0.000128     0.326371   119.825211
	   22 B(1,6,12)       =    120.394115    -0.000162    -0.660717   119.733398
	   23 B(1,7,13)       =    122.859381     0.000000     0.975680   123.835061
	   24 B(1,7,14)       =    118.800026     0.000904     2.425453   121.225479
	   25 B(2,1,6)        =    120.105180    -0.000153    -0.463038   119.642142
	   26 B(2,1,7)        =    120.961310     0.000324     1.378886   122.340196
	   27 B(2,3,4)        =    119.749414     0.000048     0.006182   119.755596
	   28 B(2,3,9)        =    119.912722    -0.000002     0.092911   120.005633
	   29 B(3,2,8)        =    119.585110    -0.000080    -0.439046   119.146064
	   30 B(3,4,5)        =    120.718576    -0.000027     0.041379   120.759955
	   31 B(3,4,10)       =    119.620727     0.000018    -0.017957   119.602770
	   32 B(4,3,9)        =    120.335429    -0.000046    -0.104841   120.230588
	   33 B(4,5,6)        =    120.105337    -0.000040    -0.139274   119.966063
	   34 B(4,5,11)       =    120.309603    -0.000034    -0.088521   120.221082
	   35 B(5,4,10)       =    119.656781     0.000009    -0.029144   119.627637
	   36 B(5,6,12)       =    120.079874     0.000035     0.346845   120.426719
	   37 B(6,1,7)        =    118.930506    -0.000171    -0.915189   118.015317
	   38 B(6,5,11)       =    119.582684     0.000074     0.226590   119.809274
	   39 B(7,13,17)      =    121.028359     0.000020    -0.289444   120.738915
	   40 B(7,13,18)      =    120.883444    -0.000241    -3.800380   117.083064
	   41 B(7,14,15)      =    120.161712    -0.000126    -1.686359   118.475353
	   42 B(7,14,16)      =    121.774331     0.000106     1.214279   122.988610
	   43 B(13,7,14)      =    118.294308    -0.000906    -3.496082   114.798226
	   44 B(15,14,16)     =    118.002622     0.000019     0.450013   118.452635
	   45 B(17,13,18)     =    116.850724     0.000106    -0.908424   115.942300
	   46 D(1,2,3,4)      =      1.122297    -0.000008    -0.799659     0.322638
	   47 D(1,2,3,9)      =   -178.311984    -0.000004    -0.327293  -178.639277
	   48 D(1,6,5,4)      =      1.786649     0.000001     0.423816     2.210465
	   49 D(1,6,5,11)     =   -178.772264     0.000002     0.295904  -178.476360
	   50 *D(1,7,13,17)   =    -89.999980    -0.000000    -0.000000   -89.999980
	   51 D(1,7,13,18)    =     76.891715    -0.000135   -15.758221    61.133494
	   52 D(1,7,14,15)    =   -176.462175    -0.000008    -1.218191  -177.680366
	   53 D(1,7,14,16)    =      6.443352     0.000001    -0.748000     5.695352
	   54 D(2,1,6,5)      =     -1.615906    -0.000008    -1.313385    -2.929291
	   55 D(2,1,6,12)     =   -179.721545    -0.000011    -1.820511  -181.542056
	   56 D(2,1,7,13)     =   -154.029459    -0.000035    -6.563968  -160.593427
	   57 D(2,1,7,14)     =     28.489297    -0.000017    -4.534887    23.954410
	   58 D(2,3,4,5)      =     -0.960569     0.000001    -0.102439    -1.063008
	   59 D(2,3,4,10)     =    179.761747     0.000003     0.308795   180.070541
	   60 D(3,2,1,6)      =      0.155672     0.000011     1.502313     1.657985
	   61 D(3,2,1,7)      =    179.518461     0.000012     1.571201   181.089662
	   62 D(3,4,5,6)      =     -0.514125     0.000003     0.297461    -0.216663
	   63 D(3,4,5,11)     =   -179.951111     0.000002     0.424130  -179.526980
	   64 D(4,3,2,8)      =    177.481832    -0.000005    -0.623588   176.858245
	   65 D(4,5,6,12)     =    179.898337     0.000003     0.915134   180.813471
	   66 D(5,4,3,9)      =    178.471286    -0.000003    -0.574745   177.896540
	   67 D(5,6,1,7)      =    179.008423    -0.000009    -1.393813   177.614610
	   68 D(6,1,2,8)      =   -176.169229     0.000010     1.348757  -174.820472
	   69 D(6,1,7,13)     =     25.340685    -0.000034    -6.493621    18.847064
	   70 D(6,1,7,14)     =   -152.140559    -0.000016    -4.464539  -156.605098
	   71 D(6,5,4,10)     =    178.763301     0.000001    -0.113793   178.649508
	   72 D(7,1,2,8)      =      3.193561     0.000010     1.417645     4.611206
	   73 D(7,1,6,12)     =      0.902784    -0.000012    -1.900939    -0.998155
	   74 D(8,2,3,9)      =     -1.952449    -0.000001    -0.151222    -2.103671
	   75 D(9,3,4,10)     =     -0.806399    -0.000001    -0.163511    -0.969910
	   76 D(10,4,5,11)    =     -0.673685    -0.000000     0.012875    -0.660809
	   77 D(11,5,6,12)    =     -0.660577     0.000004     0.787223     0.126646
	   78 D(13,7,14,15)   =      5.940604     0.000005     0.539667     6.480270
	   79 D(13,7,14,16)   =   -171.153869     0.000013     1.009858  -170.144011
	   80 D(14,7,13,17)   =     87.493337    -0.000008    -1.776848    85.716489
	   81 D(14,7,13,18)   =   -105.614968    -0.000143   -17.535070  -123.150037
	 ---------------------------------------------------------------------------
	Successfully symmetrized geometry.

  ==> Convergence Check <==

  Measures of convergence in internal coordinates in au.
  Criteria marked as inactive (o), active & met (*), and active & unmet ( ).
  ---------------------------------------------------------------------------------------------
   Step     Total Energy     Delta E     MAX Force     RMS Force      MAX Disp      RMS Disp   
  ---------------------------------------------------------------------------------------------
    Convergence Criteria    1.00e-06 *    3.00e-04 *             o    1.20e-03 *             o
  ---------------------------------------------------------------------------------------------
      2    -381.43457918   -8.27e-03      1.47e-02      3.35e-03 o    3.06e-01      5.38e-02 o  ~
  ---------------------------------------------------------------------------------------------

	Writing optimization data to binary file.
	Structure for next step:
	Cartesian Geometry (in Angstrom)
	    C    -0.0099143570   0.0583582469  -0.1784385931
	    C     0.1477318293   1.2569633109   0.5669214112
	    C     0.1576876447   1.2150782076   1.9530578349
	    C     0.0183979946  -0.0152411370   2.6137356326
	    C    -0.1532749211  -1.2030281860   1.8888485184
	    C    -0.1914433766  -1.1693435945   0.5008976152
	    C    -0.0045769245   0.0401622579  -1.6292454942
	    H     0.2045652668   2.2205663023   0.0656333169
	    H     0.2560654600   2.1343343880   2.5237012322
	    H     0.0253837273  -0.0450320401   3.6994178788
	    H    -0.2679508601  -2.1498482713   2.4095663402
	    H    -0.3374842739  -2.0845746934  -0.0685570670
	    N    -0.5335973739  -1.0094551252  -2.4010371296
	    N     0.5882434015   0.9896630788  -2.3212580669
	    H     0.5355691068   0.9545518722  -3.3403110566
	    H     1.1418055545   1.7337429277  -1.8865995247
	    H     0.0486233510  -1.7949067650  -2.6782938232
	    H    -1.5631732494  -1.2135327800  -2.2930100252
			--------------------------
			 OPTKING Finished Execution 
			--------------------------

    Structure for next step:
    Molecular point group: c1
    Full point group: C1

    Geometry (in Angstrom), charge = 1, multiplicity = 1:

    C           -0.009914357047     0.058358246920    -0.178438593051
    C            0.147731829269     1.256963310889     0.566921411163
    C            0.157687644721     1.215078207615     1.953057834882
    C            0.018397994581    -0.015241136979     2.613735632560
    C           -0.153274921095    -1.203028185983     1.888848518406
    C           -0.191443376582    -1.169343594525     0.500897615239
    C           -0.004576924473     0.040162257947    -1.629245494165
    H            0.204565266807     2.220566302314     0.065633316877
    H            0.256065459961     2.134334388025     2.523701232221
    H            0.025383727349    -0.045032040090     3.699417878820
    H           -0.267950860078    -2.149848271312     2.409566340161
    H           -0.337484273861    -2.084574693372    -0.068557066992
    N           -0.533597373896    -1.009455125162    -2.401037129578
    N            0.588243401504     0.989663078835    -2.321258066895
    H            0.535569106783     0.954551872198    -3.340311056568
    H            1.141805554539     1.733742927745    -1.886599524698
    H            0.048623350952    -1.794906765032    -2.678293823160
    H           -1.563173249435    -1.213532780033    -2.293010025224

gradient() will perform analytic gradient computation.

*** tstart() called on rosa.prib.upf.edu
*** at Sat Sep 29 20:25:51 2018

   => Loading Basis Set <=

    Name: 6-31G*
    Role: ORBITAL
    Keyword: BASIS
    atoms 1-7         entry C          line   111 file /shared/joao/test_parameterize/miniconda3/share/psi4/basis/6-31gs.gbs 
    atoms 8-12, 15-18 entry H          line    44 file /shared/joao/test_parameterize/miniconda3/share/psi4/basis/6-31gs.gbs 
[...]
	 R(6,12)          =         2.051145	       1.085419
	 R(7,13)          =         2.618922	       1.385874
	 R(7,14)          =         2.494559	       1.320064
	 R(13,17)         =         1.927328	       1.019898
	 R(13,18)         =         1.925367	       1.018860
	 R(14,15)         =         1.919641	       1.015830
	 R(14,16)         =         1.915384	       1.013578
	 B(1,2,3)         =         2.093934	     119.973571
	 B(1,2,8)         =         2.102816	     120.482455
	 B(1,6,5)         =         2.092737	     119.905004
	 B(1,6,12)        =         2.101906	     120.430348
	 B(1,7,13)        =         2.168248	     124.231486
	 B(1,7,14)        =         2.114877	     121.173504
	 B(2,1,6)         =         2.088346	     119.653423
	 B(2,1,7)         =         2.111207	     120.963243
	 B(2,3,4)         =         2.092308	     119.880444
	 B(2,3,9)         =         2.093516	     119.949648
	 B(3,2,8)         =         2.085083	     119.466447
	 B(3,4,5)         =         2.104772	     120.594527
	 B(3,4,10)        =         2.088901	     119.685219
	 B(4,3,9)         =         2.097275	     120.165008
	 B(4,5,6)         =         2.093891	     119.971104
	 B(4,5,11)        =         2.097782	     120.194040
	 B(5,4,10)        =         2.089501	     119.719602
	 B(5,6,12)        =         2.087555	     119.608081
	 B(6,1,7)         =         2.083539	     119.377977
	 B(6,5,11)        =         2.091507	     119.834520
	 B(7,13,17)       =         1.994554	     114.279522
	 B(7,13,18)       =         1.944124	     111.390079
	 B(7,14,15)       =         2.085275	     119.477481
	 B(7,14,16)       =         2.133837	     122.259874
	 B(13,7,14)       =         1.995217	     114.317507
	 B(15,14,16)      =         2.063910	     118.253309
	 B(17,13,18)      =         1.864886	     106.850107
	 D(1,2,3,4)       =        -0.004394	      -0.251768
	 D(1,2,3,9)       =        -3.131957	    -179.447930
	 D(1,6,5,4)       =         0.018436	       1.056328
	 D(1,6,5,11)      =        -3.119480	    -178.733052
	*D(1,7,13,17)     =        -1.570796	     -89.999980
	 D(1,7,13,18)     =         0.544756	      31.212193
	 D(1,7,14,15)     =        -3.057899	    -175.204685
	 D(1,7,14,16)     =         0.103440	       5.926674
	 D(2,1,6,5)       =        -0.031403	      -1.799270
	 D(2,1,6,12)      =        -3.125073	    -179.053494
	 D(2,1,7,13)      =        -2.750953	    -157.617979
	 D(2,1,7,14)      =         0.502345	      28.782228
	 D(2,3,4,5)       =        -0.008787	      -0.503449
	 D(2,3,4,10)      =         3.137951	     179.791339
	 D(3,2,1,6)       =         0.024367	       1.396125
	 D(3,2,1,7)       =        -3.102437	    -177.756571
	 D(3,4,5,6)       =         0.001706	       0.097753
	 D(3,4,5,11)      =         3.139609	     179.886368
	 D(4,3,2,8)       =         3.081594	     176.562345
	 D(4,5,6,12)      =         3.112502	     178.333244
	 D(5,4,3,9)       =         3.118746	     178.690963
	 D(5,6,1,7)       =         3.095637	     177.366948
	 D(6,1,2,8)       =        -3.061049	    -175.385202
	 D(6,1,7,13)      =         0.405388	      23.227021
	 D(6,1,7,14)      =        -2.624500	    -150.372772
	 D(6,5,4,10)      =         3.138152	     179.802864
	 D(7,1,2,8)       =         0.095332	       5.462102
	 D(7,1,6,12)      =         0.001967	       0.112723
	 D(8,2,3,9)       =        -0.045969	      -2.633817
	 D(9,3,4,10)      =        -0.017702	      -1.014249
	 D(10,4,5,11)     =        -0.007130	      -0.408520
	 D(11,5,6,12)     =        -0.025414	      -1.456136
	 D(13,7,14,15)    =         0.185003	      10.599864
	 D(13,7,14,16)    =        -2.936844	    -168.268777
	 D(14,7,13,17)    =         1.465942	      83.992315
	 D(14,7,13,18)    =        -2.701691	    -154.795512

	Current energy   :      -381.4488275354

	Energy change for the previous step:
		Projected    :        -0.0000155723
		Actual       :        -0.0000008549

	Performing BFGS update.
	Previous computed or guess Hessian on step 1.
	Steps to be used in Hessian update: 19 18
	Taking RFO optimization step.
	Going to follow RFO solution 1.
	Rejecting RFO root 1 because normalization gives large value.
	Using RFO vector 2.
	Norm of target step-size    0.01542
	Projected energy change by RFO approximation:         0.0000096559

	Back-transformation to cartesian coordinates...
	Could not converge backtransformation.
	Using first guess instead.

	Back-transformation to cartesian coordinates to adjust frozen coordinates...
	Successfully converged to displaced geometry.

	--- Internal Coordinate Step in ANG or DEG, aJ/ANG or AJ/DEG ---
	 ---------------------------------------------------------------------------
	   Coordinate                Previous        Force       Change         New 
	   ----------                --------       ------       ------       ------
	    1 R(1,2)          =      1.413810     0.000539     0.000126     1.413936
	    2 R(1,6)          =      1.411780     0.000109     0.000037     1.411818
	    3 R(1,7)          =      1.451869    -0.000088    -0.000000     1.451869
	    4 R(2,3)          =      1.387890    -0.001321    -0.000148     1.387742
	    5 R(2,8)          =      1.086703     0.000002     0.000011     1.086714
	    6 R(3,4)          =      1.400863    -0.000051     0.000021     1.400884
	    7 R(3,9)          =      1.084864     0.000968     0.000173     1.085037
	    8 R(4,5)          =      1.398902     0.001146     0.000100     1.399002
	    9 R(4,10)         =      1.085950    -0.000931    -0.000168     1.085782
	   10 R(5,6)          =      1.389334    -0.000183    -0.000054     1.389280
	   11 R(5,11)         =      1.085130    -0.000612    -0.000013     1.085117
	   12 R(6,12)         =      1.085419    -0.000171    -0.000160     1.085259
	   13 R(7,13)         =      1.385874    -0.000281     0.000192     1.386066
	   14 R(7,14)         =      1.320064    -0.000777    -0.000055     1.320009
	   15 R(13,17)        =      1.019898    -0.000947    -0.000199     1.019699
	   16 R(13,18)        =      1.018860    -0.001559    -0.000261     1.018599
	   17 R(14,15)        =      1.015830    -0.000706    -0.000143     1.015687
	   18 R(14,16)        =      1.013578     0.000360    -0.000102     1.013476
	   19 B(1,2,3)        =    119.973571     0.000003     0.001149   119.974720
	   20 B(1,2,8)        =    120.482455     0.000002     0.004434   120.486889
	   21 B(1,6,5)        =    119.905004     0.000001    -0.000350   119.904654
	   22 B(1,6,12)       =    120.430348     0.000001    -0.003031   120.427317
	   23 B(1,7,13)       =    124.231486    -0.000002    -0.008735   124.222752
	   24 B(1,7,14)       =    121.173504     0.000010     0.019323   121.192826
	   25 B(2,1,6)        =    119.653423    -0.000001    -0.000251   119.653172
	   26 B(2,1,7)        =    120.963243     0.000004     0.005077   120.968320
	   27 B(2,3,4)        =    119.880444     0.000001     0.000667   119.881111
	   28 B(2,3,9)        =    119.949648    -0.000001     0.000860   119.950508
	   29 B(3,2,8)        =    119.466447    -0.000005    -0.001748   119.464699
	   30 B(3,4,5)        =    120.594527     0.000000     0.002031   120.596557
	   31 B(3,4,10)       =    119.685219    -0.000000    -0.002836   119.682383
	   32 B(4,3,9)        =    120.165008     0.000000    -0.005408   120.159600
	   33 B(4,5,6)        =    119.971104    -0.000003    -0.002410   119.968693
	   34 B(4,5,11)       =    120.194040     0.000002     0.002194   120.196234
	   35 B(5,4,10)       =    119.719602     0.000000    -0.000710   119.718892
	   36 B(5,6,12)       =    119.608081    -0.000001     0.005234   119.613315
	   37 B(6,1,7)        =    119.377977    -0.000003    -0.004034   119.373943
	   38 B(6,5,11)       =    119.834520     0.000001     0.000188   119.834707
	   39 B(7,13,17)      =    114.279522    -0.000001    -0.005352   114.274170
	   40 B(7,13,18)      =    111.390079     0.000001    -0.002244   111.387835
	   41 B(7,14,15)      =    119.477481    -0.000002    -0.010572   119.466909
	   42 B(7,14,16)      =    122.259874     0.000003     0.003959   122.263833
	   43 B(13,7,14)      =    114.317507    -0.000009    -0.009824   114.307682
	   44 B(15,14,16)     =    118.253309    -0.000001     0.005499   118.258809
	   45 B(17,13,18)     =    106.850107     0.000002    -0.025386   106.824722
	   46 D(1,2,3,4)      =     -0.251768    -0.000000     0.053509    -0.198259
	   47 D(1,2,3,9)      =   -179.447930     0.000001     0.325819  -179.122111
	   48 D(1,6,5,4)      =      1.056328    -0.000000     0.041861     1.098190
	   49 D(1,6,5,11)     =   -178.733052    -0.000000     0.050706  -178.682347
	   50 *D(1,7,13,17)   =    -89.999980    -0.000000    -0.000000   -89.999980
	   51 D(1,7,13,18)    =     31.212193     0.000001    -0.039091    31.173102
	   52 D(1,7,14,15)    =   -175.204685    -0.000002    -0.044581  -175.249266
	   53 D(1,7,14,16)    =      5.926674    -0.000001     0.020968     5.947642
	   54 D(2,1,6,5)      =     -1.799270     0.000000     0.023857    -1.775413
	   55 D(2,1,6,12)     =   -179.053494    -0.000001    -0.021621  -179.075115
	   56 D(2,1,7,13)     =   -157.617979    -0.000001     0.098412  -157.519567
	   57 D(2,1,7,14)     =     28.782228     0.000002     0.090170    28.872397
	   58 D(2,3,4,5)      =     -0.503449     0.000000     0.012653    -0.490796
	   59 D(2,3,4,10)     =    179.791339     0.000002     0.254941   180.046280
	   60 D(3,2,1,6)      =      1.396125     0.000000    -0.071795     1.324331
	   61 D(3,2,1,7)      =   -177.756571    -0.000000    -0.136920  -177.893491
	   62 D(3,4,5,6)      =      0.097753     0.000000    -0.060823     0.036930
	   63 D(3,4,5,11)     =    179.886368     0.000000    -0.069704   179.816664
	   64 D(4,3,2,8)      =    176.562345    -0.000000     0.133385   176.695730
	   65 D(4,5,6,12)     =    178.333244     0.000000     0.086740   178.419984
	   66 D(5,4,3,9)      =    178.690963    -0.000002    -0.260182   178.430781
	   67 D(5,6,1,7)      =    177.366948     0.000001     0.088014   177.454962
	   68 D(6,1,2,8)      =   -175.385202     0.000000    -0.152297  -175.537499
	   69 D(6,1,7,13)     =     23.227021    -0.000001     0.033435    23.260456
	   70 D(6,1,7,14)     =   -150.372772     0.000002     0.025192  -150.347579
	   71 D(6,5,4,10)     =    179.802864    -0.000002    -0.303205   179.499659
	   72 D(7,1,2,8)      =      5.462102    -0.000000    -0.217422     5.244680
	   73 D(7,1,6,12)     =      0.112723    -0.000000     0.042537     0.155260
	   74 D(8,2,3,9)      =     -2.633817     0.000001     0.405695    -2.228122
	   75 D(9,3,4,10)     =     -1.014249     0.000000    -0.017894    -1.032143
	   76 D(10,4,5,11)    =     -0.408520    -0.000002    -0.312086    -0.720607
	   77 D(11,5,6,12)    =     -1.456136     0.000000     0.095584    -1.360552
	   78 D(13,7,14,15)   =     10.599864     0.000001    -0.051898    10.547966
	   79 D(13,7,14,16)   =   -168.268777     0.000002     0.013651  -168.255126
	   80 D(14,7,13,17)   =     83.992315    -0.000002     0.009429    84.001743
	   81 D(14,7,13,18)   =   -154.795512    -0.000002    -0.029662  -154.825174
	 ---------------------------------------------------------------------------
	Successfully symmetrized geometry.

  ==> Convergence Check <==

  Measures of convergence in internal coordinates in au.
  Criteria marked as inactive (o), active & met (*), and active & unmet ( ).
  ---------------------------------------------------------------------------------------------
   Step     Total Energy     Delta E     MAX Force     RMS Force      MAX Disp      RMS Disp   
  ---------------------------------------------------------------------------------------------
    Convergence Criteria    1.00e-06 *    3.00e-04 *             o    1.20e-03 *             o
  ---------------------------------------------------------------------------------------------
     20    -381.44882754   -8.55e-07 *    1.89e-04 *    6.49e-05 o    7.08e-03      1.71e-03 o  ~
  ---------------------------------------------------------------------------------------------


  **** Optimization is complete! (in 20 steps) ****

  ==> Optimization Summary <==

  Measures of convergence in internal coordinates in au.
  --------------------------------------------------------------------------------------------------------------- ~
   Step         Total Energy             Delta E       MAX Force       RMS Force        MAX Disp        RMS Disp  ~
  --------------------------------------------------------------------------------------------------------------- ~
      1    -381.077502271724   -381.077502271724      0.12633516      0.03965105      0.07246203      0.02221896  ~
      2    -381.146624146494     -0.069121874770      0.12213473      0.03710151      0.07494045      0.02221703  ~
      3    -381.210812013136     -0.064187866642      0.11582317      0.03416266      0.07690475      0.02221625  ~
      4    -381.269291547841     -0.058479534706      0.10691407      0.03074706      0.07922526      0.02221525  ~
      5    -381.321165806242     -0.051874258401      0.09584806      0.02681493      0.08324949      0.02221488  ~
      6    -381.365460056376     -0.044294250134      0.08720394      0.02231326      0.09545067      0.02221320  ~
      7    -381.401110193470     -0.035650137094      0.07744107      0.01720413      0.11204713      0.02221201  ~
      8    -381.427032362522     -0.025922169052      0.06033082      0.01150840      0.13201184      0.02221378  ~
      9    -381.442297275277     -0.015264912755      0.03007212      0.00543509      0.11846405      0.02224694  ~
     10    -381.447376756600     -0.005079481323      0.00706152      0.00179020      0.05753805      0.02224516  ~
     11    -381.448388886845     -0.001012130244      0.01135857      0.00161390      0.08697136      0.02222828  ~
     12    -381.448623971400     -0.000235084556      0.00628043      0.00126028      0.03285880      0.01111982  ~
     13    -381.448751856106     -0.000127884705      0.00276810      0.00069737      0.02901107      0.00834593  ~
     14    -381.448773076165     -0.000021220059      0.00176036      0.00042999      0.04026775      0.01108116  ~
     15    -381.448782061988     -0.000008985823      0.00159754      0.00048249      0.01860528      0.00675633  ~
     16    -381.448802353564     -0.000020291576      0.00161742      0.00036287      0.01909473      0.00664848  ~
     17    -381.448804209053     -0.000001855489      0.00191968      0.00034581      0.01913871      0.00573532  ~
     18    -381.448814585767     -0.000010376714      0.00130772      0.00030954      0.01317675      0.00400045  ~
     19    -381.448826680469     -0.000012094702      0.00036840      0.00009408      0.00969499      0.00256316  ~
     20    -381.448827535387     -0.000000854918      0.00018920      0.00006487      0.00708072      0.00171381  ~
  --------------------------------------------------------------------------------------------------------------- ~

	Writing optimization data to binary file.
	Final energy is   -381.4488275353869
	Final (previous) structure:
	Cartesian Geometry (in Angstrom)
	    C    -0.1429687300   0.0557563831  -0.1321391620
	    C     0.7506841037   1.1512448169  -0.1443466567
	    C     1.7601794330   1.2331880532   0.8045697095
	    C     1.8877764967   0.2319924045   1.7760344324
	    C     0.9990803377  -0.8479241653   1.8064829377
	    C    -0.0200352408  -0.9348454198   0.8662188381
	    C    -1.1763343634  -0.0765564108  -1.1433623106
	    H     0.6226968164   1.9591167141  -0.8598079704
	    H     2.4401362905   2.0785114646   0.8003628190
	    H     2.6808997130   0.2975287875   2.5149173524
	    H     1.1050451067  -1.6208052743   2.5607596664
	    H    -0.6895426763  -1.7890965827   0.8784537072
	    N    -2.3347459912  -0.8199116815  -0.9816456340
	    N    -1.0129584508   0.4184521512  -2.3561453858
	    H    -1.7799465846   0.3760622223  -3.0208582420
	    H    -0.1372940301   0.8289841677  -2.6594847889
	    H    -2.2532357037  -1.7928980089  -1.2763421892
	    H    -2.6367785270  -0.8303416220  -0.0086381232
	Saving final (previous) structure.
	Removing binary optimization data file.
			--------------------------
			 OPTKING Finished Execution 
			--------------------------

    Final optimized geometry and variables:
    Molecular point group: c1
    Full point group: C1

    Geometry (in Angstrom), charge = 1, multiplicity = 1:

    C           -0.142968730028     0.055756383144    -0.132139161984
    C            0.750684103743     1.151244816875    -0.144346656676
    C            1.760179433015     1.233188053209     0.804569709532
    C            1.887776496748     0.231992404544     1.776034432427
    C            0.999080337657    -0.847924165252     1.806482937706
    C           -0.020035240805    -0.934845419795     0.866218838149
    C           -1.176334363368    -0.076556410766    -1.143362310589
    H            0.622696816365     1.959116714093    -0.859807970444
    H            2.440136290521     2.078511464555     0.800362818966
    H            2.680899712990     0.297528787507     2.514917352444
    H            1.105045106738    -1.620805274253     2.560759666391
    H           -0.689542676255    -1.789096582723     0.878453707227
    N           -2.334745991190    -0.819911681493    -0.981645634030
    N           -1.012958450799     0.418452151245    -2.356145385838
    H           -1.779946584568     0.376062222314    -3.020858241971
    H           -0.137294030085     0.828984167727    -2.659484788884
    H           -2.253235703686    -1.792898008917    -1.276342189222
    H           -2.636778527003    -0.830341621995    -0.008638123221

	Removing binary optimization data file.
	Cleaning optimization helper files.


Properties will be evaluated at   0.000000,   0.000000,   0.000000 [a0]
OEProp: No title given, name of density matrix used for the following properties is 'SCF density'
  Nuclear Dipole Moment: [e a0]
     X:     0.5071      Y:     2.9744      Z:    -2.7107

  Electronic Dipole Moment: [e a0]
     X:    -1.1787      Y:    -3.2150      Z:     1.4256

  Dipole Moment: [e a0]
     X:    -0.6716      Y:    -0.2407      Z:    -1.2850     Total:     1.4698

  Dipole Moment: [D]
     X:    -1.7071      Y:    -0.6117      Z:    -3.2662     Total:     3.7358

  Quadrupole Moment: [D A]
    XX:   -37.1461     YY:   -41.0849     ZZ:   -28.4031
    XY:     8.1090     XZ:    10.8516     YZ:    -4.4996

  Traceless Quadrupole Moment: [D A]
    XX:    -1.6014     YY:    -5.5402     ZZ:     7.1416
    XY:     8.1090     XZ:    10.8516     YZ:    -4.4996

  Mulliken Charges: (a.u.)
   Center  Symbol    Alpha    Beta     Spin     Total
       1     C     2.93401  2.93401  0.00000  0.13197
       2     C     3.08338  3.08338  0.00000 -0.16676
       3     C     3.06149  3.06149  0.00000 -0.12299
       4     C     3.04923  3.04923  0.00000 -0.09847
       5     C     3.06168  3.06168  0.00000 -0.12336
       6     C     3.07911  3.07911  0.00000 -0.15823
       7     C     2.77891  2.77891  0.00000  0.44219
       8     H     0.41301  0.41301  0.00000  0.17397
       9     H     0.40255  0.40255  0.00000  0.19491
      10     H     0.40026  0.40026  0.00000  0.19949
      11     H     0.40268  0.40268  0.00000  0.19464
      12     H     0.41891  0.41891  0.00000  0.16217
      13     N     3.86689  3.86689  0.00000 -0.73377
      14     N     3.83197  3.83197  0.00000 -0.66395
      15     H     0.29575  0.29575  0.00000  0.40849
      16     H     0.30074  0.30074  0.00000  0.39852
      17     H     0.30535  0.30535  0.00000  0.38930
      18     H     0.31407  0.31407  0.00000  0.37186

   Total alpha = 32.00000, Total beta = 32.00000, Total charge =  1.00000


    Psi4 stopped on: Saturday, 29 September 2018 08:41PM
    Psi4 wall time for execution: 0:16:37.45

*** Psi4 exiting successfully. Buy a developer a beer!
