
    -----------------------------------------------------------------------
          Psi4: An Open-Source Ab Initio Electronic Structure Package
                               Psi4 1.2.1 release

                         Git: Rev {HEAD} 406f4de 


    R. M. Parrish, L. A. Burns, D. G. A. Smith, A. C. Simmonett,
    A. E. DePrince III, E. G. Hohenstein, U. Bozkaya, A. Yu. Sokolov,
    R. Di Remigio, R. M. Richard, J. F. Gonthier, A. M. James,
    H. R. McAlexander, A. Kumar, M. Saitow, X. Wang, B. P. Pritchard,
    P. Verma, H. F. Schaefer III, K. Patkowski, R. A. King, E. F. Valeev,
    F. A. Evangelista, J. M. Turney, T. D. Crawford, and C. D. Sherrill,
    J. Chem. Theory Comput. 13(7) pp 3185--3197 (2017).
    (doi: 10.1021/acs.jctc.7b00174)


                         Additional Contributions by
    P. Kraus, H. Kruse, M. H. Lechner, M. C. Schieber, and R. A. Shaw

    -----------------------------------------------------------------------


    Psi4 started on: Saturday, 29 September 2018 05:09PM

    Process ID: 13460
    Host:       loro.prib.upf.edu
    PSIDATADIR: /shared/joao/test_parameterize/miniconda3/share/psi4
    Memory:     500.0 MiB
    Threads:    1
    
  ==> Input File <==

--------------------------------------------------------------------------
set_num_threads(1)
set_memory('5348 MB')

set { scf_mem_safety_factor 0.7 }

set { reference rks }
set { basis cc-pVDZ }

molecule MOL {
    0 1
    noreorient
    nocom
    symmetry c1
    O    1.050400   0.042900  -0.048100
    C    2.474100   0.047400  -0.029000
    C    3.002600  -1.068900  -0.932000
    N    4.462700  -1.072400  -1.006800
    H    0.760400   0.728400   0.578000
    H    2.809900  -0.097900   1.003200
    H    2.817400   1.026800  -0.378600
    H    2.581000  -0.963300  -1.938400
    H    2.653800  -2.036400  -0.553400
    H    4.837983  -0.430945  -0.308817
    H    4.745711  -0.696513  -1.911711
}

set optking { frozen_dihedral = (" 2 3 4 10 ") }

energy, wfn = energy('B3LYP-D3', return_wfn=True)

import os
os.chdir(os.environ['HTMD_PSI4_WORKDIR'])

oeprop(wfn, 'DIPOLE', 'QUADRUPOLE', 'MULLIKEN_CHARGES')

with open('psi4out.xyz', 'w') as f:
    f.write('11 ' )
    f.write('%.12f\n' % energy)
    f.write(MOL.save_string_xyz())
--------------------------------------------------------------------------
  Threads set to 1 by Python driver.

  Memory set to   4.981 GiB by Python driver.

*** tstart() called on loro.prib.upf.edu
*** at Sat Sep 29 17:09:47 2018

   => Loading Basis Set <=

    Name: CC-PVDZ
    Role: ORBITAL
    Keyword: BASIS
    atoms 1    entry O          line   198 file /shared/joao/test_parameterize/miniconda3/share/psi4/basis/cc-pvdz.gbs 
    atoms 2-3  entry C          line   138 file /shared/joao/test_parameterize/miniconda3/share/psi4/basis/cc-pvdz.gbs 
    atoms 4    entry N          line   168 file /shared/joao/test_parameterize/miniconda3/share/psi4/basis/cc-pvdz.gbs 
    atoms 5-11 entry H          line    22 file /shared/joao/test_parameterize/miniconda3/share/psi4/basis/cc-pvdz.gbs 


         ---------------------------------------------------------
                                   SCF
            by Justin Turney, Rob Parrish, Andy Simmonett
                             and Daniel Smith
                              RKS Reference
                        1 Threads,   5100 MiB Core
         ---------------------------------------------------------

  ==> Geometry <==

    Molecular point group: c1
    Full point group: C1

    Geometry (in Angstrom), charge = 0, multiplicity = 1:

       Center              X                  Y                   Z               Mass       
    ------------   -----------------  -----------------  -----------------  -----------------
         O            1.050400000000     0.042900000000    -0.048100000000    15.994914619560
         C            2.474100000000     0.047400000000    -0.029000000000    12.000000000000
         C            3.002600000000    -1.068900000000    -0.932000000000    12.000000000000
         N            4.462700000000    -1.072400000000    -1.006800000000    14.003074004780
         H            0.760400000000     0.728400000000     0.578000000000     1.007825032070
         H            2.809900000000    -0.097900000000     1.003200000000     1.007825032070
         H            2.817400000000     1.026800000000    -0.378600000000     1.007825032070
         H            2.581000000000    -0.963300000000    -1.938400000000     1.007825032070
         H            2.653800000000    -2.036400000000    -0.553400000000     1.007825032070
         H            4.837983000000    -0.430945000000    -0.308817000000     1.007825032070
         H            4.745711000000    -0.696513000000    -1.911711000000     1.007825032070

  Running in c1 symmetry.

  Rotational constants: A =      0.72272  B =      0.02778  C =      0.02710 [cm^-1]
  Rotational constants: A =  21666.71954  B =    832.79599  C =    812.43659 [MHz]
  Nuclear repulsion =  130.824690128178332

  Charge       = 0
  Multiplicity = 1
  Electrons    = 34
  Nalpha       = 17
  Nbeta        = 17

  ==> Algorithm <==

  SCF Algorithm Type is DF.
  DIIS enabled.
  MOM disabled.
  Fractional occupation disabled.
  Guess Type is SAD.
  Energy threshold   = 1.00e-06
  Density threshold  = 1.00e-06
  Integral threshold = 0.00e+00

  ==> Primary Basis <==

  Basis Set: CC-PVDZ
    Blend: CC-PVDZ
    Number of shells: 45
    Number of basis function: 91
    Number of Cartesian functions: 95
    Spherical Harmonics?: true
    Max angular momentum: 2

  ==> DFT Potential <==

   => Composite Functional: B3LYP-D3ZERO <= 

    B3LYP-d3zero Hyb-GGA Exchange-Correlation Functional

    P. J. Stephens, F. J. Devlin, C. F. Chabalowski, and M. J. Frisch, J. Phys. Chem. 98, 11623 (1994)

    Deriv               =              1
    GGA                 =           TRUE
    Meta                =          FALSE

    Exchange Hybrid     =           TRUE
    MP2 Hybrid          =          FALSE

   => Exchange Functionals <=

    0.0800   Slater exchange
    0.7200         Becke 88

   => Exact (HF) Exchange <=

    0.2000               HF 

   => Correlation Functionals <=

    0.1900   Vosko, Wilk & Nusair (VWN5_RPA)
    0.8100   Lee, Yang & Parr

   => Molecular Quadrature <=

    Radial Scheme       =       TREUTLER
    Pruning Scheme      =           FLAT
    Nuclear Scheme      =       TREUTLER

    BS radius alpha     =              1
    Pruning alpha       =              1
    Radial Points       =             75
    Spherical Points    =            302
    Total Points        =         245068
    Total Blocks        =           1906
    Max Points          =            256
    Max Functions       =             91

   => -D3ZERO: Empirical Dispersion <=

    Grimme's -D3 (zero-damping) Dispersion Correction
    Grimme S.; Antony J.; Ehrlich S.; Krieg H. (2010), J. Chem. Phys., 132: 154104

        S6 =   1.000000E+00
        S8 =   1.703000E+00
       SR6 =   1.261000E+00
       SR8 =   1.000000E+00
    ALPHA6 =   1.400000E+01

   => Loading Basis Set <=

    Name: (CC-PVDZ AUX)
    Role: JKFIT
    Keyword: DF_BASIS_SCF
    atoms 1    entry O          line   221 file /shared/joao/test_parameterize/miniconda3/share/psi4/basis/cc-pvdz-jkfit.gbs 
    atoms 2-3  entry C          line   121 file /shared/joao/test_parameterize/miniconda3/share/psi4/basis/cc-pvdz-jkfit.gbs 
    atoms 4    entry N          line   171 file /shared/joao/test_parameterize/miniconda3/share/psi4/basis/cc-pvdz-jkfit.gbs 
    atoms 5-11 entry H          line    51 file /shared/joao/test_parameterize/miniconda3/share/psi4/basis/cc-pvdz-jkfit.gbs 

  ==> Pre-Iterations <==

   -------------------------------------------------------
    Irrep   Nso     Nmo     Nalpha   Nbeta   Ndocc  Nsocc
   -------------------------------------------------------
     A         91      91       0       0       0       0
   -------------------------------------------------------
    Total      91      91      17      17      17       0
   -------------------------------------------------------

  ==> Integral Setup <==

  DFHelper Memory: AOs need 0.036 [GiB]; user supplied 3.486 [GiB]. Using in-core AOs.

  ==> MemDFJK: Density-Fitted J/K Matrices <==

    J tasked:                   Yes
    K tasked:                   Yes
    wK tasked:                   No
    OpenMP threads:               1
    Memory (MB):               3570
    Algorithm:                 Core
    Schwarz Cutoff:           1E-12
    Mask sparsity (%):       0.2898
    Fitting Condition:        1E-12

   => Auxiliary Basis Set <=

  Basis Set: (CC-PVDZ AUX)
    Blend: CC-PVDZ-JKFIT
    Number of shells: 159
    Number of basis function: 441
    Number of Cartesian functions: 499
    Spherical Harmonics?: true
    Max angular momentum: 3

  Minimum eigenvalue in the overlap matrix is 4.4863146245E-03.
  Using Symmetric Orthogonalization.

  SCF Guess: Superposition of Atomic Densities via on-the-fly atomic UHF.

  ==> Iterations <==

                           Total Energy        Delta E     RMS |[F,P]|

   @DF-RKS iter   0:  -210.84567924220448   -2.10846e+02   3.66913e-02 
   @DF-RKS iter   1:  -210.21474534293372    6.30934e-01   7.01311e-03 
   @DF-RKS iter   2:  -210.06814654800610    1.46599e-01   9.66269e-03 DIIS
   @DF-RKS iter   3:  -210.38741280365923   -3.19266e-01   6.18100e-04 DIIS
   @DF-RKS iter   4:  -210.38829989002744   -8.87086e-04   3.63231e-04 DIIS
   @DF-RKS iter   5:  -210.38877323909648   -4.73349e-04   4.93224e-05 DIIS
   @DF-RKS iter   6:  -210.38877960478229   -6.36569e-06   2.42711e-05 DIIS
   @DF-RKS iter   7:  -210.38878172629234   -2.12151e-06   2.12225e-06 DIIS
   @DF-RKS iter   8:  -210.38878174266495   -1.63726e-08   7.52039e-07 DIIS

  ==> Post-Iterations <==

    Orbital Energies [Eh]
    ---------------------

    Doubly Occupied:                                                      

       1A    -19.129883     2A    -14.305490     3A    -10.227878  
       4A    -10.201614     5A     -1.012462     6A     -0.878801  
       7A     -0.711729     8A     -0.605194     9A     -0.509519  
      10A     -0.487459    11A     -0.454936    12A     -0.415636  
      13A     -0.393228    14A     -0.359815    15A     -0.328507  
      16A     -0.264447    17A     -0.232704  

    Virtual:                                                              

      18A      0.048980    19A      0.056358    20A      0.094856  
      21A      0.110609    22A      0.125881    23A      0.147418  
      24A      0.172496    25A      0.218673    26A      0.243411  
      27A      0.261229    28A      0.430647    29A      0.448146  
      30A      0.492708    31A      0.529811    32A      0.550594  
      33A      0.568861    34A      0.602613    35A      0.620802  
      36A      0.629828    37A      0.655384    38A      0.658013  
      39A      0.671917    40A      0.685280    41A      0.828458  
      42A      0.848226    43A      0.866813    44A      0.905273  
      45A      0.930406    46A      0.956759    47A      0.991426  
      48A      1.059806    49A      1.184251    50A      1.203642  
      51A      1.229755    52A      1.267054    53A      1.328581  
      54A      1.346737    55A      1.421515    56A      1.511366  
      57A      1.551997    58A      1.593696    59A      1.605602  
      60A      1.616040    61A      1.645104    62A      1.663538  
      63A      1.687189    64A      1.721060    65A      1.739834  
      66A      1.785056    67A      1.819010    68A      1.863682  
      69A      1.899273    70A      1.955389    71A      2.014458  
      72A      2.044866    73A      2.064906    74A      2.133454  
      75A      2.158184    76A      2.202977    77A      2.290326  
      78A      2.377283    79A      2.398852    80A      2.432440  
      81A      2.478753    82A      2.570233    83A      2.623111  
      84A      2.649833    85A      2.819818    86A      2.957545  
      87A      3.006968    88A      3.045716    89A      3.093838  
      90A      3.208099    91A      3.691546  

    Final Occupation by Irrep:
              A 
    DOCC [    17 ]

  Energy converged.

  @DF-RKS Final Energy:  -210.38878174266495

   => Energetics <=

    Nuclear Repulsion Energy =            130.8246901281783323
    One-Electron Energy =                -544.5054851903485087
    Two-Electron Energy =                 226.7845032395329099
    DFT Exchange-Correlation Energy =     -23.4875077900276388
    Empirical Dispersion Energy =          -0.0049821300000000
    VV10 Nonlocal Energy =                  0.0000000000000000
    Total Energy =                       -210.3887817426649463



Properties will be evaluated at   0.000000,   0.000000,   0.000000 [a0]

Properties computed using the SCF density matrix

  Nuclear Dipole Moment: [e a0]
     X:   177.0834      Y:   -29.7867      Z:   -31.5738

  Electronic Dipole Moment: [e a0]
     X:  -176.9060      Y:    30.6502      Z:    31.8136

  Dipole Moment: [e a0]
     X:     0.1774      Y:     0.8635      Z:     0.2398     Total:     0.9136

  Dipole Moment: [D]
     X:     0.4508      Y:     2.1948      Z:     0.6096     Total:     2.3220


*** tstop() called on loro.prib.upf.edu at Sat Sep 29 17:10:05 2018
Module time:
	user time   =      15.29 seconds =       0.25 minutes
	system time =       0.23 seconds =       0.00 minutes
	total time  =         18 seconds =       0.30 minutes
Total time:
	user time   =      15.29 seconds =       0.25 minutes
	system time =       0.23 seconds =       0.00 minutes
	total time  =         18 seconds =       0.30 minutes


Properties will be evaluated at   0.000000,   0.000000,   0.000000 [a0]
OEProp: No title given, name of density matrix used for the following properties is 'SCF density'
  Nuclear Dipole Moment: [e a0]
     X:   177.0834      Y:   -29.7867      Z:   -31.5738

  Electronic Dipole Moment: [e a0]
     X:  -176.9060      Y:    30.6502      Z:    31.8136

  Dipole Moment: [e a0]
     X:     0.1774      Y:     0.8635      Z:     0.2398     Total:     0.9136

  Dipole Moment: [D]
     X:     0.4508      Y:     2.1948      Z:     0.6096     Total:     2.3220

  Quadrupole Moment: [D A]
    XX:   -25.0548     YY:   -27.7703     ZZ:   -22.9527
    XY:     7.0245     XZ:    -0.7243     YZ:     0.0621

  Traceless Quadrupole Moment: [D A]
    XX:     0.2045     YY:    -2.5110     ZZ:     2.3065
    XY:     7.0245     XZ:    -0.7243     YZ:     0.0621

  Mulliken Charges: (a.u.)
   Center  Symbol    Alpha    Beta     Spin     Total
       1     O     4.13772  4.13772  0.00000 -0.27544
       2     C     2.94352  2.94352  0.00000  0.11296
       3     C     2.97880  2.97880  0.00000  0.04239
       4     N     3.59061  3.59061  0.00000 -0.18122
       5     H     0.43064  0.43064  0.00000  0.13871
       6     H     0.49887  0.49887  0.00000  0.00226
       7     H     0.50567  0.50567  0.00000 -0.01134
       8     H     0.49285  0.49285  0.00000  0.01431
       9     H     0.49045  0.49045  0.00000  0.01911
      10     H     0.46829  0.46829  0.00000  0.06343
      11     H     0.46258  0.46258  0.00000  0.07483

   Total alpha = 17.00000, Total beta = 17.00000, Total charge = -0.00000


    Psi4 stopped on: Saturday, 29 September 2018 05:10PM
    Psi4 wall time for execution: 0:00:17.91

*** Psi4 exiting successfully. Buy a developer a beer!
