
    -----------------------------------------------------------------------
          Psi4: An Open-Source Ab Initio Electronic Structure Package
                               Psi4 1.2.1 release

                         Git: Rev {HEAD} 406f4de 


    R. M. Parrish, L. A. Burns, D. G. A. Smith, A. C. Simmonett,
    A. E. DePrince III, E. G. Hohenstein, U. Bozkaya, A. Yu. Sokolov,
    R. Di Remigio, R. M. Richard, J. F. Gonthier, A. M. James,
    H. R. McAlexander, A. Kumar, M. Saitow, X. Wang, B. P. Pritchard,
    P. Verma, H. F. Schaefer III, K. Patkowski, R. A. King, E. F. Valeev,
    F. A. Evangelista, J. M. Turney, T. D. Crawford, and C. D. Sherrill,
    J. Chem. Theory Comput. 13(7) pp 3185--3197 (2017).
    (doi: 10.1021/acs.jctc.7b00174)


                         Additional Contributions by
    P. Kraus, H. Kruse, M. H. Lechner, M. C. Schieber, and R. A. Shaw

    -----------------------------------------------------------------------


    Psi4 started on: Saturday, 29 September 2018 08:36PM

    Process ID: 31510
    Host:       arancio.prib.upf.edu
    PSIDATADIR: /shared/joao/test_parameterize/miniconda3/share/psi4
    Memory:     500.0 MiB
    Threads:    1
    
  ==> Input File <==

--------------------------------------------------------------------------
set_num_threads(4)
set_memory('3000 MB')

set { scf_mem_safety_factor 0.7 }

set { reference rks }
set { basis 6-31G* }

molecule MOL {
    1 1
    noreorient
    nocom
    symmetry c1
    C   -0.000000  -0.000000  -0.177864
    C    0.036678   1.219374   0.524165
    C    0.031765   1.213120   1.915444
    C    0.000000   0.000000   2.610107
    C   -0.031765  -1.213120   1.915444
    C   -0.036678  -1.219375   0.524165
    C   -0.000000   0.000000  -1.644734
    H    0.018170   2.164705  -0.010854
    H    0.042402   2.152895   2.457886
    H    0.000000   0.000000   3.695756
    H   -0.042402  -2.152895   2.457886
    H   -0.018170  -2.164705  -0.010853
    N   -0.712590  -0.905950  -2.308461
    N    0.712590   0.905950  -2.308460
    H    0.673432   1.006470  -3.315997
    H    1.377190   1.485970  -1.813316
    H   -1.218470  -0.637218  -3.142219
    H   -0.725961  -1.887476  -2.057076
}

set optking { frozen_dihedral = (" 1 7 13 17 ") }

set optking { dynamic_level = 1 
 geom_maxiter = 250
 print_trajectory_xyz_file = True }

energy, wfn = optimize('B3LYP-D3', return_wfn=True)

import os
os.chdir(os.environ['HTMD_PSI4_WORKDIR'])

oeprop(wfn, 'DIPOLE', 'QUADRUPOLE', 'MULLIKEN_CHARGES')

with open('psi4out.xyz', 'w') as f:
    f.write('18 ' )
    f.write('%.12f\n' % energy)
    f.write(MOL.save_string_xyz())
--------------------------------------------------------------------------
  Threads set to 4 by Python driver.

  Memory set to   2.794 GiB by Python driver.
gradient() will perform analytic gradient computation.

*** tstart() called on arancio.prib.upf.edu
*** at Sat Sep 29 20:36:21 2018

   => Loading Basis Set <=

    Name: 6-31G*
    Role: ORBITAL
    Keyword: BASIS
    atoms 1-7         entry C          line   111 file /shared/joao/test_parameterize/miniconda3/share/psi4/basis/6-31gs.gbs 
    atoms 8-12, 15-18 entry H          line    44 file /shared/joao/test_parameterize/miniconda3/share/psi4/basis/6-31gs.gbs 
    atoms 13-14       entry N          line   128 file /shared/joao/test_parameterize/miniconda3/share/psi4/basis/6-31gs.gbs 


         ---------------------------------------------------------
                                   SCF
            by Justin Turney, Rob Parrish, Andy Simmonett
                             and Daniel Smith
                              RKS Reference
                        4 Threads,   2861 MiB Core
         ---------------------------------------------------------

  ==> Geometry <==

    Molecular point group: c1
    Full point group: C1

    Geometry (in Angstrom), charge = 1, multiplicity = 1:

       Center              X                  Y                   Z               Mass       
    ------------   -----------------  -----------------  -----------------  -----------------
         C            0.000000000000     0.000000000000    -0.177864000000    12.000000000000
         C            0.036678000000     1.219374000000     0.524165000000    12.000000000000
         C            0.031765000000     1.213120000000     1.915444000000    12.000000000000
         C            0.000000000000     0.000000000000     2.610107000000    12.000000000000
         C           -0.031765000000    -1.213120000000     1.915444000000    12.000000000000
         C           -0.036678000000    -1.219375000000     0.524165000000    12.000000000000
         C            0.000000000000     0.000000000000    -1.644734000000    12.000000000000
         H            0.018170000000     2.164705000000    -0.010854000000     1.007825032070
         H            0.042402000000     2.152895000000     2.457886000000     1.007825032070
         H            0.000000000000     0.000000000000     3.695756000000     1.007825032070
         H           -0.042402000000    -2.152895000000     2.457886000000     1.007825032070
         H           -0.018170000000    -2.164705000000    -0.010853000000     1.007825032070
         N           -0.712590000000    -0.905950000000    -2.308461000000    14.003074004780
         N            0.712590000000     0.905950000000    -2.308460000000    14.003074004780
         H            0.673432000000     1.006470000000    -3.315997000000     1.007825032070
         H            1.377190000000     1.485970000000    -1.813316000000     1.007825032070
         H           -1.218470000000    -0.637218000000    -3.142219000000     1.007825032070
         H           -0.725961000000    -1.887476000000    -2.057076000000     1.007825032070

  Running in c1 symmetry.

  Rotational constants: A =      0.12154  B =      0.03959  C =      0.03128 [cm^-1]
  Rotational constants: A =   3643.65000  B =   1186.96247  C =    937.60964 [MHz]
  Nuclear repulsion =  416.790916528242064

  Charge       = 1
  Multiplicity = 1
  Electrons    = 64
  Nalpha       = 32
  Nbeta        = 32

  ==> Algorithm <==

  SCF Algorithm Type is DF.
  DIIS enabled.
  MOM disabled.
  Fractional occupation disabled.
  Guess Type is SAD.
  Energy threshold   = 1.00e-08
  Density threshold  = 1.00e-08
  Integral threshold = 0.00e+00

  ==> Primary Basis <==

  Basis Set: 6-31G*
    Blend: 6-31G*
    Number of shells: 72
    Number of basis function: 153
    Number of Cartesian functions: 153
    Spherical Harmonics?: false
    Max angular momentum: 2

  ==> DFT Potential <==

   => Composite Functional: B3LYP-D3ZERO <= 

    B3LYP-d3zero Hyb-GGA Exchange-Correlation Functional

    P. J. Stephens, F. J. Devlin, C. F. Chabalowski, and M. J. Frisch, J. Phys. Chem. 98, 11623 (1994)

    Deriv               =              1
    GGA                 =           TRUE
    Meta                =          FALSE

    Exchange Hybrid     =           TRUE
    MP2 Hybrid          =          FALSE

   => Exchange Functionals <=

    0.0800   Slater exchange
    0.7200         Becke 88

   => Exact (HF) Exchange <=

    0.2000               HF 

   => Correlation Functionals <=

    0.1900   Vosko, Wilk & Nusair (VWN5_RPA)
    0.8100   Lee, Yang & Parr

   => Molecular Quadrature <=

    Radial Scheme       =       TREUTLER
    Pruning Scheme      =           FLAT
    Nuclear Scheme      =       TREUTLER

    BS radius alpha     =              1
    Pruning alpha       =              1
    Radial Points       =             75
    Spherical Points    =            302
    Total Points        =         396936
    Total Blocks        =           3009
    Max Points          =            256
    Max Functions       =            149

   => -D3ZERO: Empirical Dispersion <=

    Grimme's -D3 (zero-damping) Dispersion Correction
    Grimme S.; Antony J.; Ehrlich S.; Krieg H. (2010), J. Chem. Phys., 132: 154104

        S6 =   1.000000E+00
        S8 =   1.703000E+00
       SR6 =   1.261000E+00
       SR8 =   1.000000E+00
    ALPHA6 =   1.400000E+01

   => Loading Basis Set <=

    Name: (6-31G* AUX)
    Role: JKFIT
    Keyword: DF_BASIS_SCF
    atoms 1-7         entry C          line   121 file /shared/joao/test_parameterize/miniconda3/share/psi4/basis/cc-pvdz-jkfit.gbs 
    atoms 8-12, 15-18 entry H          line    51 file /shared/joao/test_parameterize/miniconda3/share/psi4/basis/cc-pvdz-jkfit.gbs 
    atoms 13-14       entry N          line   171 file /shared/joao/test_parameterize/miniconda3/share/psi4/basis/cc-pvdz-jkfit.gbs 

  ==> Pre-Iterations <==

   -------------------------------------------------------
    Irrep   Nso     Nmo     Nalpha   Nbeta   Ndocc  Nsocc
   -------------------------------------------------------
     A        153     153       0       0       0       0
   -------------------------------------------------------
    Total     153     153      32      32      32       0
   -------------------------------------------------------

  ==> Integral Setup <==

  ==> DiskDFJK: Density-Fitted J/K Matrices <==

    J tasked:                  Yes
    K tasked:                  Yes
    wK tasked:                  No
    OpenMP threads:              4
    Integrals threads:           4
    Memory (MB):              2002
    Algorithm:                Core
    Integral Cache:           NONE
    Schwarz Cutoff:          1E-12
    Fitting Condition:       1E-12

   => Auxiliary Basis Set <=

  Basis Set: (6-31G* AUX)
    Blend: CC-PVDZ-JKFIT
    Number of shells: 297
    Number of basis function: 954
    Number of Cartesian functions: 954
    Spherical Harmonics?: false
    Max angular momentum: 3

  Minimum eigenvalue in the overlap matrix is 4.8569458468E-04.
  Using Symmetric Orthogonalization.

  SCF Guess: Superposition of Atomic Densities via on-the-fly atomic UHF.

  ==> Iterations <==

                           Total Energy        Delta E     RMS |[F,P]|

   @DF-RKS iter   0:  -379.61989404968716   -3.79620e+02   6.73185e-02 
   @DF-RKS iter   1:  -381.01024865998181   -1.39035e+00   1.19366e-02 
   @DF-RKS iter   2:  -380.89859073736005    1.11658e-01   1.34035e-02 DIIS
   @DF-RKS iter   3:  -381.43681747873359   -5.38227e-01   1.95557e-03 DIIS
   @DF-RKS iter   4:  -381.44537438248250   -8.55690e-03   8.25928e-04 DIIS
   @DF-RKS iter   5:  -381.44704027972125   -1.66590e-03   2.63428e-04 DIIS
   @DF-RKS iter   6:  -381.44721153631133   -1.71257e-04   8.43156e-05 DIIS
   @DF-RKS iter   7:  -381.44723009060698   -1.85543e-05   1.54243e-05 DIIS
   @DF-RKS iter   8:  -381.44723069223534   -6.01628e-07   6.53415e-06 DIIS
   @DF-RKS iter   9:  -381.44723081963707   -1.27402e-07   2.15600e-06 DIIS
   @DF-RKS iter  10:  -381.44723083426828   -1.46312e-08   7.01676e-07 DIIS
   @DF-RKS iter  11:  -381.44723083576224   -1.49396e-09   7.13805e-08 DIIS
   @DF-RKS iter  12:  -381.44723083577748   -1.52340e-11   2.58368e-08 DIIS
   @DF-RKS iter  13:  -381.44723083577918   -1.70530e-12   1.43457e-08 DIIS
   @DF-RKS iter  14:  -381.44723083578037   -1.19371e-12   4.51338e-09 DIIS

  ==> Post-Iterations <==

    Orbital Energies [Eh]
    ---------------------

    Doubly Occupied:                                                      

       1A    -14.575862     2A    -14.550736     3A    -10.500651  
       4A    -10.373169     5A    -10.356864     6A    -10.356736  
       7A    -10.342446     8A    -10.340520     9A    -10.340168  
      10A     -1.183269    11A     -1.089637    12A     -1.014151  
      13A     -0.926136    14A     -0.902413    15A     -0.844830  
      16A     -0.782886    17A     -0.773121    18A     -0.741189  
      19A     -0.730332    20A     -0.698121    21A     -0.672601  
      22A     -0.630083    23A     -0.607913    24A     -0.589061  
      25A     -0.576923    26A     -0.568327    27A     -0.515687  
      28A     -0.507220    29A     -0.498463    30A     -0.462771  
      31A     -0.408458    32A     -0.404925  

    Virtual:                                                              

      33A     -0.233106    34A     -0.155429    35A     -0.142006  
      36A     -0.109297    37A     -0.077187    38A     -0.052692  
      39A     -0.039357    40A     -0.026472    41A      0.007233  
      42A      0.018802    43A      0.029554    44A      0.060270  
      45A      0.070746    46A      0.089031    47A      0.124593  
      48A      0.146187    49A      0.156876    50A      0.167332  
      51A      0.207105    52A      0.240745    53A      0.298189  
      54A      0.351946    55A      0.357626    56A      0.380865  
      57A      0.392416    58A      0.398718    59A      0.417597  
      60A      0.422585    61A      0.439463    62A      0.449829  
      63A      0.456619    64A      0.471236    65A      0.474257  
      66A      0.476601    67A      0.487567    68A      0.505885  
      69A      0.508135    70A      0.538937    71A      0.553180  
      72A      0.586847    73A      0.613463    74A      0.652355  
      75A      0.659857    76A      0.678596    77A      0.688734  
      78A      0.704956    79A      0.715696    80A      0.725838  
      81A      0.757047    82A      0.764437    83A      0.776333  
      84A      0.791377    85A      0.812415    86A      0.833671  
      87A      0.851620    88A      0.906155    89A      0.955678  
      90A      0.964645    91A      0.982503    92A      1.016494  
      93A      1.029112    94A      1.078926    95A      1.140122  
      96A      1.154754    97A      1.260938    98A      1.276078  
      99A      1.277541   100A      1.306618   101A      1.325511  
     102A      1.341570   103A      1.354546   104A      1.365326  
     105A      1.409918   106A      1.456591   107A      1.527121  
     108A      1.611293   109A      1.639284   110A      1.668515  
     111A      1.691610   112A      1.734268   113A      1.751287  
     114A      1.801112   115A      1.809197   116A      1.831018  
     117A      1.894706   118A      1.926498   119A      1.950677  
     120A      1.979427   121A      1.994943   122A      2.006529  
     123A      2.017692   124A      2.046317   125A      2.123588  
     126A      2.126554   127A      2.153163   128A      2.196722  
     129A      2.204456   130A      2.306218   131A      2.344806  
     132A      2.407569   133A      2.446695   134A      2.452762  
     135A      2.488853   136A      2.523460   137A      2.545825  
     138A      2.590593   139A      2.600588   140A      2.628427  
     141A      2.734306   142A      2.852123   143A      2.982961  
     144A      3.258358   145A      3.624182   146A      3.667165  
     147A      3.914456   148A      3.947367   149A      3.964210  
     150A      4.044776   151A      4.173933   152A      4.252918  
     153A      4.546022  

    Final Occupation by Irrep:
              A 
    DOCC [    32 ]

  Energy converged.

  @DF-RKS Final Energy:  -381.44723083578037

   => Energetics <=

    Nuclear Repulsion Energy =            416.7909165282420645
    One-Electron Energy =               -1328.7955820613281048
    Two-Electron Energy =                 574.9774044745497577
    DFT Exchange-Correlation Energy =     -44.4080529272440430
    Empirical Dispersion Energy =          -0.0119168500000000
    VV10 Nonlocal Energy =                  0.0000000000000000
    Total Energy =                       -381.4472308357803172



Properties will be evaluated at   0.000000,   0.000000,   0.000000 [a0]

Properties computed using the SCF density matrix

  Nuclear Dipole Moment: [e a0]
     X:     0.2007      Y:    -0.0610      Z:    -0.1075

  Electronic Dipole Moment: [e a0]
     X:    -0.0672      Y:     0.1392      Z:    -2.1587

  Dipole Moment: [e a0]
     X:     0.1335      Y:     0.0783      Z:    -2.2661     Total:     2.2714

  Dipole Moment: [D]
     X:     0.3393      Y:     0.1989      Z:    -5.7599     Total:     5.7733


*** tstop() called on arancio.prib.upf.edu at Sat Sep 29 20:36:47 2018
Module time:
	user time   =      92.94 seconds =       1.55 minutes
	system time =       0.57 seconds =       0.01 minutes
	total time  =         26 seconds =       0.43 minutes
Total time:
	user time   =      92.94 seconds =       1.55 minutes
	system time =       0.57 seconds =       0.01 minutes
	total time  =         26 seconds =       0.43 minutes

*** tstart() called on arancio.prib.upf.edu
*** at Sat Sep 29 20:36:47 2018


         ------------------------------------------------------------
                                   SCF GRAD                          
                          Rob Parrish, Justin Turney,                
                       Andy Simmonett, and Alex Sokolov              
         ------------------------------------------------------------

  ==> Geometry <==

    Molecular point group: c1
    Full point group: C1

    Geometry (in Angstrom), charge = 1, multiplicity = 1:

       Center              X                  Y                   Z               Mass       
    ------------   -----------------  -----------------  -----------------  -----------------
         C            0.000000000000     0.000000000000    -0.177864000000    12.000000000000
         C            0.036678000000     1.219374000000     0.524165000000    12.000000000000
         C            0.031765000000     1.213120000000     1.915444000000    12.000000000000
         C            0.000000000000     0.000000000000     2.610107000000    12.000000000000
         C           -0.031765000000    -1.213120000000     1.915444000000    12.000000000000
         C           -0.036678000000    -1.219375000000     0.524165000000    12.000000000000
         C            0.000000000000     0.000000000000    -1.644734000000    12.000000000000
         H            0.018170000000     2.164705000000    -0.010854000000     1.007825032070
         H            0.042402000000     2.152895000000     2.457886000000     1.007825032070
         H            0.000000000000     0.000000000000     3.695756000000     1.007825032070
         H           -0.042402000000    -2.152895000000     2.457886000000     1.007825032070
         H           -0.018170000000    -2.164705000000    -0.010853000000     1.007825032070
         N           -0.712590000000    -0.905950000000    -2.308461000000    14.003074004780
         N            0.712590000000     0.905950000000    -2.308460000000    14.003074004780
         H            0.673432000000     1.006470000000    -3.315997000000     1.007825032070
         H            1.377190000000     1.485970000000    -1.813316000000     1.007825032070
         H           -1.218470000000    -0.637218000000    -3.142219000000     1.007825032070
         H           -0.725961000000    -1.887476000000    -2.057076000000     1.007825032070

  Nuclear repulsion =  416.790916528242064

  ==> Basis Set <==

  Basis Set: 6-31G*
    Blend: 6-31G*
    Number of shells: 72
    Number of basis function: 153
    Number of Cartesian functions: 153
    Spherical Harmonics?: false
    Max angular momentum: 2

  ==> DFJKGrad: Density-Fitted SCF Gradients <==

    Gradient:                    1
    J tasked:                  Yes
    K tasked:                  Yes
    wK tasked:                  No
    OpenMP threads:              4
    Integrals threads:           4
    Memory (MB):              2002
    Schwarz Cutoff:          0E+00
    Fitting Condition:       1E-12

   => Auxiliary Basis Set <=

  Basis Set: (6-31G* AUX)
    Blend: CC-PVDZ-JKFIT
    Number of shells: 297
    Number of basis function: 954
    Number of Cartesian functions: 954
    Spherical Harmonics?: false
    Max angular momentum: 3

  ==> DFT Potential <==

   => Composite Functional: B3LYP-D3ZERO <= 

    B3LYP-d3zero Hyb-GGA Exchange-Correlation Functional

    P. J. Stephens, F. J. Devlin, C. F. Chabalowski, and M. J. Frisch, J. Phys. Chem. 98, 11623 (1994)

    Deriv               =              1
    GGA                 =           TRUE
    Meta                =          FALSE

    Exchange Hybrid     =           TRUE
    MP2 Hybrid          =          FALSE

   => Exchange Functionals <=

    0.0800   Slater exchange
    0.7200         Becke 88

   => Exact (HF) Exchange <=

    0.2000               HF 

   => Correlation Functionals <=

    0.1900   Vosko, Wilk & Nusair (VWN5_RPA)
    0.8100   Lee, Yang & Parr

   => Molecular Quadrature <=

    Radial Scheme       =       TREUTLER
    Pruning Scheme      =           FLAT
    Nuclear Scheme      =       TREUTLER

    BS radius alpha     =              1
    Pruning alpha       =              1
    Radial Points       =             75
    Spherical Points    =            302
    Total Points        =         396936
    Total Blocks        =           3009
    Max Points          =            256
    Max Functions       =            149


  -Total Gradient:
     Atom            X                  Y                   Z
    ------   -----------------  -----------------  -----------------
       1       -0.010589570567     0.005254712061    -0.000485031340
       2       -0.002009017738    -0.000218532963     0.000894921497
       3        0.001147041699     0.000903474930    -0.000835146889
       4       -0.000156115464    -0.001263558171    -0.000107297418
       5       -0.000347434444     0.001290566521     0.001706376584
       6        0.000385671630    -0.001897161218    -0.002158856932
       7       -0.015713122649    -0.005039320159    -0.011393260014
       8       -0.000291232139    -0.000029643633    -0.000136746858
       9        0.000212238173    -0.000053002607     0.000083623234
      10        0.000032311501     0.000030151003     0.000043899252
      11        0.000022411346    -0.000018892841    -0.000054059974
      12        0.000783446773     0.000678040683    -0.001436996186
      13        0.011913532077     0.005886955145     0.018016940768
      14        0.009495990319    -0.003555977186    -0.003452725792
      15       -0.001331556809     0.002832761223     0.001009615022
      16        0.004091807687    -0.005127809779    -0.001211899382
      17       -0.007932257511     0.005552979604     0.008346617213
      18        0.010284024798    -0.005221119953    -0.008845979042


*** tstop() called on arancio.prib.upf.edu at Sat Sep 29 20:36:54 2018
Module time:
	user time   =      26.89 seconds =       0.45 minutes
	system time =       0.19 seconds =       0.00 minutes
	total time  =          7 seconds =       0.12 minutes
Total time:
	user time   =     119.89 seconds =       2.00 minutes
	system time =       0.77 seconds =       0.01 minutes
	total time  =         33 seconds =       0.55 minutes

			-----------------------------------------
			 OPTKING 2.0: for geometry optimizations 
			  - R.A. King,  Bethel University        
			-----------------------------------------
	At level 1: Red. Int., RFO, no backsteps, dynamic trust

	Internal coordinates to be generated automatically.
	Detected frag 1 with atoms:  1 2 3 4 5 6 7 8 9 10 11 12 13 14 15 16 17 18
	---Fragment 1 Bond Connectivity---
	 1 : 2 6 7
	 2 : 1 3 8
	 3 : 2 4 9
	 4 : 3 5 10
	 5 : 4 6 11
	 6 : 1 5 12
	 7 : 1 13 14
	 8 : 2
	 9 : 3
	 10 : 4
	 11 : 5
	 12 : 6
	 13 : 7 17 18
	 14 : 7 15 16
	 15 : 14
	 16 : 14
	 17 : 13
	 18 : 13

	Assuming in current code that numbering for constraints corresponds to unified fragment.
	Frozen dihedral atom list: 
	     1     7    13    17
	---Fragment 1 Geometry and Gradient---
	 C           0.0000000000        0.0000000000       -0.3361142489
	 C           0.0693113751        2.3042829136        0.9905282984
	 C           0.0600271506        2.2924645663        3.6196645829
	 C           0.0000000000        0.0000000000        4.9323874075
	 C          -0.0600271506       -2.2924645663        3.6196645829
	 C          -0.0693113751       -2.3042848033        0.9905282984
	 C           0.0000000000        0.0000000000       -3.1080968214
	 H           0.0343363238        4.0906996085       -0.0205110874
	 H           0.0801281675        4.0683819429        4.6447314059
	 H           0.0000000000        0.0000000000        6.9839666940
	 H          -0.0801281675       -4.0683819429        4.6447314059
	 H          -0.0343363238       -4.0906996085       -0.0205091977
	 N          -1.3465999450       -1.7119973901       -4.3623590784
	 N           1.3465999450        1.7119973901       -4.3623571887
	 H           1.2726020491        1.9019526610       -6.2663261875
	 H           2.6025119329        2.8080763417       -3.4266706324
	 H          -2.3025746011       -1.2041675069       -5.9379333595
	 H          -1.3718674732       -3.5668127224       -3.8873102745
	            -0.0105895706        0.0052547121       -0.0004850313
	            -0.0020090177       -0.0002185330        0.0008949215
	             0.0011470417        0.0009034749       -0.0008351469
	            -0.0001561155       -0.0012635582       -0.0001072974
	            -0.0003474344        0.0012905665        0.0017063766
	             0.0003856716       -0.0018971612       -0.0021588569
	            -0.0157131226       -0.0050393202       -0.0113932600
	            -0.0002912321       -0.0000296436       -0.0001367469
	             0.0002122382       -0.0000530026        0.0000836232
	             0.0000323115        0.0000301510        0.0000438993
	             0.0000224113       -0.0000188928       -0.0000540600
	             0.0007834468        0.0006780407       -0.0014369962
	             0.0119135321        0.0058869551        0.0180169408
	             0.0094959903       -0.0035559772       -0.0034527258
	            -0.0013315568        0.0028327612        0.0010096150
	             0.0040918077       -0.0051278098       -0.0012118994
	            -0.0079322575        0.0055529796        0.0083466172
	             0.0102840248       -0.0052211200       -0.0088459790

	Previous optimization step data not found.  Starting new optimization.

	---Fragment 1 Intrafragment Coordinates---
	 - Coordinate -           - BOHR/RAD -       - ANG/DEG -
	 R(1,2)           =         2.659794	       1.407502
	 R(1,6)           =         2.659796	       1.407503
	 R(1,7)           =         2.771983	       1.466870
	 R(2,3)           =         2.629179	       1.391302
	 R(2,8)           =         2.052976	       1.086388
	 R(3,4)           =         2.642393	       1.398294
	 R(3,9)           =         2.050622	       1.085142
	 R(4,5)           =         2.642393	       1.398294
	 R(4,10)          =         2.051579	       1.085649
	 R(5,6)           =         2.629179	       1.391302
	 R(5,11)          =         2.050622	       1.085142
	 R(6,12)          =         2.052973	       1.086386
	 R(7,13)          =         2.513452	       1.330061
	 R(7,14)          =         2.513451	       1.330061
	 R(13,17)         =         1.911600	       1.011575
	 R(13,18)         =         1.914850	       1.013295
	 R(14,15)         =         1.914852	       1.013296
	 R(14,16)         =         1.911600	       1.011575
	 B(1,2,3)         =         2.088380	     119.655376
	 B(1,2,8)         =         2.103396	     120.515689
	 B(1,6,5)         =         2.088379	     119.655315
	 B(1,6,12)        =         2.103396	     120.515729
	 B(1,7,13)        =         2.093264	     119.935172
	 B(1,7,14)        =         2.093263	     119.935135
	 B(2,1,6)         =         2.097220	     120.161857
	 B(2,1,7)         =         2.092983	     119.919082
	 B(2,3,4)         =         2.095279	     120.050636
	 B(2,3,9)         =         2.089719	     119.732108
	 B(3,2,8)         =         2.090149	     119.756722
	 B(3,4,5)         =         2.101793	     120.423859
	 B(3,4,10)        =         2.090696	     119.788070
	 B(4,3,9)         =         2.098135	     120.214297
	 B(4,5,6)         =         2.095280	     120.050677
	 B(4,5,11)        =         2.098135	     120.214297
	 B(5,4,10)        =         2.090696	     119.788070
	 B(5,6,12)        =         2.090149	     119.756743
	 B(6,1,7)         =         2.092982	     119.919061
	 B(6,5,11)        =         2.089719	     119.732067
	 B(7,13,17)       =         2.092411	     119.886307
	 B(7,13,18)       =         2.144860	     122.891401
	 B(7,14,15)       =         2.144860	     122.891405
	 B(7,14,16)       =         2.092412	     119.886393
	 B(13,7,14)       =         2.096659	     120.129694
	 B(15,14,16)      =         2.043399	     117.078146
	 B(17,13,18)      =         2.043401	     117.078230
	 D(1,2,3,4)       =         0.007799	       0.446825
	 D(1,2,3,9)       =        -3.122896	    -178.928735
	 D(1,6,5,4)       =         0.007799	       0.446822
	 D(1,6,5,11)      =        -3.122896	    -178.928737
	*D(1,7,13,17)     =         2.443461	     140.000009
	 D(1,7,13,18)     =        -0.776549	     -44.492980
	 D(1,7,14,15)     =        -3.032165	    -173.730230
	 D(1,7,14,16)     =         0.187844	      10.762681
	 D(2,1,6,5)       =        -0.003906	      -0.223802
	 D(2,1,6,12)      =        -3.091437	    -177.126283
	 D(2,1,7,13)      =        -2.505167	    -143.535494
	 D(2,1,7,14)      =         0.636426	      36.464506
	 D(2,3,4,5)       =        -0.003942	      -0.225875
	 D(2,3,4,10)      =         3.137650	     179.774125
	 D(3,2,1,6)       =        -0.003906	      -0.223806
	 D(3,2,1,7)       =         3.137687	     179.776196
	 D(3,4,5,6)       =        -0.003942	      -0.225874
	 D(3,4,5,11)      =         3.126699	     179.146646
	 D(4,3,2,8)       =         3.095744	     177.373058
	 D(4,5,6,12)      =         3.095744	     177.373055
	 D(5,4,3,9)       =         3.126699	     179.146646
	 D(5,6,1,7)       =         3.137687	     179.776197
	 D(6,1,2,8)       =        -3.091437	    -177.126287
	 D(6,1,7,13)      =         0.636426	      36.464508
	 D(6,1,7,14)      =        -2.505167	    -143.535492
	 D(6,5,4,10)      =         3.137650	     179.774126
	 D(7,1,2,8)       =         0.050156	       2.873714
	 D(7,1,6,12)      =         0.050156	       2.873716
	 D(8,2,3,9)       =        -0.034950	      -2.002503
	 D(9,3,4,10)      =        -0.014894	      -0.853354
	 D(10,4,5,11)     =        -0.014894	      -0.853354
	 D(11,5,6,12)     =        -0.034950	      -2.002504
	 D(13,7,14,15)    =         0.109428	       6.269770
	 D(13,7,14,16)    =        -2.953748	    -169.237319
	 D(14,7,13,17)    =        -0.698132	     -39.999991
	 D(14,7,13,18)    =         2.365044	     135.507020

	Current energy   :      -381.4472308358

	Generating empirical Hessian (Schlegel '84) for each fragment.
	Taking RFO optimization step.
	Going to follow RFO solution 1.
	Using RFO vector 1.

	Determining step-restricting scale parameter for RS-RFO.
	Maximum step size allowed    0.50000

	 Iter      |step|        alpha        rfo_root  
	------------------------------------------------
	    0     0.61573       1.00000           1
	    1     0.52659       1.61764           1
	    2     0.50198       1.85436           1
	    3     0.50001       1.87496           1
	    4     0.50000       1.87509           1
	------------------------------------------------
	Norm of target step-size    0.50000
	Projected energy change by RFO approximation:        -0.0104864309

	Back-transformation to cartesian coordinates...
	Could not converge backtransformation.
	Using first guess instead.

	Back-transformation to cartesian coordinates to adjust frozen coordinates...
	Successfully converged to displaced geometry.

	--- Internal Coordinate Step in ANG or DEG, aJ/ANG or AJ/DEG ---
	 ---------------------------------------------------------------------------
	   Coordinate                Previous        Force       Change         New 
	   ----------                --------       ------       ------       ------
	    1 R(1,2)          =      1.407502     0.001952     0.000447     1.407950
	    2 R(1,6)          =      1.407503     0.008553     0.001671     1.409174
	    3 R(1,7)          =      1.466870     0.020395     0.003461     1.470331
	    4 R(2,3)          =      1.391302     0.003663     0.001042     1.392343
	    5 R(2,8)          =      1.086388    -0.000378     0.000248     1.086636
	    6 R(3,4)          =      1.398294    -0.008603    -0.000789     1.397504
	    7 R(3,9)          =      1.085142     0.000015     0.000153     1.085295
	    8 R(4,5)          =      1.398294     0.003009     0.000509     1.398803
	    9 R(4,10)         =      1.085649    -0.000369     0.000285     1.085934
	   10 R(5,6)          =      1.391302    -0.010626    -0.001106     1.390196
	   11 R(5,11)         =      1.085142     0.000084     0.000372     1.085514
	   12 R(6,12)         =      1.086386    -0.001077     0.000267     1.086653
	   13 R(7,13)         =      1.330061     0.169894     0.018791     1.348852
	   14 R(7,14)         =      1.330061    -0.036279     0.000703     1.330763
	   15 R(13,17)        =      1.011575     0.011849     0.001837     1.013412
	   16 R(13,18)        =      1.013295    -0.022471     0.014435     1.027730
	   17 R(14,15)        =      1.013296     0.005540     0.000773     1.014069
	   18 R(14,16)        =      1.011575     0.006958     0.011114     1.022689
	   19 B(1,2,3)        =    119.655376     0.000033     0.090515   119.745891
	   20 B(1,2,8)        =    120.515689    -0.000006    -0.020592   120.495098
	   21 B(1,6,5)        =    119.655315     0.000062     0.195158   119.850473
	   22 B(1,6,12)       =    120.515729     0.000093     0.437878   120.953608
	   23 B(1,7,13)       =    119.935172     0.000632     1.703050   121.638222
	   24 B(1,7,14)       =    119.935135    -0.000393    -1.225630   118.709505
	   25 B(2,1,6)        =    120.161857    -0.000102    -0.277865   119.883992
	   26 B(2,1,7)        =    119.919082    -0.000244    -0.681148   119.237933
	   27 B(2,3,4)        =    120.050636     0.000017     0.063764   120.114400
	   28 B(2,3,9)        =    119.732108    -0.000016    -0.060330   119.671777
	   29 B(3,2,8)        =    119.756722    -0.000028    -0.096015   119.660706
	   30 B(3,4,5)        =    120.423859    -0.000019    -0.084459   120.339400
	   31 B(3,4,10)       =    119.788070     0.000012     0.060342   119.848412
	   32 B(4,3,9)        =    120.214297    -0.000001    -0.001626   120.212671
	   33 B(4,5,6)        =    120.050677     0.000009     0.003458   120.054136
	   34 B(4,5,11)       =    120.214297    -0.000008    -0.026503   120.187794
	   35 B(5,4,10)       =    119.788070     0.000007     0.023938   119.812008
	   36 B(5,6,12)       =    119.756743    -0.000154    -0.609784   119.146959
	   37 B(6,1,7)        =    119.919061     0.000346     0.957369   120.876431
	   38 B(6,5,11)       =    119.732067    -0.000000     0.025802   119.757868
	   39 B(7,13,17)      =    119.886307     0.000405     1.828980   121.715287
	   40 B(7,13,18)      =    122.891401    -0.000265    -1.559425   121.331976
	   41 B(7,14,15)      =    122.891405    -0.000135    -0.586764   122.304641
	   42 B(7,14,16)      =    119.886393     0.000098     0.790709   120.677101
	   43 B(13,7,14)      =    120.129694    -0.000239    -0.858443   119.271251
	   44 B(15,14,16)     =    117.078146     0.000052    -0.061457   117.016689
	   45 B(17,13,18)     =    117.078230    -0.000096    -0.457244   116.620986
	   46 D(1,2,3,4)      =      0.446825     0.000009     0.726286     1.173111
	   47 D(1,2,3,9)      =   -178.928735     0.000006     0.491334  -178.437401
	   48 D(1,6,5,4)      =      0.446822     0.000004     0.340555     0.787377
	   49 D(1,6,5,11)     =   -178.928737    -0.000002    -0.120609  -179.049346
	   50 *D(1,7,13,17)   =    140.000009    -0.000000    -0.000000   140.000009
	   51 D(1,7,13,18)    =    -44.492980     0.000157    11.331120   -33.161860
	   52 D(1,7,14,15)    =   -173.730230     0.000002     0.353413  -173.376817
	   53 D(1,7,14,16)    =     10.762681    -0.000052    -3.670142     7.092539
	   54 D(2,1,6,5)      =     -0.223802     0.000001     0.040846    -0.182955
	   55 D(2,1,6,12)     =   -177.126283    -0.000005    -0.490101  -177.616383
	   56 D(2,1,7,13)     =   -143.535494     0.000021     1.232454  -142.303040
	   57 D(2,1,7,14)     =     36.464506    -0.000066    -5.907335    30.557171
	   58 D(2,3,4,5)      =     -0.225875    -0.000004    -0.347114    -0.572990
	   59 D(2,3,4,10)     =    179.774125    -0.000002    -0.192473   179.581651
	   60 D(3,2,1,6)      =     -0.223806    -0.000007    -0.574283    -0.798089
	   61 D(3,2,1,7)      =    179.776196    -0.000012    -1.036581   178.739615
	   62 D(3,4,5,6)      =     -0.225874    -0.000002    -0.190434    -0.416309
	   63 D(3,4,5,11)     =    179.146646     0.000004     0.273060   179.419707
	   64 D(4,3,2,8)      =    177.373058     0.000003     0.213525   177.586582
	   65 D(4,5,6,12)     =    177.373055     0.000012     0.894180   178.267235
	   66 D(5,4,3,9)      =    179.146646    -0.000001    -0.111248   179.035399
	   67 D(5,6,1,7)      =    179.776197     0.000006     0.510859   180.287056
	   68 D(6,1,2,8)      =   -177.126287    -0.000001    -0.054855  -177.181142
	   69 D(6,1,7,13)     =     36.464508     0.000016     0.765438    37.229946
	   70 D(6,1,7,14)     =   -143.535492    -0.000071    -6.374351  -149.909843
	   71 D(6,5,4,10)     =    179.774126    -0.000004    -0.345019   179.429107
	   72 D(7,1,2,8)      =      2.873714    -0.000006    -0.517152     2.356562
	   73 D(7,1,6,12)     =      2.873716    -0.000000    -0.020088     2.853627
	   74 D(8,2,3,9)      =     -2.002503    -0.000000    -0.021427    -2.023930
	   75 D(9,3,4,10)     =     -0.853354     0.000001     0.043393    -0.809960
	   76 D(10,4,5,11)    =     -0.853354     0.000002     0.118476    -0.734878
	   77 D(11,5,6,12)    =     -2.002504     0.000006     0.433016    -1.569488
	   78 D(13,7,14,15)   =      6.269770    -0.000085    -6.614145    -0.344374
	   79 D(13,7,14,16)   =   -169.237319    -0.000139   -10.637699  -179.875018
	   80 D(14,7,13,17)   =    -39.999991     0.000087     7.178886   -32.821105
	   81 D(14,7,13,18)   =    135.507020     0.000244    18.510006   154.017025
	 ---------------------------------------------------------------------------
	Successfully symmetrized geometry.

  ==> Convergence Check <==

  Measures of convergence in internal coordinates in au.
  Criteria marked as inactive (o), active & met (*), and active & unmet ( ).
  --------------------------------------------------------------------------------------------- ~
   Step     Total Energy     Delta E     MAX Force     RMS Force      MAX Disp      RMS Disp    ~
  --------------------------------------------------------------------------------------------- ~
    Convergence Criteria    1.00e-06 *    3.00e-04 *             o    1.20e-03 *             o  ~
  --------------------------------------------------------------------------------------------- ~
      1    -381.44723084   -3.81e+02      2.06e-02      3.67e-03 o    3.23e-01      5.48e-02 o  ~
  ---------------------------------------------------------------------------------------------

	Writing optimization data to binary file.
	Structure for next step:
	Cartesian Geometry (in Angstrom)
	    C     0.0427586170  -0.0384948257  -0.1813084334
	    C     0.0859117106   1.1901463023   0.5049137353
	    C     0.0491906285   1.2057372159   1.8966855605
	    C    -0.0054732472   0.0053185725   2.6101459783
	    C    -0.0357564872  -1.2183062952   1.9330381881
	    C    -0.0202777600  -1.2455129768   0.5431949638
	    C     0.0540011940  -0.0406775851  -1.6515953087
	    H     0.0885917399   2.1282476101  -0.0434810689
	    H     0.0568312257   2.1544340059   2.4237345742
	    H    -0.0270902119   0.0223004286   3.6957320617
	    H    -0.0687130804  -2.1495701032   2.4898170994
	    H    -0.0155420094  -2.2047424627   0.0326348163
	    N    -0.6780466296  -0.9220222734  -2.3634516905
	    N     0.6914011249   0.9392905162  -2.2874531644
	    H     0.6519700863   1.0471196148  -3.2950014613
	    H     1.2539522122   1.6181832273  -1.7692498701
	    H    -1.1651821885  -0.6495608042  -3.2093048083
	    H    -0.8523359248  -1.8741451672  -2.0180321721
			--------------------------
			 OPTKING Finished Execution 
			--------------------------

    Structure for next step:
    Molecular point group: c1
    Full point group: C1

    Geometry (in Angstrom), charge = 1, multiplicity = 1:

    C            0.042758617000    -0.038494825685    -0.181308433389
    C            0.085911710611     1.190146302268     0.504913735252
    C            0.049190628463     1.205737215886     1.896685560536
    C           -0.005473247241     0.005318572466     2.610145978267
    C           -0.035756487240    -1.218306295222     1.933038188100
    C           -0.020277759977    -1.245512976790     0.543194963766
    C            0.054001194011    -0.040677585115    -1.651595308684
    H            0.088591739875     2.128247610150    -0.043481068874
    H            0.056831225663     2.154434005855     2.423734574222
    H           -0.027090211886     0.022300428585     3.695732061741
    H           -0.068713080361    -2.149570103187     2.489817099426
    H           -0.015542009394    -2.204742462722     0.032634816258
    N           -0.678046629602    -0.922022273393    -2.363451690468
    N            0.691401124925     0.939290516182    -2.287453164364
    H            0.651970086305     1.047119614778    -3.295001461281
    H            1.253952212151     1.618183227342    -1.769249870144
    H           -1.165182188458    -0.649560804230    -3.209304808280
    H           -0.852335924844    -1.874145167167    -2.018032172083

gradient() will perform analytic gradient computation.

*** tstart() called on arancio.prib.upf.edu
*** at Sat Sep 29 20:36:55 2018

   => Loading Basis Set <=

    Name: 6-31G*
    Role: ORBITAL
    Keyword: BASIS
    atoms 1-7         entry C          line   111 file /shared/joao/test_parameterize/miniconda3/share/psi4/basis/6-31gs.gbs 
    atoms 8-12, 15-18 entry H          line    44 file /shared/joao/test_parameterize/miniconda3/share/psi4/basis/6-31gs.gbs 
    atoms 13-14       entry N          line   128 file /shared/joao/test_parameterize/miniconda3/share/psi4/basis/6-31gs.gbs 


         ---------------------------------------------------------
                                   SCF
            by Justin Turney, Rob Parrish, Andy Simmonett
                             and Daniel Smith
                              RKS Reference
                        4 Threads,   2861 MiB Core
         ---------------------------------------------------------

  ==> Geometry <==

    Molecular point group: c1
    Full point group: C1

    Geometry (in Angstrom), charge = 1, multiplicity = 1:

       Center              X                  Y                   Z               Mass       
    ------------   -----------------  -----------------  -----------------  -----------------
         C            0.042758617000    -0.038494825685    -0.181308433389    12.000000000000
         C            0.085911710611     1.190146302268     0.504913735252    12.000000000000
         C            0.049190628463     1.205737215886     1.896685560536    12.000000000000
         C           -0.005473247241     0.005318572466     2.610145978267    12.000000000000
         C           -0.035756487240    -1.218306295222     1.933038188100    12.000000000000
         C           -0.020277759977    -1.245512976790     0.543194963766    12.000000000000
         C            0.054001194011    -0.040677585115    -1.651595308684    12.000000000000
         H            0.088591739875     2.128247610150    -0.043481068874     1.007825032070
         H            0.056831225663     2.154434005855     2.423734574222     1.007825032070
         H           -0.027090211886     0.022300428585     3.695732061741     1.007825032070
         H           -0.068713080361    -2.149570103187     2.489817099426     1.007825032070
         H           -0.015542009394    -2.204742462722     0.032634816258     1.007825032070
         N           -0.678046629602    -0.922022273393    -2.363451690468    14.003074004780
         N            0.691401124925     0.939290516182    -2.287453164364    14.003074004780
         H            0.651970086305     1.047119614778    -3.295001461281     1.007825032070
         H            1.253952212151     1.618183227342    -1.769249870144     1.007825032070
         H           -1.165182188458    -0.649560804230    -3.209304808280     1.007825032070
         H           -0.852335924844    -1.874145167167    -2.018032172083     1.007825032070

  Running in c1 symmetry.

  Rotational constants: A =      0.12117  B =      0.03950  C =      0.03102 [cm^-1]
  Rotational constants: A =   3632.45286  B =   1184.23359  C =    930.07144 [MHz]
  Nuclear repulsion =  415.945470461901664

  Charge       = 1
  Multiplicity = 1
  Electrons    = 64
  Nalpha       = 32
  Nbeta        = 32

  ==> Algorithm <==

  SCF Algorithm Type is DF.
  DIIS enabled.
  MOM disabled.
  Fractional occupation disabled.
  Guess Type is READ.
  Energy threshold   = 1.00e-08
  Density threshold  = 1.00e-08
  Integral threshold = 0.00e+00

  ==> Primary Basis <==

  Basis Set: 6-31G*
    Blend: 6-31G*
    Number of shells: 72
    Number of basis function: 153
    Number of Cartesian functions: 153
    Spherical Harmonics?: false
    Max angular momentum: 2

  ==> DFT Potential <==

   => Composite Functional: B3LYP-D3ZERO <= 

    B3LYP-d3zero Hyb-GGA Exchange-Correlation Functional

    P. J. Stephens, F. J. Devlin, C. F. Chabalowski, and M. J. Frisch, J. Phys. Chem. 98, 11623 (1994)

    Deriv               =              1
    GGA                 =           TRUE
    Meta                =          FALSE

    Exchange Hybrid     =           TRUE
    MP2 Hybrid          =          FALSE

   => Exchange Functionals <=

    0.0800   Slater exchange
    0.7200         Becke 88

   => Exact (HF) Exchange <=

    0.2000               HF 

   => Correlation Functionals <=

    0.1900   Vosko, Wilk & Nusair (VWN5_RPA)
    0.8100   Lee, Yang & Parr

   => Molecular Quadrature <=

    Radial Scheme       =       TREUTLER
    Pruning Scheme      =           FLAT
    Nuclear Scheme      =       TREUTLER

    BS radius alpha     =              1
    Pruning alpha       =              1
    Radial Points       =             75
    Spherical Points    =            302
    Total Points        =         396875
    Total Blocks        =           3013
    Max Points          =            256
    Max Functions       =            149

   => -D3ZERO: Empirical Dispersion <=

    Grimme's -D3 (zero-damping) Dispersion Correction
    Grimme S.; Antony J.; Ehrlich S.; Krieg H. (2010), J. Chem. Phys., 132: 154104

        S6 =   1.000000E+00
        S8 =   1.703000E+00
       SR6 =   1.261000E+00
       SR8 =   1.000000E+00
    ALPHA6 =   1.400000E+01

   => Loading Basis Set <=

    Name: (6-31G* AUX)
    Role: JKFIT
    Keyword: DF_BASIS_SCF
    atoms 1-7         entry C          line   121 file /shared/joao/test_parameterize/miniconda3/share/psi4/basis/cc-pvdz-jkfit.gbs 
    atoms 8-12, 15-18 entry H          line    51 file /shared/joao/test_parameterize/miniconda3/share/psi4/basis/cc-pvdz-jkfit.gbs 
    atoms 13-14       entry N          line   171 file /shared/joao/test_parameterize/miniconda3/share/psi4/basis/cc-pvdz-jkfit.gbs 

  Reading orbitals from file 180, no projection.

  ==> Pre-Iterations <==

   -------------------------------------------------------
    Irrep   Nso     Nmo     Nalpha   Nbeta   Ndocc  Nsocc
   -------------------------------------------------------
     A        153     153       0       0       0       0
   -------------------------------------------------------
    Total     153     153      32      32      32       0
   -------------------------------------------------------

  ==> Integral Setup <==

  ==> DiskDFJK: Density-Fitted J/K Matrices <==

    J tasked:                  Yes
    K tasked:                  Yes
    wK tasked:                  No
    OpenMP threads:              4
    Integrals threads:           4
    Memory (MB):              2002
    Algorithm:                Core
    Integral Cache:           NONE
    Schwarz Cutoff:          1E-12
    Fitting Condition:       1E-12

   => Auxiliary Basis Set <=

  Basis Set: (6-31G* AUX)
    Blend: CC-PVDZ-JKFIT
    Number of shells: 297
    Number of basis function: 954
    Number of Cartesian functions: 954
    Spherical Harmonics?: false
    Max angular momentum: 3

  Minimum eigenvalue in the overlap matrix is 4.8572896479E-04.
  Using Symmetric Orthogonalization.

  SCF Guess: Orbitals guess was supplied from a previous computation.

  ==> Iterations <==

                           Total Energy        Delta E     RMS |[F,P]|

   @DF-RKS iter   0:  -381.41511944114080   -3.81415e+02   2.23638e-03 
   @DF-RKS iter   1:  -381.45468822344264   -3.95688e-02   3.35592e-04 
   @DF-RKS iter   2:  -381.45436195538019    3.26268e-04   4.91900e-04 DIIS
   @DF-RKS iter   3:  -381.45508133563396   -7.19380e-04   9.30784e-05 DIIS
   @DF-RKS iter   4:  -381.45510260029539   -2.12647e-05   3.92194e-05 DIIS
   @DF-RKS iter   5:  -381.45510685237360   -4.25208e-06   1.19577e-05 DIIS
   @DF-RKS iter   6:  -381.45510725723449   -4.04861e-07   4.86937e-06 DIIS
   @DF-RKS iter   7:  -381.45510731845496   -6.12205e-08   1.14178e-06 DIIS
   @DF-RKS iter   8:  -381.45510732213427   -3.67930e-09   3.21970e-07 DIIS
   @DF-RKS iter   9:  -381.45510732238517   -2.50907e-10   1.03855e-07 DIIS
   @DF-RKS iter  10:  -381.45510732241422   -2.90470e-11   4.20196e-08 DIIS
   @DF-RKS iter  11:  -381.45510732241928   -5.05906e-12   1.54587e-08 DIIS
   @DF-RKS iter  12:  -381.45510732242013   -8.52651e-13   3.10629e-09 DIIS

  ==> Post-Iterations <==

    Orbital Energies [Eh]
    ---------------------

    Doubly Occupied:                                                      

       1A    -14.574352     2A    -14.558854     3A    -10.501720  
       4A    -10.375622     5A    -10.358374     6A    -10.357327  
       7A    -10.342958     8A    -10.341259     9A    -10.340900  
      10A     -1.179196    11A     -1.085738    12A     -1.014610  
      13A     -0.926331    14A     -0.903163    15A     -0.844398  
      16A     -0.781672    17A     -0.773086    18A     -0.737868  
      19A     -0.732269    20A     -0.689169    21A     -0.670728  
      22A     -0.630697    23A     -0.609523    24A     -0.589689  
      25A     -0.577759    26A     -0.572628    27A     -0.515827  
      28A     -0.508289    29A     -0.499224    30A     -0.466034  
      31A     -0.409299    32A     -0.405847  

    Virtual:                                                              

      33A     -0.228046    34A     -0.156573    35A     -0.139580  
      36A     -0.111742    37A     -0.077364    38A     -0.060417  
      39A     -0.038760    40A     -0.031199    41A      0.007333  
      42A      0.021155    43A      0.026515    44A      0.061990  
      45A      0.066887    46A      0.083214    47A      0.120894  
      48A      0.139949    49A      0.155992    50A      0.169693  
      51A      0.207449    52A      0.234910    53A      0.298875  
      54A      0.351490    55A      0.355487    56A      0.378855  
      57A      0.389657    58A      0.398177    59A      0.418020  
      60A      0.421312    61A      0.439208    62A      0.450111  
      63A      0.457185    64A      0.470404    65A      0.471787  
      66A      0.473717    67A      0.485922    68A      0.499758  
      69A      0.507558    70A      0.548008    71A      0.551237  
      72A      0.587206    73A      0.610820    74A      0.647667  
      75A      0.656364    76A      0.675450    77A      0.690691  
      78A      0.704362    79A      0.714488    80A      0.723650  
      81A      0.756630    82A      0.768612    83A      0.775331  
      84A      0.799897    85A      0.817680    86A      0.839042  
      87A      0.850057    88A      0.919407    89A      0.961248  
      90A      0.977066    91A      0.988018    92A      1.025092  
      93A      1.031209    94A      1.078264    95A      1.133466  
      96A      1.153270    97A      1.252601    98A      1.274882  
      99A      1.280537   100A      1.308816   101A      1.322074  
     102A      1.334383   103A      1.345382   104A      1.360778  
     105A      1.406637   106A      1.451413   107A      1.539913  
     108A      1.594411   109A      1.623282   110A      1.653556  
     111A      1.689338   112A      1.735853   113A      1.746094  
     114A      1.800925   115A      1.812322   116A      1.831369  
     117A      1.891282   118A      1.923192   119A      1.937594  
     120A      1.977449   121A      1.991229   122A      2.003702  
     123A      2.020066   124A      2.050017   125A      2.118133  
     126A      2.122392   127A      2.151760   128A      2.189132  
     129A      2.200246   130A      2.301287   131A      2.317532  
     132A      2.381287   133A      2.443414   134A      2.451437  
     135A      2.485892   136A      2.518654   137A      2.538687  
     138A      2.589573   139A      2.602430   140A      2.624522  
     141A      2.731796   142A      2.850924   143A      2.978980  
     144A      3.255915   145A      3.624620   146A      3.652721  
     147A      3.911990   148A      3.946841   149A      3.962528  
     150A      4.045695   151A      4.172016   152A      4.252492  
     153A      4.543769  

    Final Occupation by Irrep:
              A 
    DOCC [    32 ]

  Energy converged.

  @DF-RKS Final Energy:  -381.45510732242013

   => Energetics <=

    Nuclear Repulsion Energy =            415.9454704619016638
    One-Electron Energy =               -1327.1184218801308816
    Two-Electron Energy =                 574.1155135138784544
    DFT Exchange-Correlation Energy =     -44.3858713880692619
    Empirical Dispersion Energy =          -0.0117980300000000
    VV10 Nonlocal Energy =                  0.0000000000000000
    Total Energy =                       -381.4551073224200763



Properties will be evaluated at   0.000000,   0.000000,   0.000000 [a0]

Properties computed using the SCF density matrix

  Nuclear Dipole Moment: [e a0]
     X:     1.9617      Y:    -1.2049      Z:    -0.6029

  Electronic Dipole Moment: [e a0]
     X:    -1.9788      Y:     1.3150      Z:    -1.6137

  Dipole Moment: [e a0]
     X:    -0.0171      Y:     0.1101      Z:    -2.2166     Total:     2.2194

  Dipole Moment: [D]
     X:    -0.0434      Y:     0.2800      Z:    -5.6339     Total:     5.6411


*** tstop() called on arancio.prib.upf.edu at Sat Sep 29 20:37:16 2018
Module time:
	user time   =      76.38 seconds =       1.27 minutes
	system time =       0.35 seconds =       0.01 minutes
	total time  =         21 seconds =       0.35 minutes
Total time:
	user time   =     197.39 seconds =       3.29 minutes
	system time =       1.17 seconds =       0.02 minutes
	total time  =         55 seconds =       0.92 minutes

*** tstart() called on arancio.prib.upf.edu
*** at Sat Sep 29 20:37:16 2018


         ------------------------------------------------------------
                                   SCF GRAD                          
                          Rob Parrish, Justin Turney,                
                       Andy Simmonett, and Alex Sokolov              
         ------------------------------------------------------------

  ==> Geometry <==

    Molecular point group: c1
    Full point group: C1

    Geometry (in Angstrom), charge = 1, multiplicity = 1:

       Center              X                  Y                   Z               Mass       
    ------------   -----------------  -----------------  -----------------  -----------------
         C            0.042758617000    -0.038494825685    -0.181308433389    12.000000000000
         C            0.085911710611     1.190146302268     0.504913735252    12.000000000000
         C            0.049190628463     1.205737215886     1.896685560536    12.000000000000
         C           -0.005473247241     0.005318572466     2.610145978267    12.000000000000
         C           -0.035756487240    -1.218306295222     1.933038188100    12.000000000000
         C           -0.020277759977    -1.245512976790     0.543194963766    12.000000000000
         C            0.054001194011    -0.040677585115    -1.651595308684    12.000000000000
         H            0.088591739875     2.128247610150    -0.043481068874     1.007825032070
         H            0.056831225663     2.154434005855     2.423734574222     1.007825032070
         H           -0.027090211886     0.022300428585     3.695732061741     1.007825032070
         H           -0.068713080361    -2.149570103187     2.489817099426     1.007825032070
         H           -0.015542009394    -2.204742462722     0.032634816258     1.007825032070
         N           -0.678046629602    -0.922022273393    -2.363451690468    14.003074004780
         N            0.691401124925     0.939290516182    -2.287453164364    14.003074004780
         H            0.651970086305     1.047119614778    -3.295001461281     1.007825032070
         H            1.253952212151     1.618183227342    -1.769249870144     1.007825032070
         H           -1.165182188458    -0.649560804230    -3.209304808280     1.007825032070
         H           -0.852335924844    -1.874145167167    -2.018032172083     1.007825032070

  Nuclear repulsion =  415.945470461901664

  ==> Basis Set <==

  Basis Set: 6-31G*
    Blend: 6-31G*
    Number of shells: 72
    Number of basis function: 153
    Number of Cartesian functions: 153
    Spherical Harmonics?: false
    Max angular momentum: 2

  ==> DFJKGrad: Density-Fitted SCF Gradients <==

    Gradient:                    1
    J tasked:                  Yes
    K tasked:                  Yes
    wK tasked:                  No
    OpenMP threads:              4
    Integrals threads:           4
    Memory (MB):              2002
    Schwarz Cutoff:          0E+00
    Fitting Condition:       1E-12

   => Auxiliary Basis Set <=

  Basis Set: (6-31G* AUX)
    Blend: CC-PVDZ-JKFIT
    Number of shells: 297
    Number of basis function: 954
    Number of Cartesian functions: 954
    Spherical Harmonics?: false
    Max angular momentum: 3

  ==> DFT Potential <==

   => Composite Functional: B3LYP-D3ZERO <= 

    B3LYP-d3zero Hyb-GGA Exchange-Correlation Functional

    P. J. Stephens, F. J. Devlin, C. F. Chabalowski, and M. J. Frisch, J. Phys. Chem. 98, 11623 (1994)

    Deriv               =              1
    GGA                 =           TRUE
    Meta                =          FALSE

    Exchange Hybrid     =           TRUE
    MP2 Hybrid          =          FALSE

   => Exchange Functionals <=

    0.0800   Slater exchange
    0.7200         Becke 88

   => Exact (HF) Exchange <=

    0.2000               HF 

   => Correlation Functionals <=

    0.1900   Vosko, Wilk & Nusair (VWN5_RPA)
    0.8100   Lee, Yang & Parr

   => Molecular Quadrature <=

    Radial Scheme       =       TREUTLER
    Pruning Scheme      =           FLAT
    Nuclear Scheme      =       TREUTLER

    BS radius alpha     =              1
    Pruning alpha       =              1
    Radial Points       =             75
    Spherical Points    =            302
    Total Points        =         396875
    Total Blocks        =           3013
    Max Points          =            256
    Max Functions       =            149


  -Total Gradient:
     Atom            X                  Y                   Z
    ------   -----------------  -----------------  -----------------
       1       -0.008902870293     0.009725628519    -0.000838370541
       2       -0.000521488749     0.000590351268    -0.000362358913
       3        0.000148000091     0.000154705597     0.000294583437
       4       -0.000067560485    -0.000167017169    -0.000107991947
       5        0.000241162523     0.000127579540    -0.000106506722
       6        0.000388060251    -0.001727895541     0.000805276367
       7        0.008559605092    -0.006892875740     0.002517722211
       8        0.000467469525    -0.000224299290    -0.001518841698
       9        0.000073300750     0.000017497238     0.000177321710
      10       -0.000010290040    -0.000036918893     0.000263568310
      11       -0.000052985020    -0.000223529728     0.000178200636
      12        0.000094909970     0.000042558301     0.000139720622
      13       -0.004262170510     0.009329251948    -0.006505827757
      14        0.001923696224    -0.003903468660    -0.003178887401
      15       -0.001317253616     0.001176313682    -0.000023311048
      16        0.006390530648     0.005819925721     0.004625733050
      17       -0.008589422058     0.003302661028     0.004885685423
      18        0.005442463458    -0.017106627088    -0.001254148491


*** tstop() called on arancio.prib.upf.edu at Sat Sep 29 20:37:23 2018
Module time:
	user time   =      28.29 seconds =       0.47 minutes
	system time =       0.19 seconds =       0.00 minutes
	total time  =          7 seconds =       0.12 minutes
Total time:
	user time   =     225.68 seconds =       3.76 minutes
	system time =       1.36 seconds =       0.02 minutes
	total time  =         62 seconds =       1.03 minutes

			-----------------------------------------
			 OPTKING 2.0: for geometry optimizations 
			  - R.A. King,  Bethel University        
			-----------------------------------------
	At level 1: Red. Int., RFO, no backsteps, dynamic trust

	Previous internal coordinate definitions found.
	---Fragment 1 Geometry and Gradient---
	 C           0.0808020760       -0.0727446781       -0.3426232847
	 C           0.1623496047        2.2490505694        0.9541486804
	 C           0.0929568161        2.2785131263        3.5842162696
	 C          -0.0103429383        0.0100506454        4.9324610658
	 C          -0.0675699684       -2.3022652439        3.6529127799
	 C          -0.0383194129       -2.3536784211        1.0264897183
	 C           0.1020474675       -0.0768694956       -3.1210628158
	 H           0.1674141260        4.0218051262       -0.0821673121
	 H           0.1073954523        4.0712902424        4.5801945641
	 H          -0.0511930813        0.0421417027        6.9839214572
	 H          -0.1298489036       -4.0620987985        4.7050724389
	 H          -0.0293701413       -4.1663594481        0.0616708651
	 N          -1.2813224353       -1.7423695851       -4.4662764233
	 N           1.3065587741        1.7750018348       -4.3226600225
	 H           1.2320449100        1.9787693003       -6.2266503693
	 H           2.3696262647        3.0579231325       -3.3433977152
	 H          -2.2018752311       -1.2274920267       -6.0647071646
	 H          -1.6106814712       -3.5416210992       -3.8135281326
	            -0.0089028703        0.0097256285       -0.0008383705
	            -0.0005214887        0.0005903513       -0.0003623589
	             0.0001480001        0.0001547056        0.0002945834
	            -0.0000675605       -0.0001670172       -0.0001079919
	             0.0002411625        0.0001275795       -0.0001065067
	             0.0003880603       -0.0017278955        0.0008052764
	             0.0085596051       -0.0068928757        0.0025177222
	             0.0004674695       -0.0002242993       -0.0015188417
	             0.0000733007        0.0000174972        0.0001773217
	            -0.0000102900       -0.0000369189        0.0002635683
	            -0.0000529850       -0.0002235297        0.0001782006
	             0.0000949100        0.0000425583        0.0001397206
	            -0.0042621705        0.0093292519       -0.0065058278
	             0.0019236962       -0.0039034687       -0.0031788874
	            -0.0013172536        0.0011763137       -0.0000233110
	             0.0063905306        0.0058199257        0.0046257331
	            -0.0085894221        0.0033026610        0.0048856854
	             0.0054424635       -0.0171066271       -0.0012541485

	---Fragment 1 Intrafragment Coordinates---
	 - Coordinate -           - BOHR/RAD -       - ANG/DEG -
	 R(1,2)           =         2.660639	       1.407950
	 R(1,6)           =         2.662953	       1.409174
	 R(1,7)           =         2.778524	       1.470331
	 R(2,3)           =         2.631148	       1.392343
	 R(2,8)           =         2.053445	       1.086636
	 R(3,4)           =         2.640901	       1.397504
	 R(3,9)           =         2.050910	       1.085295
	 R(4,5)           =         2.643355	       1.398803
	 R(4,10)          =         2.052118	       1.085934
	 R(5,6)           =         2.627089	       1.390196
	 R(5,11)          =         2.051325	       1.085514
	 R(6,12)          =         2.053477	       1.086653
	 R(7,13)          =         2.548961	       1.348852
	 R(7,14)          =         2.514778	       1.330763
	 R(13,17)         =         1.915071	       1.013412
	 R(13,18)         =         1.942129	       1.027730
	 R(14,15)         =         1.916312	       1.014069
	 R(14,16)         =         1.932603	       1.022689
	 B(1,2,3)         =         2.089960	     119.745891
	 B(1,2,8)         =         2.103036	     120.495098
	 B(1,6,5)         =         2.091785	     119.850473
	 B(1,6,12)        =         2.111039	     120.953608
	 B(1,7,13)        =         2.122987	     121.638222
	 B(1,7,14)        =         2.071872	     118.709505
	 B(2,1,6)         =         2.092370	     119.883992
	 B(2,1,7)         =         2.081095	     119.237933
	 B(2,3,4)         =         2.096392	     120.114400
	 B(2,3,9)         =         2.088667	     119.671777
	 B(3,2,8)         =         2.088473	     119.660706
	 B(3,4,5)         =         2.100319	     120.339400
	 B(3,4,10)        =         2.091749	     119.848412
	 B(4,3,9)         =         2.098107	     120.212671
	 B(4,5,6)         =         2.095340	     120.054136
	 B(4,5,11)        =         2.097673	     120.187794
	 B(5,4,10)        =         2.091114	     119.812008
	 B(5,6,12)        =         2.079507	     119.146959
	 B(6,1,7)         =         2.109692	     120.876431
	 B(6,5,11)        =         2.090169	     119.757868
	 B(7,13,17)       =         2.124333	     121.715287
	 B(7,13,18)       =         2.117642	     121.331976
	 B(7,14,15)       =         2.134619	     122.304641
	 B(7,14,16)       =         2.106213	     120.677101
	 B(13,7,14)       =         2.081676	     119.271251
	 B(15,14,16)      =         2.042326	     117.016689
	 B(17,13,18)      =         2.035420	     116.620986
	 D(1,2,3,4)       =         0.020475	       1.173111
	 D(1,2,3,9)       =        -3.114320	    -178.437401
	 D(1,6,5,4)       =         0.013742	       0.787377
	 D(1,6,5,11)      =        -3.125001	    -179.049346
	*D(1,7,13,17)     =         2.443461	     140.000009
	 D(1,7,13,18)     =        -0.578784	     -33.161860
	 D(1,7,14,15)     =        -3.025996	    -173.376817
	 D(1,7,14,16)     =         0.123788	       7.092539
	 D(2,1,6,5)       =        -0.003193	      -0.182955
	 D(2,1,6,12)      =        -3.099991	    -177.616383
	 D(2,1,7,13)      =        -2.483657	    -142.303040
	 D(2,1,7,14)      =         0.533323	      30.557171
	 D(2,3,4,5)       =        -0.010001	      -0.572990
	 D(2,3,4,10)      =         3.134291	     179.581651
	 D(3,2,1,6)       =        -0.013929	      -0.798089
	 D(3,2,1,7)       =         3.119595	     178.739615
	 D(3,4,5,6)       =        -0.007266	      -0.416309
	 D(3,4,5,11)      =         3.131465	     179.419707
	 D(4,3,2,8)       =         3.099471	     177.586582
	 D(4,5,6,12)      =         3.111350	     178.267235
	 D(5,4,3,9)       =         3.124757	     179.035399
	 D(5,6,1,7)       =        -3.136583	    -179.712944
	 D(6,1,2,8)       =        -3.092394	    -177.181142
	 D(6,1,7,13)      =         0.649785	      37.229946
	 D(6,1,7,14)      =        -2.616420	    -149.909843
	 D(6,5,4,10)      =         3.131629	     179.429107
	 D(7,1,2,8)       =         0.041130	       2.356562
	 D(7,1,6,12)      =         0.049805	       2.853627
	 D(8,2,3,9)       =        -0.035324	      -2.023930
	 D(9,3,4,10)      =        -0.014136	      -0.809960
	 D(10,4,5,11)     =        -0.012826	      -0.734878
	 D(11,5,6,12)     =        -0.027393	      -1.569488
	 D(13,7,14,15)    =        -0.006010	      -0.344374
	 D(13,7,14,16)    =        -3.139411	    -179.875018
	 D(14,7,13,17)    =        -0.572836	     -32.821105
	 D(14,7,13,18)    =         2.688104	     154.017025

	Current energy   :      -381.4551073224

	Energy change for the previous step:
		Projected    :        -0.0104864309
		Actual       :        -0.0078764866
	Energy ratio indicates good step: Trust radius increased to 1.000e+00.


	Performing BFGS update.
	Previous computed or guess Hessian on step 1.
	Steps to be used in Hessian update: 1
	Taking RFO optimization step.
	Going to follow RFO solution 1.
	Using RFO vector 1.
	Norm of target step-size    0.58706
	Projected energy change by RFO approximation:        -0.0095516357

	Back-transformation to cartesian coordinates...
	Could not converge backtransformation.
	Using first guess instead.

	Back-transformation to cartesian coordinates to adjust frozen coordinates...
	Successfully converged to displaced geometry.

	--- Internal Coordinate Step in ANG or DEG, aJ/ANG or AJ/DEG ---
	 ---------------------------------------------------------------------------
	   Coordinate                Previous        Force       Change         New 
	   ----------                --------       ------       ------       ------
	    1 R(1,2)          =      1.407950     0.006062     0.001668     1.409617
	    2 R(1,6)          =      1.409174    -0.013615    -0.001631     1.407543
	    3 R(1,7)          =      1.470331     0.008203     0.003181     1.473512
	    4 R(2,3)          =      1.392343    -0.004719     0.000052     1.392395
	    5 R(2,8)          =      1.086636    -0.004727    -0.000511     1.086125
	    6 R(3,4)          =      1.397504    -0.005163    -0.001031     1.396473
	    7 R(3,9)          =      1.085295    -0.000841     0.000254     1.085548
	    8 R(4,5)          =      1.398803    -0.003476    -0.000099     1.398704
	    9 R(4,10)         =      1.085934    -0.002172    -0.000092     1.085842
	   10 R(5,6)          =      1.390196    -0.001019    -0.000350     1.389846
	   11 R(5,11)         =      1.085514    -0.002348    -0.000225     1.085290
	   12 R(6,12)         =      1.086653     0.000849     0.000497     1.087151
	   13 R(7,13)         =      1.348852    -0.069725    -0.001184     1.347668
	   14 R(7,14)         =      1.330763    -0.040749    -0.003417     1.327346
	   15 R(13,17)        =      1.013412    -0.007731    -0.000301     1.013111
	   16 R(13,18)        =      1.027730    -0.119500     0.045884     1.073615
	   17 R(14,15)        =      1.014069    -0.001642     0.002391     1.016459
	   18 R(14,16)        =      1.022689    -0.080095    -0.004054     1.018636
	   19 B(1,2,3)        =    119.745891     0.000015     0.100124   119.846016
	   20 B(1,2,8)        =    120.495098     0.000103     0.580701   121.075799
	   21 B(1,6,5)        =    119.850473     0.000054     0.280421   120.130894
	   22 B(1,6,12)       =    120.953608    -0.000035     0.010439   120.964047
	   23 B(1,7,13)       =    121.638222    -0.000146     0.194580   121.832802
	   24 B(1,7,14)       =    118.709505     0.000531     1.529303   120.238808
	   25 B(2,1,6)        =    119.883992    -0.000056    -0.326927   119.557065
	   26 B(2,1,7)        =    119.237933     0.000251     0.648175   119.886108
	   27 B(2,3,4)        =    120.114400     0.000016     0.094456   120.208856
	   28 B(2,3,9)        =    119.671777    -0.000019    -0.113477   119.558300
	   29 B(3,2,8)        =    119.660706    -0.000119    -0.729253   118.931453
	   30 B(3,4,5)        =    120.339400    -0.000026    -0.140090   120.199310
	   31 B(3,4,10)       =    119.848412     0.000010     0.050669   119.899081
	   32 B(4,3,9)        =    120.212671     0.000003     0.017821   120.230492
	   33 B(4,5,6)        =    120.054136    -0.000002    -0.011179   120.042957
	   34 B(4,5,11)       =    120.187794     0.000004     0.011319   120.199113
	   35 B(5,4,10)       =    119.812008     0.000016     0.088025   119.900033
	   36 B(5,6,12)       =    119.146959    -0.000019    -0.283223   118.863736
	   37 B(6,1,7)        =    120.876431    -0.000194    -0.339638   120.536792
	   38 B(6,5,11)       =    119.757868    -0.000002    -0.000003   119.757866
	   39 B(7,13,17)      =    121.715287     0.000120     0.820146   122.535434
	   40 B(7,13,18)      =    121.331976    -0.000210    -4.404952   116.927024
	   41 B(7,14,15)      =    122.304641    -0.000006    -0.386346   121.918295
	   42 B(7,14,16)      =    120.677101    -0.000012     0.281400   120.958502
	   43 B(13,7,14)      =    119.271251    -0.000384    -1.705893   117.565358
	   44 B(15,14,16)     =    117.016689     0.000018     0.100278   117.116966
	   45 B(17,13,18)     =    116.620986     0.000023    -1.992908   114.628077
	   46 D(1,2,3,4)      =      1.173111     0.000000     0.115774     1.288885
	   47 D(1,2,3,9)      =   -178.437401     0.000001     0.282807  -178.154594
	   48 D(1,6,5,4)      =      0.787377     0.000001     0.154298     0.941675
	   49 D(1,6,5,11)     =   -179.049346     0.000000     0.083513  -178.965834
	   50 *D(1,7,13,17)   =    140.000009     0.000000    -0.000000   140.000009
	   51 D(1,7,13,18)    =    -33.161860     0.000158    21.707913   -11.453947
	   52 D(1,7,14,15)    =   -173.376817    -0.000025    -3.831069  -177.207886
	   53 D(1,7,14,16)    =      7.092539    -0.000018    -3.365592     3.726947
	   54 D(2,1,6,5)      =     -0.182955    -0.000002    -0.348760    -0.531715
	   55 D(2,1,6,12)     =   -177.616383    -0.000003    -0.550696  -178.167079
	   56 D(2,1,7,13)     =   -142.303040     0.000002     0.226389  -142.076651
	   57 D(2,1,7,14)     =     30.557171    -0.000001     0.279302    30.836473
	   58 D(2,3,4,5)      =     -0.572990    -0.000002    -0.311361    -0.884350
	   59 D(2,3,4,10)     =    179.581651     0.000000    -0.008941   179.572710
	   60 D(3,2,1,6)      =     -0.798089     0.000001     0.214431    -0.583658
	   61 D(3,2,1,7)      =    178.739615    -0.000005    -0.942461   177.797154
	   62 D(3,4,5,6)      =     -0.416309     0.000001     0.177982    -0.238327
	   63 D(3,4,5,11)     =    179.419707     0.000001     0.249064   179.668770
	   64 D(4,3,2,8)      =    177.586582    -0.000004    -0.652617   176.933965
	   65 D(4,5,6,12)     =    178.267235     0.000002     0.359188   178.626423
	   66 D(5,4,3,9)      =    179.035399    -0.000003    -0.480037   178.555362
	   67 D(5,6,1,7)      =   -179.712944     0.000005     0.811163  -178.901781
	   68 D(6,1,2,8)      =   -177.181142     0.000007     1.047747  -176.133395
	   69 D(6,1,7,13)     =     37.229946    -0.000004    -0.941884    36.288062
	   70 D(6,1,7,14)     =   -149.909843    -0.000008    -0.888972  -150.798815
	   71 D(6,5,4,10)     =    179.429107    -0.000000    -0.124498   179.304608
	   72 D(7,1,2,8)      =      2.356562     0.000001    -0.109145     2.247417
	   73 D(7,1,6,12)     =      2.853627     0.000003     0.609227     3.462855
	   74 D(8,2,3,9)      =     -2.023930    -0.000003    -0.485584    -2.509513
	   75 D(9,3,4,10)     =     -0.809960    -0.000001    -0.177618    -0.987578
	   76 D(10,4,5,11)    =     -0.734878    -0.000000    -0.053416    -0.788294
	   77 D(11,5,6,12)    =     -1.569488     0.000002     0.288403    -1.281086
	   78 D(13,7,14,15)   =     -0.344374    -0.000025    -3.654035    -3.998410
	   79 D(13,7,14,16)   =   -179.875018    -0.000018    -3.188559  -183.063576
	   80 D(14,7,13,17)   =    -32.821105    -0.000011    -0.273169   -33.094274
	   81 D(14,7,13,18)   =    154.017025     0.000147    21.434744   175.451769
	 ---------------------------------------------------------------------------
	Successfully symmetrized geometry.

  ==> Convergence Check <==

  Measures of convergence in internal coordinates in au.
  Criteria marked as inactive (o), active & met (*), and active & unmet ( ).
  ---------------------------------------------------------------------------------------------
   Step     Total Energy     Delta E     MAX Force     RMS Force      MAX Disp      RMS Disp   
  ---------------------------------------------------------------------------------------------
    Convergence Criteria    1.00e-06 *    3.00e-04 *             o    1.20e-03 *             o
  ---------------------------------------------------------------------------------------------
      2    -381.45510732   -7.88e-03      1.45e-02      2.90e-03 o    3.79e-01      6.26e-02 o  ~
  ---------------------------------------------------------------------------------------------

	Writing optimization data to binary file.
	Structure for next step:
	Cartesian Geometry (in Angstrom)
	    C     0.0768534322  -0.0330545817  -0.1856243113
	    C     0.0916456159   1.1903935780   0.5143592190
	    C     0.0315695141   1.1936186006   1.9054538777
	    C    -0.0161102013  -0.0114554677   2.6094858581
	    C    -0.0224515920  -1.2288526763   1.9208080435
	    C     0.0137463226  -1.2425691360   0.5315014920
	    C     0.0913116895  -0.0361589467  -1.6590624110
	    H     0.0771820991   2.1390189669  -0.0143827546
	    H     0.0128876326   2.1391151958   2.4384663421
	    H    -0.0558611868  -0.0031840644   3.6945685582
	    H    -0.0540872200  -2.1655036794   2.4681082098
	    H     0.0309025674  -2.1997887801   0.0163971395
	    N    -0.6212979065  -0.9282295088  -2.3750284899
	    N     0.7030260569   0.9364876542  -2.3236012846
	    H     0.6932832916   0.9822708461  -3.3389822644
	    H     1.2170112788   1.6649615398  -1.8308904579
	    H    -1.1140743628  -0.6765995030  -3.2237024699
	    H    -1.0493460313  -1.7527250374  -1.8368552964
			--------------------------
			 OPTKING Finished Execution 
			--------------------------

    Structure for next step:
    Molecular point group: c1
    Full point group: C1

    Geometry (in Angstrom), charge = 1, multiplicity = 1:

    C            0.076853432187    -0.033054581705    -0.185624311306
    C            0.091645615868     1.190393578021     0.514359219046
    C            0.031569514098     1.193618600615     1.905453877715
    C           -0.016110201267    -0.011455467694     2.609485858111
    C           -0.022451592012    -1.228852676316     1.920808043490
    C            0.013746322571    -1.242569136021     0.531501491971
    C            0.091311689500    -0.036158946661    -1.659062410976
    H            0.077182099100     2.139018966903    -0.014382754601
    H            0.012887632622     2.139115195834     2.438466342081
    H           -0.055861186819    -0.003184064353     3.694568558193
    H           -0.054087220045    -2.165503679367     2.468108209838
    H            0.030902567411    -2.199788780131     0.016397139464
    N           -0.621297906453    -0.928229508764    -2.375028489863
    N            0.703026056946     0.936487654204    -2.323601284577
    H            0.693283291583     0.982270846051    -3.338982264378
    H            1.217011278803     1.664961539797    -1.830890457923
    H           -1.114074362792    -0.676599502994    -3.223702469932
    H           -1.049346031301    -1.752725037419    -1.836855296351

gradient() will perform analytic gradient computation.

*** tstart() called on arancio.prib.upf.edu
*** at Sat Sep 29 20:37:23 2018

   => Loading Basis Set <=

    Name: 6-31G*
    Role: ORBITAL
    Keyword: BASIS
    atoms 1-7         entry C          line   111 file /shared/joao/test_parameterize/miniconda3/share/psi4/basis/6-31gs.gbs 
    atoms 8-12, 15-18 entry H          line    44 file /shared/joao/test_parameterize/miniconda3/share/psi4/basis/6-31gs.gbs 
[...]
	             0.0000010914       -0.0000016565        0.0000022862
	            -0.0000029699        0.0000030019       -0.0000004656
	            -0.0000076432       -0.0000019398       -0.0000030967
	             0.0000009475        0.0000013223        0.0000209826
	             0.0093630189       -0.0003615589       -0.0087196148
	            -0.0000169041       -0.0000828187       -0.0000316084
	            -0.0000138557        0.0000165875        0.0000038619
	             0.0000089025        0.0000039109       -0.0000067311
	            -0.0094976521        0.0021632217        0.0062509814
	            -0.0000299214        0.0000049380       -0.0000011847

	---Fragment 1 Intrafragment Coordinates---
	 - Coordinate -           - BOHR/RAD -       - ANG/DEG -
	 R(1,2)           =         2.660088	       1.407658
	 R(1,6)           =         2.661178	       1.408235
	 R(1,7)           =         2.773838	       1.467852
	 R(2,3)           =         2.629861	       1.391662
	 R(2,8)           =         2.052700	       1.086242
	 R(3,4)           =         2.641238	       1.397683
	 R(3,9)           =         2.050642	       1.085153
	 R(4,5)           =         2.642564	       1.398384
	 R(4,10)          =         2.051444	       1.085578
	 R(5,6)           =         2.628159	       1.390762
	 R(5,11)          =         2.050552	       1.085105
	 R(6,12)          =         2.053956	       1.086907
	 R(7,13)          =         2.544015	       1.346235
	 R(7,14)          =         2.505410	       1.325806
	 R(13,17)         =         1.919446	       1.015727
	 R(13,18)         =         1.916760	       1.014306
	 R(14,15)         =         1.915915	       1.013858
	 R(14,16)         =         1.912108	       1.011844
	 B(1,2,3)         =         2.088522	     119.663474
	 B(1,2,8)         =         2.109158	     120.845831
	 B(1,6,5)         =         2.090836	     119.796079
	 B(1,6,12)        =         2.106609	     120.699786
	 B(1,7,13)        =         2.107404	     120.745333
	 B(1,7,14)        =         2.096821	     120.138973
	 B(2,1,6)         =         2.094286	     119.993722
	 B(2,1,7)         =         2.092156	     119.871698
	 B(2,3,4)         =         2.097292	     120.166008
	 B(2,3,9)         =         2.087414	     119.599985
	 B(3,2,8)         =         2.083612	     119.382191
	 B(3,4,5)         =         2.100048	     120.323905
	 B(3,4,10)        =         2.091436	     119.830465
	 B(4,3,9)         =         2.098446	     120.232082
	 B(4,5,6)         =         2.095234	     120.048091
	 B(4,5,11)        =         2.098662	     120.244490
	 B(5,4,10)        =         2.091700	     119.845602
	 B(5,6,12)        =         2.084390	     119.426752
	 B(6,1,7)         =         2.096693	     120.131660
	 B(6,5,11)        =         2.089251	     119.705258
	 B(7,13,17)       =         2.084444	     119.429832
	 B(7,13,18)       =         2.009727	     115.148873
	 B(7,14,15)       =         2.133647	     122.248989
	 B(7,14,16)       =         2.099970	     120.319444
	 B(13,7,14)       =         2.076939	     118.999848
	 B(15,14,16)      =         2.040053	     116.886400
	 B(17,13,18)      =         1.936349	     110.944601
	 D(1,2,3,4)       =         0.018056	       1.034541
	 D(1,2,3,9)       =        -3.114748	    -178.461943
	 D(1,6,5,4)       =         0.009394	       0.538226
	 D(1,6,5,11)      =        -3.122890	    -178.928410
	*D(1,7,13,17)     =         2.443461	     140.000009
	 D(1,7,13,18)     =         0.071359	       4.088582
	 D(1,7,14,15)     =        -3.110617	    -178.225237
	 D(1,7,14,16)     =         0.183413	      10.508771
	 D(2,1,6,5)       =         0.001318	       0.075519
	 D(2,1,6,12)      =        -3.084127	    -176.707444
	 D(2,1,7,13)      =        -2.518580	    -144.303980
	 D(2,1,7,14)      =         0.554037	      31.744003
	 D(2,3,4,5)       =        -0.007416	      -0.424918
	 D(2,3,4,10)      =         3.135248	     179.636489
	 D(3,2,1,6)       =        -0.015045	      -0.862016
	 D(3,2,1,7)       =         3.115714	     178.517246
	 D(3,4,5,6)       =        -0.006449	      -0.369502
	 D(3,4,5,11)      =         3.125784	     179.094231
	 D(4,3,2,8)       =         3.094122	     177.280152
	 D(4,5,6,12)      =         3.095557	     177.362341
	 D(5,4,3,9)       =         3.125332	     179.068359
	 D(5,6,1,7)       =        -3.129412	    -179.302115
	 D(6,1,2,8)       =        -3.090132	    -177.051499
	 D(6,1,7,13)      =         0.612164	      35.074416
	 D(6,1,7,14)      =        -2.598404	    -148.877601
	 D(6,5,4,10)      =         3.134072	     179.569082
	 D(7,1,2,8)       =         0.040627	       2.327763
	 D(7,1,6,12)      =         0.068328	       3.914923
	 D(8,2,3,9)       =        -0.038682	      -2.216333
	 D(9,3,4,10)      =        -0.015188	      -0.870234
	 D(10,4,5,11)     =        -0.016881	      -0.967185
	 D(11,5,6,12)     =        -0.036727	      -2.104295
	 D(13,7,14,15)    =        -0.036802	      -2.108587
	 D(13,7,14,16)    =        -3.025957	    -173.374580
	 D(14,7,13,17)    =        -0.629931	     -36.092375
	 D(14,7,13,18)    =        -3.002033	    -172.003802

	Current energy   :      -381.4625427687

	Energy change for the previous step:
		Projected    :        -0.0000036352
		Actual       :        -0.0000012593

	Performing BFGS update.
	Previous computed or guess Hessian on step 1.
	Steps to be used in Hessian update: 7 6
	Taking RFO optimization step.
	Going to follow RFO solution 1.
	Rejecting RFO root 1 because normalization gives large value.
	Rejecting RFO root 2 because normalization gives large value.
	Using RFO vector 3.
	Norm of target step-size    0.00203
	Projected energy change by RFO approximation:        -0.0000002277

	Back-transformation to cartesian coordinates...
	Successfully converged to displaced geometry.

	Back-transformation to cartesian coordinates to adjust frozen coordinates...
	Successfully converged to displaced geometry.

	--- Internal Coordinate Step in ANG or DEG, aJ/ANG or AJ/DEG ---
	 ---------------------------------------------------------------------------
	   Coordinate                Previous        Force       Change         New 
	   ----------                --------       ------       ------       ------
	    1 R(1,2)          =      1.407658    -0.000018     0.000014     1.407673
	    2 R(1,6)          =      1.408235    -0.000390    -0.000060     1.408175
	    3 R(1,7)          =      1.467852    -0.000232    -0.000020     1.467832
	    4 R(2,3)          =      1.391662    -0.000006     0.000003     1.391666
	    5 R(2,8)          =      1.086242    -0.000016    -0.000012     1.086230
	    6 R(3,4)          =      1.397683    -0.000026    -0.000009     1.397674
	    7 R(3,9)          =      1.085153    -0.000001     0.000001     1.085154
	    8 R(4,5)          =      1.398384     0.000141     0.000025     1.398409
	    9 R(4,10)         =      1.085578    -0.000006    -0.000001     1.085577
	   10 R(5,6)          =      1.390762    -0.000082    -0.000015     1.390747
	   11 R(5,11)         =      1.085105    -0.000006    -0.000001     1.085104
	   12 R(6,12)         =      1.086907     0.000096     0.000017     1.086923
	   13 R(7,13)         =      1.346235    -0.000811    -0.000116     1.346119
	   14 R(7,14)         =      1.325806     0.000323     0.000062     1.325868
	   15 R(13,17)        =      1.015727    -0.000109    -0.000019     1.015708
	   16 R(13,18)        =      1.014306    -0.000105    -0.000066     1.014240
	   17 R(14,15)        =      1.013858     0.000037     0.000007     1.013865
	   18 R(14,16)        =      1.011844    -0.000043     0.000001     1.011845
	   19 B(1,2,3)        =    119.663474    -0.000003    -0.008708   119.654766
	   20 B(1,2,8)        =    120.845831    -0.000000    -0.005162   120.840669
	   21 B(1,6,5)        =    119.796079    -0.000001    -0.005110   119.790969
	   22 B(1,6,12)       =    120.699786    -0.000001    -0.006446   120.693341
	   23 B(1,7,13)       =    120.745333    -0.000002    -0.007040   120.738294
	   24 B(1,7,14)       =    120.138973    -0.000005    -0.014263   120.124711
	   25 B(2,1,6)        =    119.993722     0.000004     0.011543   120.005266
	   26 B(2,1,7)        =    119.871698    -0.000005    -0.014442   119.857255
	   27 B(2,3,4)        =    120.166008     0.000000     0.000812   120.166820
	   28 B(2,3,9)        =    119.599985    -0.000000    -0.001042   119.598942
	   29 B(3,2,8)        =    119.382191     0.000003     0.015827   119.398018
	   30 B(3,4,5)        =    120.323905     0.000000     0.002593   120.326498
	   31 B(3,4,10)       =    119.830465     0.000000    -0.000636   119.829829
	   32 B(4,3,9)        =    120.232082     0.000000     0.000257   120.232340
	   33 B(4,5,6)        =    120.048091    -0.000000    -0.001011   120.047080
	   34 B(4,5,11)       =    120.244490    -0.000000    -0.001320   120.243170
	   35 B(5,4,10)       =    119.845602    -0.000000    -0.001948   119.843654
	   36 B(5,6,12)       =    119.426752     0.000002     0.012013   119.438764
	   37 B(6,1,7)        =    120.131660     0.000001     0.002914   120.134575
	   38 B(6,5,11)       =    119.705258     0.000000     0.002248   119.707507
	   39 B(7,13,17)      =    119.429832    -0.000001     0.002664   119.432497
	   40 B(7,13,18)      =    115.148873     0.000000     0.000351   115.149224
	   41 B(7,14,15)      =    122.248989    -0.000000    -0.003414   122.245575
	   42 B(7,14,16)      =    120.319444    -0.000001    -0.006230   120.313213
	   43 B(13,7,14)      =    118.999848     0.000007     0.020701   119.020549
	   44 B(15,14,16)     =    116.886400     0.000001     0.000384   116.886784
	   45 B(17,13,18)     =    110.944601     0.000001     0.010262   110.954863
	   46 D(1,2,3,4)      =      1.034541    -0.000000    -0.008766     1.025775
	   47 D(1,2,3,9)      =   -178.461943    -0.000000    -0.012315  -178.474258
	   48 D(1,6,5,4)      =      0.538226    -0.000000    -0.003709     0.534517
	   49 D(1,6,5,11)     =   -178.928410     0.000000     0.006428  -178.921982
	   50 *D(1,7,13,17)   =    140.000009     0.000000    -0.000000   140.000009
	   51 D(1,7,13,18)    =      4.088582    -0.000000    -0.021281     4.067301
	   52 D(1,7,14,15)    =   -178.225237    -0.000000    -0.043309  -178.268546
	   53 D(1,7,14,16)    =     10.508771    -0.000000     0.030059    10.538829
	   54 D(2,1,6,5)      =      0.075519     0.000000     0.002160     0.077679
	   55 D(2,1,6,12)     =   -176.707444     0.000000    -0.007725  -176.715168
	   56 D(2,1,7,13)     =   -144.303980    -0.000000    -0.007366  -144.311346
	   57 D(2,1,7,14)     =     31.744003    -0.000000    -0.016792    31.727212
	   58 D(2,3,4,5)      =     -0.424918     0.000000     0.007132    -0.417787
	   59 D(2,3,4,10)     =    179.636489    -0.000000    -0.003779   179.632709
	   60 D(3,2,1,6)      =     -0.862016    -0.000000     0.004081    -0.857935
	   61 D(3,2,1,7)      =    178.517246     0.000000     0.005738   178.522984
	   62 D(3,4,5,6)      =     -0.369502    -0.000000    -0.000916    -0.370418
	   63 D(3,4,5,11)     =    179.094231    -0.000000    -0.011089   179.083142
	   64 D(4,3,2,8)      =    177.280152     0.000000     0.025007   177.305158
	   65 D(4,5,6,12)     =    177.362341    -0.000000     0.005462   177.367804
	   66 D(5,4,3,9)      =    179.068359     0.000000     0.010696   179.079056
	   67 D(5,6,1,7)      =   -179.302115    -0.000000     0.000606  -179.301508
	   68 D(6,1,2,8)      =   -177.051499    -0.000000    -0.030990  -177.082489
	   69 D(6,1,7,13)     =     35.074416    -0.000000    -0.005653    35.068763
	   70 D(6,1,7,14)     =   -148.877601    -0.000000    -0.015078  -148.892679
	   71 D(6,5,4,10)     =    179.569082     0.000000     0.009997   179.579079
	   72 D(7,1,2,8)      =      2.327763    -0.000000    -0.029333     2.298430
	   73 D(7,1,6,12)     =      3.914923    -0.000000    -0.009278     3.905645
	   74 D(8,2,3,9)      =     -2.216333     0.000000     0.021458    -2.194875
	   75 D(9,3,4,10)     =     -0.870234    -0.000000    -0.000215    -0.870448
	   76 D(10,4,5,11)    =     -0.967185    -0.000000    -0.000176    -0.967361
	   77 D(11,5,6,12)    =     -2.104295     0.000000     0.015599    -2.088696
	   78 D(13,7,14,15)   =     -2.108587    -0.000000    -0.053636    -2.162224
	   79 D(13,7,14,16)   =   -173.374580    -0.000000     0.019731  -173.354849
	   80 D(14,7,13,17)   =    -36.092375     0.000000     0.010673   -36.081702
	   81 D(14,7,13,18)   =   -172.003802    -0.000000    -0.010608  -172.014410
	 ---------------------------------------------------------------------------
	Successfully symmetrized geometry.

  ==> Convergence Check <==

  Measures of convergence in internal coordinates in au.
  Criteria marked as inactive (o), active & met (*), and active & unmet ( ).
  ---------------------------------------------------------------------------------------------
   Step     Total Energy     Delta E     MAX Force     RMS Force      MAX Disp      RMS Disp   
  ---------------------------------------------------------------------------------------------
    Convergence Criteria    1.00e-06 *    3.00e-04 *             o    1.20e-03 *             o
  ---------------------------------------------------------------------------------------------
      8    -381.46254277   -1.26e-06      9.85e-05 *    2.22e-05 o    9.36e-04 *    2.25e-04 o  ~
  ---------------------------------------------------------------------------------------------


  **** Optimization is complete! (in 8 steps) ****

  ==> Optimization Summary <==

  Measures of convergence in internal coordinates in au.
  --------------------------------------------------------------------------------------------------------------- ~
   Step         Total Energy             Delta E       MAX Force       RMS Force        MAX Disp        RMS Disp  ~
  --------------------------------------------------------------------------------------------------------------- ~
      1    -381.447230835780   -381.447230835780      0.02062138      0.00366959      0.32306055      0.05477184  ~
      2    -381.455107322420     -0.007876486640      0.01450469      0.00289680      0.37887455      0.06264899  ~
      3    -381.457981544077     -0.002874221657      0.04481125      0.00525707      0.19836623      0.03173492  ~
      4    -381.461671509460     -0.003689965383      0.01845621      0.00225953      0.09599754      0.01773051  ~
      5    -381.462413328556     -0.000741819097      0.00840139      0.00099293      0.04336751      0.00953496  ~
      6    -381.462511734276     -0.000098405720      0.00261090      0.00035096      0.02353771      0.00483547  ~
      7    -381.462541509357     -0.000029775081      0.00034199      0.00008030      0.00370612      0.00097837  ~
      8    -381.462542768662     -0.000001259305      0.00009846      0.00002222      0.00093613      0.00022525  ~
  --------------------------------------------------------------------------------------------------------------- ~

	Writing optimization data to binary file.
	Final energy is   -381.4625427686620
	Final (previous) structure:
	Cartesian Geometry (in Angstrom)
	    C     0.0589926483  -0.0283051909  -0.1904166434
	    C     0.0587963286   1.1940006550   0.5077737632
	    C     0.0091263368   1.1927533783   1.8985490046
	    C    -0.0185077214  -0.0162719939   2.5992715594
	    C    -0.0054550662  -1.2325859371   1.9094245097
	    C     0.0274311677  -1.2443291569   0.5191009906
	    C     0.0783482101  -0.0318684891  -1.6581366038
	    H     0.0349400820   2.1400209666  -0.0255158376
	    H    -0.0162866460   2.1357870809   2.4348313488
	    H    -0.0512674886  -0.0109098691   3.6843414401
	    H    -0.0121274806  -2.1704986926   2.4550695277
	    H     0.0808738156  -2.1945944068  -0.0057856221
	    N    -0.5945677003  -0.9681701832  -2.3530255927
	    N     0.6975244809   0.9370851421  -2.3180695363
	    H     0.7083851571   0.9805379204  -3.3309380962
	    H     1.2906795078   1.5924011832  -1.8255694694
	    H    -1.0914436851  -0.7016424668  -3.1978799651
	    H    -1.1492509466  -1.6056649400  -1.7920057774
	Saving final (previous) structure.
	Removing binary optimization data file.
			--------------------------
			 OPTKING Finished Execution 
			--------------------------

    Final optimized geometry and variables:
    Molecular point group: c1
    Full point group: C1

    Geometry (in Angstrom), charge = 1, multiplicity = 1:

    C            0.058992648272    -0.028305190869    -0.190416643431
    C            0.058796328558     1.194000654982     0.507773763181
    C            0.009126336765     1.192753378252     1.898549004629
    C           -0.018507721358    -0.016271993928     2.599271559419
    C           -0.005455066237    -1.232585937134     1.909424509710
    C            0.027431167693    -1.244329156934     0.519100990605
    C            0.078348210131    -0.031868489140    -1.658136603832
    H            0.034940082034     2.140020966608    -0.025515837599
    H           -0.016286646037     2.135787080887     2.434831348820
    H           -0.051267488605    -0.010909869088     3.684341440085
    H           -0.012127480647    -2.170498692570     2.455069527685
    H            0.080873815640    -2.194594406835    -0.005785622106
    N           -0.594567700291    -0.968170183208    -2.353025592651
    N            0.697524480924     0.937085142117    -2.318069536303
    H            0.708385157052     0.980537920419    -3.330938096223
    H            1.290679507812     1.592401183233    -1.825569469405
    H           -1.091443685091    -0.701642466821    -3.197879965150
    H           -1.149250946615    -1.605664939972    -1.792005777437

	Removing binary optimization data file.
	Cleaning optimization helper files.


Properties will be evaluated at   0.000000,   0.000000,   0.000000 [a0]
OEProp: No title given, name of density matrix used for the following properties is 'SCF density'
  Nuclear Dipole Moment: [e a0]
     X:     3.3403      Y:    -1.9876      Z:    -1.4886

  Electronic Dipole Moment: [e a0]
     X:    -3.4862      Y:     2.2527      Z:    -0.6002

  Dipole Moment: [e a0]
     X:    -0.1459      Y:     0.2651      Z:    -2.0888     Total:     2.1106

  Dipole Moment: [D]
     X:    -0.3709      Y:     0.6737      Z:    -5.3091     Total:     5.3645

  Quadrupole Moment: [D A]
    XX:   -48.9596     YY:   -38.3096     ZZ:   -15.2360
    XY:     6.1135     XZ:     1.3845     YZ:    -2.8930

  Traceless Quadrupole Moment: [D A]
    XX:   -14.7912     YY:    -4.1412     ZZ:    18.9324
    XY:     6.1135     XZ:     1.3845     YZ:    -2.8930

  Mulliken Charges: (a.u.)
   Center  Symbol    Alpha    Beta     Spin     Total
       1     C     2.94953  2.94953  0.00000  0.10094
       2     C     3.08353  3.08353  0.00000 -0.16706
       3     C     3.06225  3.06225  0.00000 -0.12450
       4     C     3.05149  3.05149  0.00000 -0.10298
       5     C     3.06218  3.06218  0.00000 -0.12435
       6     C     3.08661  3.08661  0.00000 -0.17322
       7     C     2.73992  2.73992  0.00000  0.52016
       8     H     0.41551  0.41551  0.00000  0.16897
       9     H     0.40494  0.40494  0.00000  0.19011
      10     H     0.40331  0.40331  0.00000  0.19337
      11     H     0.40461  0.40461  0.00000  0.19077
      12     H     0.41133  0.41133  0.00000  0.17734
      13     N     3.85655  3.85655  0.00000 -0.71311
      14     N     3.85604  3.85604  0.00000 -0.71207
      15     H     0.30256  0.30256  0.00000  0.39489
      16     H     0.29863  0.29863  0.00000  0.40274
      17     H     0.30547  0.30547  0.00000  0.38907
      18     H     0.30554  0.30554  0.00000  0.38892

   Total alpha = 32.00000, Total beta = 32.00000, Total charge =  1.00000


    Psi4 stopped on: Saturday, 29 September 2018 08:40PM
    Psi4 wall time for execution: 0:03:39.30

*** Psi4 exiting successfully. Buy a developer a beer!
