
    -----------------------------------------------------------------------
          Psi4: An Open-Source Ab Initio Electronic Structure Package
                               Psi4 1.2.1 release

                         Git: Rev {HEAD} 406f4de 


    R. M. Parrish, L. A. Burns, D. G. A. Smith, A. C. Simmonett,
    A. E. DePrince III, E. G. Hohenstein, U. Bozkaya, A. Yu. Sokolov,
    R. Di Remigio, R. M. Richard, J. F. Gonthier, A. M. James,
    H. R. McAlexander, A. Kumar, M. Saitow, X. Wang, B. P. Pritchard,
    P. Verma, H. F. Schaefer III, K. Patkowski, R. A. King, E. F. Valeev,
    F. A. Evangelista, J. M. Turney, T. D. Crawford, and C. D. Sherrill,
    J. Chem. Theory Comput. 13(7) pp 3185--3197 (2017).
    (doi: 10.1021/acs.jctc.7b00174)


                         Additional Contributions by
    P. Kraus, H. Kruse, M. H. Lechner, M. C. Schieber, and R. A. Shaw

    -----------------------------------------------------------------------


    Psi4 started on: Saturday, 29 September 2018 08:46PM

    Process ID: 28350
    Host:       oliva.prib.upf.edu
    PSIDATADIR: /shared/joao/test_parameterize/miniconda3/share/psi4
    Memory:     500.0 MiB
    Threads:    1
    
  ==> Input File <==

--------------------------------------------------------------------------
set_num_threads(4)
set_memory('3000 MB')

set { scf_mem_safety_factor 0.7 }

set { reference rks }
set { basis 6-31G* }

molecule MOL {
    1 1
    noreorient
    nocom
    symmetry c1
    C   -0.000000  -0.000000  -0.177864
    C    0.036678   1.219374   0.524165
    C    0.031765   1.213120   1.915444
    C    0.000000   0.000000   2.610107
    C   -0.031765  -1.213120   1.915444
    C   -0.036678  -1.219375   0.524165
    C   -0.000000   0.000000  -1.644734
    H    0.018170   2.164705  -0.010854
    H    0.042402   2.152895   2.457886
    H    0.000000   0.000000   3.695756
    H   -0.042402  -2.152895   2.457886
    H   -0.018170  -2.164705  -0.010853
    N    0.426605   1.070765  -2.308460
    N   -0.426605  -1.070765  -2.308461
    H   -0.360563  -1.156064  -3.315997
    H   -0.899563  -1.815363  -1.813317
    H    0.899563   1.815363  -1.813316
    H    0.360563   1.156065  -3.315996
}

set optking { frozen_dihedral = (" 2 1 7 13 ") }

set optking { dynamic_level = 1 
 geom_maxiter = 250
 print_trajectory_xyz_file = True }

energy, wfn = optimize('B3LYP-D3', return_wfn=True)

import os
os.chdir(os.environ['HTMD_PSI4_WORKDIR'])

oeprop(wfn, 'DIPOLE', 'QUADRUPOLE', 'MULLIKEN_CHARGES')

with open('psi4out.xyz', 'w') as f:
    f.write('18 ' )
    f.write('%.12f\n' % energy)
    f.write(MOL.save_string_xyz())
--------------------------------------------------------------------------
  Threads set to 4 by Python driver.

  Memory set to   2.794 GiB by Python driver.
gradient() will perform analytic gradient computation.

*** tstart() called on oliva.prib.upf.edu
*** at Sat Sep 29 20:46:54 2018

   => Loading Basis Set <=

    Name: 6-31G*
    Role: ORBITAL
    Keyword: BASIS
    atoms 1-7         entry C          line   111 file /shared/joao/test_parameterize/miniconda3/share/psi4/basis/6-31gs.gbs 
    atoms 8-12, 15-18 entry H          line    44 file /shared/joao/test_parameterize/miniconda3/share/psi4/basis/6-31gs.gbs 
    atoms 13-14       entry N          line   128 file /shared/joao/test_parameterize/miniconda3/share/psi4/basis/6-31gs.gbs 


         ---------------------------------------------------------
                                   SCF
            by Justin Turney, Rob Parrish, Andy Simmonett
                             and Daniel Smith
                              RKS Reference
                        4 Threads,   2861 MiB Core
         ---------------------------------------------------------

  ==> Geometry <==

    Molecular point group: c1
    Full point group: C1

    Geometry (in Angstrom), charge = 1, multiplicity = 1:

       Center              X                  Y                   Z               Mass       
    ------------   -----------------  -----------------  -----------------  -----------------
         C            0.000000000000     0.000000000000    -0.177864000000    12.000000000000
         C            0.036678000000     1.219374000000     0.524165000000    12.000000000000
         C            0.031765000000     1.213120000000     1.915444000000    12.000000000000
         C            0.000000000000     0.000000000000     2.610107000000    12.000000000000
         C           -0.031765000000    -1.213120000000     1.915444000000    12.000000000000
         C           -0.036678000000    -1.219375000000     0.524165000000    12.000000000000
         C            0.000000000000     0.000000000000    -1.644734000000    12.000000000000
         H            0.018170000000     2.164705000000    -0.010854000000     1.007825032070
         H            0.042402000000     2.152895000000     2.457886000000     1.007825032070
         H            0.000000000000     0.000000000000     3.695756000000     1.007825032070
         H           -0.042402000000    -2.152895000000     2.457886000000     1.007825032070
         H           -0.018170000000    -2.164705000000    -0.010853000000     1.007825032070
         N            0.426605000000     1.070765000000    -2.308460000000    14.003074004780
         N           -0.426605000000    -1.070765000000    -2.308461000000    14.003074004780
         H           -0.360563000000    -1.156064000000    -3.315997000000     1.007825032070
         H           -0.899563000000    -1.815363000000    -1.813317000000     1.007825032070
         H            0.899563000000     1.815363000000    -1.813316000000     1.007825032070
         H            0.360563000000     1.156065000000    -3.315996000000     1.007825032070

  Running in c1 symmetry.

  Rotational constants: A =      0.12190  B =      0.04039  C =      0.03080 [cm^-1]
  Rotational constants: A =   3654.48760  B =   1210.85310  C =    923.30970 [MHz]
  Nuclear repulsion =  417.422725980436212

  Charge       = 1
  Multiplicity = 1
  Electrons    = 64
  Nalpha       = 32
  Nbeta        = 32

  ==> Algorithm <==

  SCF Algorithm Type is DF.
  DIIS enabled.
  MOM disabled.
  Fractional occupation disabled.
  Guess Type is SAD.
  Energy threshold   = 1.00e-08
  Density threshold  = 1.00e-08
  Integral threshold = 0.00e+00

  ==> Primary Basis <==

  Basis Set: 6-31G*
    Blend: 6-31G*
    Number of shells: 72
    Number of basis function: 153
    Number of Cartesian functions: 153
    Spherical Harmonics?: false
    Max angular momentum: 2

  ==> DFT Potential <==

   => Composite Functional: B3LYP-D3ZERO <= 

    B3LYP-d3zero Hyb-GGA Exchange-Correlation Functional

    P. J. Stephens, F. J. Devlin, C. F. Chabalowski, and M. J. Frisch, J. Phys. Chem. 98, 11623 (1994)

    Deriv               =              1
    GGA                 =           TRUE
    Meta                =          FALSE

    Exchange Hybrid     =           TRUE
    MP2 Hybrid          =          FALSE

   => Exchange Functionals <=

    0.0800   Slater exchange
    0.7200         Becke 88

   => Exact (HF) Exchange <=

    0.2000               HF 

   => Correlation Functionals <=

    0.1900   Vosko, Wilk & Nusair (VWN5_RPA)
    0.8100   Lee, Yang & Parr

   => Molecular Quadrature <=

    Radial Scheme       =       TREUTLER
    Pruning Scheme      =           FLAT
    Nuclear Scheme      =       TREUTLER

    BS radius alpha     =              1
    Pruning alpha       =              1
    Radial Points       =             75
    Spherical Points    =            302
    Total Points        =         396714
    Total Blocks        =           2993
    Max Points          =            256
    Max Functions       =            149

   => -D3ZERO: Empirical Dispersion <=

    Grimme's -D3 (zero-damping) Dispersion Correction
    Grimme S.; Antony J.; Ehrlich S.; Krieg H. (2010), J. Chem. Phys., 132: 154104

        S6 =   1.000000E+00
        S8 =   1.703000E+00
       SR6 =   1.261000E+00
       SR8 =   1.000000E+00
    ALPHA6 =   1.400000E+01

   => Loading Basis Set <=

    Name: (6-31G* AUX)
    Role: JKFIT
    Keyword: DF_BASIS_SCF
    atoms 1-7         entry C          line   121 file /shared/joao/test_parameterize/miniconda3/share/psi4/basis/cc-pvdz-jkfit.gbs 
    atoms 8-12, 15-18 entry H          line    51 file /shared/joao/test_parameterize/miniconda3/share/psi4/basis/cc-pvdz-jkfit.gbs 
    atoms 13-14       entry N          line   171 file /shared/joao/test_parameterize/miniconda3/share/psi4/basis/cc-pvdz-jkfit.gbs 

  ==> Pre-Iterations <==

   -------------------------------------------------------
    Irrep   Nso     Nmo     Nalpha   Nbeta   Ndocc  Nsocc
   -------------------------------------------------------
     A        153     153       0       0       0       0
   -------------------------------------------------------
    Total     153     153      32      32      32       0
   -------------------------------------------------------

  ==> Integral Setup <==

  ==> DiskDFJK: Density-Fitted J/K Matrices <==

    J tasked:                  Yes
    K tasked:                  Yes
    wK tasked:                  No
    OpenMP threads:              4
    Integrals threads:           4
    Memory (MB):              2002
    Algorithm:                Core
    Integral Cache:           NONE
    Schwarz Cutoff:          1E-12
    Fitting Condition:       1E-12

   => Auxiliary Basis Set <=

  Basis Set: (6-31G* AUX)
    Blend: CC-PVDZ-JKFIT
    Number of shells: 297
    Number of basis function: 954
    Number of Cartesian functions: 954
    Spherical Harmonics?: false
    Max angular momentum: 3

  Minimum eigenvalue in the overlap matrix is 4.8422295770E-04.
  Using Symmetric Orthogonalization.

  SCF Guess: Superposition of Atomic Densities via on-the-fly atomic UHF.

  ==> Iterations <==

                           Total Energy        Delta E     RMS |[F,P]|

   @DF-RKS iter   0:  -379.55878072842046   -3.79559e+02   6.79521e-02 
   @DF-RKS iter   1:  -381.02635057959441   -1.46757e+00   1.22242e-02 
   @DF-RKS iter   2:  -380.93224637979216    9.41042e-02   1.34991e-02 DIIS
   @DF-RKS iter   3:  -381.45970344807631   -5.27457e-01   1.82009e-03 DIIS
   @DF-RKS iter   4:  -381.46659459831358   -6.89115e-03   8.60777e-04 DIIS
   @DF-RKS iter   5:  -381.46841066713210   -1.81607e-03   2.45282e-04 DIIS
   @DF-RKS iter   6:  -381.46855966137753   -1.48994e-04   8.57466e-05 DIIS
   @DF-RKS iter   7:  -381.46857982351554   -2.01621e-05   2.12056e-05 DIIS
   @DF-RKS iter   8:  -381.46858111455981   -1.29104e-06   6.48296e-06 DIIS
   @DF-RKS iter   9:  -381.46858124864195   -1.34082e-07   2.10755e-06 DIIS
   @DF-RKS iter  10:  -381.46858126180223   -1.31603e-08   6.09025e-07 DIIS
   @DF-RKS iter  11:  -381.46858126280983   -1.00761e-09   1.38862e-07 DIIS
   @DF-RKS iter  12:  -381.46858126284934   -3.95062e-11   8.79929e-08 DIIS
   @DF-RKS iter  13:  -381.46858126287441   -2.50679e-11   1.19826e-08 DIIS
   @DF-RKS iter  14:  -381.46858126287628   -1.87583e-12   3.79248e-09 DIIS

  ==> Post-Iterations <==

    Orbital Energies [Eh]
    ---------------------

    Doubly Occupied:                                                      

       1A    -14.566205     2A    -14.566198     3A    -10.496469  
       4A    -10.375036     5A    -10.359564     6A    -10.359554  
       7A    -10.345832     8A    -10.342983     9A    -10.342932  
      10A     -1.183072    11A     -1.091493    12A     -1.016469  
      13A     -0.927986    14A     -0.905201    15A     -0.846706  
      16A     -0.785590    17A     -0.777411    18A     -0.738557  
      19A     -0.736236    20A     -0.689258    21A     -0.668909  
      22A     -0.630176    23A     -0.613985    24A     -0.594952  
      25A     -0.580469    26A     -0.576818    27A     -0.518555  
      28A     -0.508714    29A     -0.501186    30A     -0.471967  
      31A     -0.413117    32A     -0.407994  

    Virtual:                                                              

      33A     -0.222006    34A     -0.158747    35A     -0.117499  
      36A     -0.110254    37A     -0.072189    38A     -0.065553  
      39A     -0.040106    40A     -0.033137    41A      0.010047  
      42A      0.022724    43A      0.026275    44A      0.062630  
      45A      0.066498    46A      0.085705    47A      0.120560  
      48A      0.136139    49A      0.153573    50A      0.178345  
      51A      0.204796    52A      0.246068    53A      0.300751  
      54A      0.350327    55A      0.351973    56A      0.376553  
      57A      0.390477    58A      0.396289    59A      0.419013  
      60A      0.426801    61A      0.437482    62A      0.450272  
      63A      0.453061    64A      0.470032    65A      0.471235  
      66A      0.473188    67A      0.483418    68A      0.503384  
      69A      0.513687    70A      0.538545    71A      0.553929  
      72A      0.596546    73A      0.613184    74A      0.650383  
      75A      0.667319    76A      0.688039    77A      0.692816  
      78A      0.703234    79A      0.717081    80A      0.734176  
      81A      0.758273    82A      0.774262    83A      0.792941  
      84A      0.805266    85A      0.833072    86A      0.837604  
      87A      0.858024    88A      0.933240    89A      0.956733  
      90A      1.018216    91A      1.018560    92A      1.039028  
      93A      1.075522    94A      1.087905    95A      1.131100  
      96A      1.179530    97A      1.187267    98A      1.274849  
      99A      1.278558   100A      1.308265   101A      1.323037  
     102A      1.341556   103A      1.359345   104A      1.390518  
     105A      1.442998   106A      1.453189   107A      1.488880  
     108A      1.599622   109A      1.625736   110A      1.647655  
     111A      1.666474   112A      1.737156   113A      1.754192  
     114A      1.795125   115A      1.819345   116A      1.860468  
     117A      1.902346   118A      1.909980   119A      1.942458  
     120A      1.976011   121A      1.992950   122A      2.018234  
     123A      2.043103   124A      2.064283   125A      2.117616  
     126A      2.122706   127A      2.149472   128A      2.211493  
     129A      2.260574   130A      2.278160   131A      2.327165  
     132A      2.360638   133A      2.447449   134A      2.470970  
     135A      2.489307   136A      2.496019   137A      2.535810  
     138A      2.589774   139A      2.595585   140A      2.639803  
     141A      2.740510   142A      2.885503   143A      3.002568  
     144A      3.258652   145A      3.642208   146A      3.681755  
     147A      3.901297   148A      3.943569   149A      3.960309  
     150A      4.040601   151A      4.168546   152A      4.257306  
     153A      4.546577  

    Final Occupation by Irrep:
              A 
    DOCC [    32 ]

  Energy converged.

  @DF-RKS Final Energy:  -381.46858126287628

   => Energetics <=

    Nuclear Repulsion Energy =            417.4227259804362120
    One-Electron Energy =               -1329.9541018731501936
    Two-Electron Energy =                 575.4834056775752060
    DFT Exchange-Correlation Energy =     -44.4090073977374402
    Empirical Dispersion Energy =          -0.0116036500000000
    VV10 Nonlocal Energy =                  0.0000000000000000
    Total Energy =                       -381.4685812628762278



Properties will be evaluated at   0.000000,   0.000000,   0.000000 [a0]

Properties computed using the SCF density matrix

  Nuclear Dipole Moment: [e a0]
     X:     0.0000      Y:    -0.0000      Z:     0.0248

  Electronic Dipole Moment: [e a0]
     X:     0.0000      Y:     0.0000      Z:    -2.1994

  Dipole Moment: [e a0]
     X:     0.0000      Y:     0.0000      Z:    -2.1747     Total:     2.1747

  Dipole Moment: [D]
     X:     0.0000      Y:     0.0000      Z:    -5.5275     Total:     5.5275


*** tstop() called on oliva.prib.upf.edu at Sat Sep 29 20:47:22 2018
Module time:
	user time   =     100.67 seconds =       1.68 minutes
	system time =       0.80 seconds =       0.01 minutes
	total time  =         28 seconds =       0.47 minutes
Total time:
	user time   =     100.67 seconds =       1.68 minutes
	system time =       0.80 seconds =       0.01 minutes
	total time  =         28 seconds =       0.47 minutes

*** tstart() called on oliva.prib.upf.edu
*** at Sat Sep 29 20:47:22 2018


         ------------------------------------------------------------
                                   SCF GRAD                          
                          Rob Parrish, Justin Turney,                
                       Andy Simmonett, and Alex Sokolov              
         ------------------------------------------------------------

  ==> Geometry <==

    Molecular point group: c1
    Full point group: C1

    Geometry (in Angstrom), charge = 1, multiplicity = 1:

       Center              X                  Y                   Z               Mass       
    ------------   -----------------  -----------------  -----------------  -----------------
         C            0.000000000000     0.000000000000    -0.177864000000    12.000000000000
         C            0.036678000000     1.219374000000     0.524165000000    12.000000000000
         C            0.031765000000     1.213120000000     1.915444000000    12.000000000000
         C            0.000000000000     0.000000000000     2.610107000000    12.000000000000
         C           -0.031765000000    -1.213120000000     1.915444000000    12.000000000000
         C           -0.036678000000    -1.219375000000     0.524165000000    12.000000000000
         C            0.000000000000     0.000000000000    -1.644734000000    12.000000000000
         H            0.018170000000     2.164705000000    -0.010854000000     1.007825032070
         H            0.042402000000     2.152895000000     2.457886000000     1.007825032070
         H            0.000000000000     0.000000000000     3.695756000000     1.007825032070
         H           -0.042402000000    -2.152895000000     2.457886000000     1.007825032070
         H           -0.018170000000    -2.164705000000    -0.010853000000     1.007825032070
         N            0.426605000000     1.070765000000    -2.308460000000    14.003074004780
         N           -0.426605000000    -1.070765000000    -2.308461000000    14.003074004780
         H           -0.360563000000    -1.156064000000    -3.315997000000     1.007825032070
         H           -0.899563000000    -1.815363000000    -1.813317000000     1.007825032070
         H            0.899563000000     1.815363000000    -1.813316000000     1.007825032070
         H            0.360563000000     1.156065000000    -3.315996000000     1.007825032070

  Nuclear repulsion =  417.422725980436212

  ==> Basis Set <==

  Basis Set: 6-31G*
    Blend: 6-31G*
    Number of shells: 72
    Number of basis function: 153
    Number of Cartesian functions: 153
    Spherical Harmonics?: false
    Max angular momentum: 2

  ==> DFJKGrad: Density-Fitted SCF Gradients <==

    Gradient:                    1
    J tasked:                  Yes
    K tasked:                  Yes
    wK tasked:                  No
    OpenMP threads:              4
    Integrals threads:           4
    Memory (MB):              2002
    Schwarz Cutoff:          0E+00
    Fitting Condition:       1E-12

   => Auxiliary Basis Set <=

  Basis Set: (6-31G* AUX)
    Blend: CC-PVDZ-JKFIT
    Number of shells: 297
    Number of basis function: 954
    Number of Cartesian functions: 954
    Spherical Harmonics?: false
    Max angular momentum: 3

  ==> DFT Potential <==

   => Composite Functional: B3LYP-D3ZERO <= 

    B3LYP-d3zero Hyb-GGA Exchange-Correlation Functional

    P. J. Stephens, F. J. Devlin, C. F. Chabalowski, and M. J. Frisch, J. Phys. Chem. 98, 11623 (1994)

    Deriv               =              1
    GGA                 =           TRUE
    Meta                =          FALSE

    Exchange Hybrid     =           TRUE
    MP2 Hybrid          =          FALSE

   => Exchange Functionals <=

    0.0800   Slater exchange
    0.7200         Becke 88

   => Exact (HF) Exchange <=

    0.2000               HF 

   => Correlation Functionals <=

    0.1900   Vosko, Wilk & Nusair (VWN5_RPA)
    0.8100   Lee, Yang & Parr

   => Molecular Quadrature <=

    Radial Scheme       =       TREUTLER
    Pruning Scheme      =           FLAT
    Nuclear Scheme      =       TREUTLER

    BS radius alpha     =              1
    Pruning alpha       =              1
    Radial Points       =             75
    Spherical Points    =            302
    Total Points        =         396714
    Total Blocks        =           2993
    Max Points          =            256
    Max Functions       =            149


  -Total Gradient:
     Atom            X                  Y                   Z
    ------   -----------------  -----------------  -----------------
       1        0.000000037378     0.000000697675     0.002041099658
       2        0.001724143536     0.002047289754    -0.001859231588
       3       -0.000285811308    -0.001073349788     0.000759294372
       4       -0.000000000699    -0.000000073155     0.000215084392
       5        0.000285810724     0.001073556428     0.000759440973
       6       -0.001724141306    -0.002048749040    -0.001859583503
       7        0.000000103458     0.000000205579    -0.002534033963
       8        0.000897196134    -0.000500174159    -0.002260838573
       9       -0.000171915127     0.000060053502    -0.000044969288
      10        0.000000001357     0.000000007090     0.000042830166
      11        0.000171914112    -0.000060040433    -0.000045037920
      12       -0.000897201537     0.000500909133    -0.002260358218
      13       -0.001550629079     0.000498520322     0.002019895742
      14        0.001550470869    -0.000498928711     0.002019410627
      15        0.000347001924    -0.000313835344    -0.000485537172
      16        0.000218053903    -0.000568757395     0.001990357775
      17       -0.000218043918     0.000568783113     0.001990286965
      18       -0.000346990392     0.000313885378    -0.000485583315


*** tstop() called on oliva.prib.upf.edu at Sat Sep 29 20:47:28 2018
Module time:
	user time   =      25.53 seconds =       0.43 minutes
	system time =       0.29 seconds =       0.00 minutes
	total time  =          6 seconds =       0.10 minutes
Total time:
	user time   =     126.26 seconds =       2.10 minutes
	system time =       1.10 seconds =       0.02 minutes
	total time  =         34 seconds =       0.57 minutes

			-----------------------------------------
			 OPTKING 2.0: for geometry optimizations 
			  - R.A. King,  Bethel University        
			-----------------------------------------
	At level 1: Red. Int., RFO, no backsteps, dynamic trust

	Internal coordinates to be generated automatically.
	Detected frag 1 with atoms:  1 2 3 4 5 6 7 8 9 10 11 12 13 14 15 16 17 18
	---Fragment 1 Bond Connectivity---
	 1 : 2 6 7
	 2 : 1 3 8
	 3 : 2 4 9
	 4 : 3 5 10
	 5 : 4 6 11
	 6 : 1 5 12
	 7 : 1 13 14
	 8 : 2
	 9 : 3
	 10 : 4
	 11 : 5
	 12 : 6
	 13 : 7 17 18
	 14 : 7 15 16
	 15 : 14
	 16 : 14
	 17 : 13
	 18 : 13

	Assuming in current code that numbering for constraints corresponds to unified fragment.
	Frozen dihedral atom list: 
	     2     1     7    13
	---Fragment 1 Geometry and Gradient---
	 C           0.0000000000        0.0000000000       -0.3361142489
	 C           0.0693113751        2.3042829136        0.9905282984
	 C           0.0600271506        2.2924645663        3.6196645829
	 C           0.0000000000        0.0000000000        4.9323874075
	 C          -0.0600271506       -2.2924645663        3.6196645829
	 C          -0.0693113751       -2.3042848033        0.9905282984
	 C           0.0000000000        0.0000000000       -3.1080968214
	 H           0.0343363238        4.0906996085       -0.0205110874
	 H           0.0801281675        4.0683819429        4.6447314059
	 H           0.0000000000        0.0000000000        6.9839666940
	 H          -0.0801281675       -4.0683819429        4.6447314059
	 H          -0.0343363238       -4.0906996085       -0.0205091977
	 N           0.8061666169        2.0234526027       -4.3623571887
	 N          -0.8061666169       -2.0234526027       -4.3623590784
	 H          -0.6813653237       -2.1846443521       -6.2663261875
	 H          -1.6999277093       -3.4305389018       -3.4266725221
	 H           1.6999277093        3.4305389018       -3.4266706324
	 H           0.6813653237        2.1846462418       -6.2663242977
	             0.0000000374        0.0000006977        0.0020410997
	             0.0017241435        0.0020472898       -0.0018592316
	            -0.0002858113       -0.0010733498        0.0007592944
	            -0.0000000007       -0.0000000732        0.0002150844
	             0.0002858107        0.0010735564        0.0007594410
	            -0.0017241413       -0.0020487490       -0.0018595835
	             0.0000001035        0.0000002056       -0.0025340340
	             0.0008971961       -0.0005001742       -0.0022608386
	            -0.0001719151        0.0000600535       -0.0000449693
	             0.0000000014        0.0000000071        0.0000428302
	             0.0001719141       -0.0000600404       -0.0000450379
	            -0.0008972015        0.0005009091       -0.0022603582
	            -0.0015506291        0.0004985203        0.0020198957
	             0.0015504709       -0.0004989287        0.0020194106
	             0.0003470019       -0.0003138353       -0.0004855372
	             0.0002180539       -0.0005687574        0.0019903578
	            -0.0002180439        0.0005687831        0.0019902870
	            -0.0003469904        0.0003138854       -0.0004855833

	Previous optimization step data not found.  Starting new optimization.

	---Fragment 1 Intrafragment Coordinates---
	 - Coordinate -           - BOHR/RAD -       - ANG/DEG -
	 R(1,2)           =         2.659794	       1.407502
	 R(1,6)           =         2.659796	       1.407503
	 R(1,7)           =         2.771983	       1.466870
	 R(2,3)           =         2.629179	       1.391302
	 R(2,8)           =         2.052976	       1.086388
	 R(3,4)           =         2.642393	       1.398294
	 R(3,9)           =         2.050622	       1.085142
	 R(4,5)           =         2.642393	       1.398294
	 R(4,10)          =         2.051579	       1.085649
	 R(5,6)           =         2.629179	       1.391302
	 R(5,11)          =         2.050622	       1.085142
	 R(6,12)          =         2.052973	       1.086386
	 R(7,13)          =         2.513451	       1.330061
	 R(7,14)          =         2.513452	       1.330061
	 R(13,17)         =         1.911599	       1.011575
	 R(13,18)         =         1.914850	       1.013295
	 R(14,15)         =         1.914850	       1.013295
	 R(14,16)         =         1.911599	       1.011575
	 B(1,2,3)         =         2.088380	     119.655376
	 B(1,2,8)         =         2.103396	     120.515689
	 B(1,6,5)         =         2.088379	     119.655315
	 B(1,6,12)        =         2.103396	     120.515729
	 B(1,7,13)        =         2.093263	     119.935138
	 B(1,7,14)        =         2.093264	     119.935176
	 B(2,1,6)         =         2.097220	     120.161857
	 B(2,1,7)         =         2.092983	     119.919082
	 B(2,3,4)         =         2.095279	     120.050636
	 B(2,3,9)         =         2.089719	     119.732108
	 B(3,2,8)         =         2.090149	     119.756722
	 B(3,4,5)         =         2.101793	     120.423859
	 B(3,4,10)        =         2.090696	     119.788070
	 B(4,3,9)         =         2.098135	     120.214297
	 B(4,5,6)         =         2.095280	     120.050677
	 B(4,5,11)        =         2.098135	     120.214297
	 B(5,4,10)        =         2.090696	     119.788070
	 B(5,6,12)        =         2.090149	     119.756743
	 B(6,1,7)         =         2.092982	     119.919061
	 B(6,5,11)        =         2.089719	     119.732067
	 B(7,13,17)       =         2.092412	     119.886376
	 B(7,13,18)       =         2.144860	     122.891407
	 B(7,14,15)       =         2.144859	     122.891393
	 B(7,14,16)       =         2.092411	     119.886340
	 B(13,7,14)       =         2.096659	     120.129686
	 B(15,14,16)      =         2.043400	     117.078211
	 B(17,13,18)      =         2.043399	     117.078161
	 D(1,2,3,4)       =         0.007799	       0.446825
	 D(1,2,3,9)       =        -3.122896	    -178.928735
	 D(1,6,5,4)       =         0.007799	       0.446822
	 D(1,6,5,11)      =        -3.122896	    -178.928737
	 D(1,7,13,17)     =         0.187844	      10.762670
	 D(1,7,13,18)     =        -3.032164	    -173.730215
	 D(1,7,14,15)     =        -3.032165	    -173.730240
	 D(1,7,14,16)     =         0.187844	      10.762666
	 D(2,1,6,5)       =        -0.003906	      -0.223802
	 D(2,1,6,12)      =        -3.091437	    -177.126283
	*D(2,1,7,13)      =         0.349066	      20.000000
	 D(2,1,7,14)      =        -2.792527	    -160.000000
	 D(2,3,4,5)       =        -0.003942	      -0.225875
	 D(2,3,4,10)      =         3.137650	     179.774125
	 D(3,2,1,6)       =        -0.003906	      -0.223806
	 D(3,2,1,7)       =         3.137687	     179.776196
	 D(3,4,5,6)       =        -0.003942	      -0.225874
	 D(3,4,5,11)      =         3.126699	     179.146646
	 D(4,3,2,8)       =         3.095744	     177.373058
	 D(4,5,6,12)      =         3.095744	     177.373055
	 D(5,4,3,9)       =         3.126699	     179.146646
	 D(5,6,1,7)       =         3.137687	     179.776197
	 D(6,1,2,8)       =        -3.091437	    -177.126287
	 D(6,1,7,13)      =        -2.792527	    -159.999998
	 D(6,1,7,14)      =         0.349066	      20.000002
	 D(6,5,4,10)      =         3.137650	     179.774126
	 D(7,1,2,8)       =         0.050156	       2.873714
	 D(7,1,6,12)      =         0.050156	       2.873716
	 D(8,2,3,9)       =        -0.034950	      -2.002503
	 D(9,3,4,10)      =        -0.014894	      -0.853354
	 D(10,4,5,11)     =        -0.014894	      -0.853354
	 D(11,5,6,12)     =        -0.034950	      -2.002504
	 D(13,7,14,15)    =         0.109428	       6.269760
	 D(13,7,14,16)    =        -2.953749	    -169.237334
	 D(14,7,13,17)    =        -2.953749	    -169.237330
	 D(14,7,13,18)    =         0.109428	       6.269785

	Current energy   :      -381.4685812629

	Generating empirical Hessian (Schlegel '84) for each fragment.
	Taking RFO optimization step.
	Going to follow RFO solution 1.
	Using RFO vector 1.
	Norm of target step-size    0.27472
	Projected energy change by RFO approximation:         0.0002671066

	Back-transformation to cartesian coordinates...
	Could not converge backtransformation.
	Using first guess instead.

	Back-transformation to cartesian coordinates to adjust frozen coordinates...
	Successfully converged to displaced geometry.

	--- Internal Coordinate Step in ANG or DEG, aJ/ANG or AJ/DEG ---
	 ---------------------------------------------------------------------------
	   Coordinate                Previous        Force       Change         New 
	   ----------                --------       ------       ------       ------
	    1 R(1,2)          =      1.407502     0.015941     0.002447     1.409949
	    2 R(1,6)          =      1.407503     0.015930     0.003860     1.411363
	    3 R(1,7)          =      1.466870     0.037188     0.007456     1.474326
	    4 R(2,3)          =      1.391302    -0.007016    -0.000896     1.390406
	    5 R(2,8)          =      1.086388    -0.005462    -0.000289     1.086099
	    6 R(3,4)          =      1.398294    -0.007286    -0.000788     1.397506
	    7 R(3,9)          =      1.085142    -0.000229     0.000091     1.085234
	    8 R(4,5)          =      1.398294    -0.007292    -0.000692     1.397602
	    9 R(4,10)         =      1.085649    -0.000352    -0.000041     1.085608
	   10 R(5,6)          =      1.391302    -0.007029    -0.000948     1.390353
	   11 R(5,11)         =      1.085142    -0.000228     0.000571     1.085713
	   12 R(6,12)         =      1.086386    -0.005455     0.000814     1.087200
	   13 R(7,13)         =      1.330061     0.010919     0.001633     1.331693
	   14 R(7,14)         =      1.330061     0.010915     0.003860     1.333921
	   15 R(13,17)        =      1.011575    -0.010635    -0.000193     1.011382
	   16 R(13,18)        =      1.013295    -0.004383    -0.000473     1.012822
	   17 R(14,15)        =      1.013295    -0.004383    -0.000202     1.013093
	   18 R(14,16)        =      1.011575    -0.010635     0.002313     1.013888
	   19 B(1,2,3)        =    119.655376     0.000159     0.523911   120.179287
	   20 B(1,2,8)        =    120.515689     0.000091     0.505773   121.021462
	   21 B(1,6,5)        =    119.655315     0.000160     0.499440   120.154755
	   22 B(1,6,12)       =    120.515729     0.000092     0.601741   121.117470
	   23 B(1,7,13)       =    119.935138     0.000289     0.888344   120.823482
	   24 B(1,7,14)       =    119.935176     0.000289     0.654506   120.589681
	   25 B(2,1,6)        =    120.161857    -0.000316    -0.931729   119.230128
	   26 B(2,1,7)        =    119.919082     0.000158     0.460608   120.379689
	   27 B(2,3,4)        =    120.050636     0.000014     0.013970   120.064606
	   28 B(2,3,9)        =    119.732108    -0.000002     0.005519   119.737627
	   29 B(3,2,8)        =    119.756722    -0.000251    -1.090457   118.666265
	   30 B(3,4,5)        =    120.423859    -0.000031    -0.142624   120.281235
	   31 B(3,4,10)       =    119.788070     0.000015     0.079236   119.867307
	   32 B(4,3,9)        =    120.214297    -0.000012    -0.020980   120.193316
	   33 B(4,5,6)        =    120.050677     0.000014     0.003225   120.053902
	   34 B(4,5,11)       =    120.214297    -0.000012    -0.009006   120.205291
	   35 B(5,4,10)       =    119.788070     0.000015     0.060804   119.848874
	   36 B(5,6,12)       =    119.756743    -0.000252    -1.125741   118.631002
	   37 B(6,1,7)        =    119.919061     0.000158     0.309814   120.228875
	   38 B(6,5,11)       =    119.732067    -0.000002    -0.004872   119.727194
	   39 B(7,13,17)      =    119.886376     0.000144     0.661295   120.547671
	   40 B(7,13,18)      =    122.891407    -0.000082    -0.417070   122.474337
	   41 B(7,14,15)      =    122.891393    -0.000082    -0.433065   122.458329
	   42 B(7,14,16)      =    119.886340     0.000144     0.792241   120.678581
	   43 B(13,7,14)      =    120.129686    -0.000579    -1.692910   118.436776
	   44 B(15,14,16)     =    117.078211    -0.000066    -0.539906   116.538304
	   45 B(17,13,18)     =    117.078161    -0.000066    -0.424761   116.653401
	   46 D(1,2,3,4)      =      0.446825    -0.000000     0.270273     0.717098
	   47 D(1,2,3,9)      =   -178.928735     0.000001     0.411795  -178.516940
	   48 D(1,6,5,4)      =      0.446822    -0.000008    -1.438176    -0.991354
	   49 D(1,6,5,11)     =   -178.928737    -0.000004    -0.723432  -179.652169
	   50 D(1,7,13,17)    =     10.762670     0.000022     3.743170    14.505840
	   51 D(1,7,13,18)    =   -173.730215     0.000006     1.472720  -172.257495
	   52 D(1,7,14,15)    =   -173.730240    -0.000016    -3.046742  -176.776982
	   53 D(1,7,14,16)    =     10.762666    -0.000000    -0.766870     9.995796
	   54 D(2,1,6,5)      =     -0.223802     0.000012     2.415929     2.192128
	   55 D(2,1,6,12)     =   -177.126283     0.000016     2.944297  -174.181985
	   56 *D(2,1,7,13)    =     20.000000     0.000000    -0.000000    20.000000
	   57 D(2,1,7,14)     =   -160.000000     0.000022     4.522243  -155.477757
	   58 D(2,3,4,5)      =     -0.225875     0.000004     0.736178     0.510302
	   59 D(2,3,4,10)     =    179.774125     0.000001     0.150548   179.924673
	   60 D(3,2,1,6)      =     -0.223806    -0.000008    -1.830820    -2.054626
	   61 D(3,2,1,7)      =    179.776196     0.000013     2.774413   182.550609
	   62 D(3,4,5,6)      =     -0.225874     0.000000    -0.145972    -0.371846
	   63 D(3,4,5,11)     =    179.146646    -0.000004    -0.864137   178.282509
	   64 D(4,3,2,8)      =    177.373058    -0.000005    -0.804810   176.568248
	   65 D(4,5,6,12)     =    177.373055    -0.000010    -1.900892   175.472163
	   66 D(5,4,3,9)      =    179.146646     0.000003     0.594174   179.740820
	   67 D(5,6,1,7)      =    179.776197    -0.000009    -2.182210   177.593987
	   68 D(6,1,2,8)      =   -177.126287    -0.000000    -0.680284  -177.806571
	   69 D(6,1,7,13)     =   -159.999998     0.000020     4.651409  -155.348590
	   70 D(6,1,7,14)     =     20.000002     0.000042     9.173652    29.173653
	   71 D(6,5,4,10)     =    179.774126     0.000003     0.439550   180.213675
	   72 D(7,1,2,8)      =      2.873714     0.000020     3.924950     6.798664
	   73 D(7,1,6,12)     =      2.873716    -0.000004    -1.653842     1.219874
	   74 D(8,2,3,9)      =     -2.002503    -0.000004    -0.663288    -2.665790
	   75 D(9,3,4,10)     =     -0.853354     0.000000     0.008544    -0.844809
	   76 D(10,4,5,11)    =     -0.853354    -0.000001    -0.278616    -1.131969
	   77 D(11,5,6,12)    =     -2.002504    -0.000006    -1.186148    -3.188652
	   78 D(13,7,14,15)   =      6.269760     0.000006     1.369383     7.639143
	   79 D(13,7,14,16)   =   -169.237334     0.000022     3.649255  -165.588079
	   80 D(14,7,13,17)   =   -169.237330    -0.000000    -0.683692  -169.921022
	   81 D(14,7,13,18)   =      6.269785    -0.000016    -2.954142     3.315643
	 ---------------------------------------------------------------------------
	Successfully symmetrized geometry.

  ==> Convergence Check <==

  Measures of convergence in internal coordinates in au.
  Criteria marked as inactive (o), active & met (*), and active & unmet ( ).
  --------------------------------------------------------------------------------------------- ~
   Step     Total Energy     Delta E     MAX Force     RMS Force      MAX Disp      RMS Disp    ~
  --------------------------------------------------------------------------------------------- ~
    Convergence Criteria    1.00e-06 *    3.00e-04 *             o    1.20e-03 *             o  ~
  --------------------------------------------------------------------------------------------- ~
      1    -381.46858126   -3.81e+02      7.60e-03      1.63e-03 o    1.60e-01      3.06e-02 o  ~
  ---------------------------------------------------------------------------------------------

	Writing optimization data to binary file.
	Structure for next step:
	Cartesian Geometry (in Angstrom)
	    C    -0.0294757934  -0.0063452779  -0.1739227109
	    C    -0.0052037755   1.2124696726   0.5344961485
	    C     0.0006609661   1.2127856751   1.9248897397
	    C    -0.0023685378   0.0034723435   2.6253010029
	    C    -0.0005436306  -1.2112536903   1.9341222441
	    C    -0.0035060771  -1.2213077286   0.5438084848
	    C     0.0208013460  -0.0134577536  -1.6473741929
	    H    -0.0597394855   2.1638873140   0.0134961226
	    H    -0.0050045464   2.1551894090   2.4630116068
	    H     0.0034666892   0.0074508025   3.7108864628
	    H     0.0252222439  -2.1498440554   2.4792435978
	    H     0.0733240088  -2.1761244801   0.0295844180
	    N     0.4775891247   1.0414421634  -2.3196376282
	    N    -0.4737152290  -1.0416312998  -2.3385022739
	    H    -0.4115595192  -1.0982819950  -3.3480986062
	    H    -1.0227170102  -1.7585996225  -1.8775007825
	    H     0.9947578109   1.7692207657  -1.8444870541
	    H     0.4180114149   1.1109277574  -3.3283155793
			--------------------------
			 OPTKING Finished Execution 
			--------------------------

    Structure for next step:
    Molecular point group: c1
    Full point group: C1

    Geometry (in Angstrom), charge = 1, multiplicity = 1:

    C           -0.029475793394    -0.006345277861    -0.173922710894
    C           -0.005203775483     1.212469672636     0.534496148468
    C            0.000660966146     1.212785675060     1.924889739684
    C           -0.002368537784     0.003472343534     2.625301002917
    C           -0.000543630596    -1.211253690332     1.934122244107
    C           -0.003506077109    -1.221307728605     0.543808484830
    C            0.020801345977    -0.013457753564    -1.647374192915
    H           -0.059739485455     2.163887313975     0.013496122581
    H           -0.005004546379     2.155189408960     2.463011606814
    H            0.003466689190     0.007450802503     3.710886462802
    H            0.025222243891    -2.149844055437     2.479243597779
    H            0.073324008824    -2.176124480126     0.029584417987
    N            0.477589124682     1.041442163422    -2.319637628218
    N           -0.473715228959    -1.041631299809    -2.338502273927
    H           -0.411559519154    -1.098281994993    -3.348098606223
    H           -1.022717010197    -1.758599622501    -1.877500782452
    H            0.994757810878     1.769220765749    -1.844487054088
    H            0.418011414922     1.110927757388    -3.328315579252

gradient() will perform analytic gradient computation.

*** tstart() called on oliva.prib.upf.edu
*** at Sat Sep 29 20:47:29 2018

   => Loading Basis Set <=

    Name: 6-31G*
    Role: ORBITAL
    Keyword: BASIS
    atoms 1-7         entry C          line   111 file /shared/joao/test_parameterize/miniconda3/share/psi4/basis/6-31gs.gbs 
    atoms 8-12, 15-18 entry H          line    44 file /shared/joao/test_parameterize/miniconda3/share/psi4/basis/6-31gs.gbs 
    atoms 13-14       entry N          line   128 file /shared/joao/test_parameterize/miniconda3/share/psi4/basis/6-31gs.gbs 


         ---------------------------------------------------------
                                   SCF
            by Justin Turney, Rob Parrish, Andy Simmonett
                             and Daniel Smith
                              RKS Reference
                        4 Threads,   2861 MiB Core
         ---------------------------------------------------------

  ==> Geometry <==

    Molecular point group: c1
    Full point group: C1

    Geometry (in Angstrom), charge = 1, multiplicity = 1:

       Center              X                  Y                   Z               Mass       
    ------------   -----------------  -----------------  -----------------  -----------------
         C           -0.029475793394    -0.006345277861    -0.173922710894    12.000000000000
         C           -0.005203775483     1.212469672636     0.534496148468    12.000000000000
         C            0.000660966146     1.212785675060     1.924889739684    12.000000000000
         C           -0.002368537784     0.003472343534     2.625301002917    12.000000000000
         C           -0.000543630596    -1.211253690332     1.934122244107    12.000000000000
         C           -0.003506077109    -1.221307728605     0.543808484830    12.000000000000
         C            0.020801345977    -0.013457753564    -1.647374192915    12.000000000000
         H           -0.059739485455     2.163887313975     0.013496122581     1.007825032070
         H           -0.005004546379     2.155189408960     2.463011606814     1.007825032070
         H            0.003466689190     0.007450802503     3.710886462802     1.007825032070
         H            0.025222243891    -2.149844055437     2.479243597779     1.007825032070
         H            0.073324008824    -2.176124480126     0.029584417987     1.007825032070
         N            0.477589124682     1.041442163422    -2.319637628218    14.003074004780
         N           -0.473715228959    -1.041631299809    -2.338502273927    14.003074004780
         H           -0.411559519154    -1.098281994993    -3.348098606223     1.007825032070
         H           -1.022717010197    -1.758599622501    -1.877500782452     1.007825032070
         H            0.994757810878     1.769220765749    -1.844487054088     1.007825032070
         H            0.418011414922     1.110927757388    -3.328315579252     1.007825032070

  Running in c1 symmetry.

  Rotational constants: A =      0.12260  B =      0.03961  C =      0.03060 [cm^-1]
  Rotational constants: A =   3675.44790  B =   1187.35921  C =    917.35341 [MHz]
  Nuclear repulsion =  416.138840239191438

  Charge       = 1
  Multiplicity = 1
  Electrons    = 64
  Nalpha       = 32
  Nbeta        = 32

  ==> Algorithm <==

  SCF Algorithm Type is DF.
  DIIS enabled.
  MOM disabled.
  Fractional occupation disabled.
  Guess Type is READ.
  Energy threshold   = 1.00e-08
  Density threshold  = 1.00e-08
  Integral threshold = 0.00e+00

  ==> Primary Basis <==

  Basis Set: 6-31G*
    Blend: 6-31G*
    Number of shells: 72
    Number of basis function: 153
    Number of Cartesian functions: 153
    Spherical Harmonics?: false
    Max angular momentum: 2

  ==> DFT Potential <==

   => Composite Functional: B3LYP-D3ZERO <= 

    B3LYP-d3zero Hyb-GGA Exchange-Correlation Functional

    P. J. Stephens, F. J. Devlin, C. F. Chabalowski, and M. J. Frisch, J. Phys. Chem. 98, 11623 (1994)

    Deriv               =              1
    GGA                 =           TRUE
    Meta                =          FALSE

    Exchange Hybrid     =           TRUE
    MP2 Hybrid          =          FALSE

   => Exchange Functionals <=

    0.0800   Slater exchange
    0.7200         Becke 88

   => Exact (HF) Exchange <=

    0.2000               HF 

   => Correlation Functionals <=

    0.1900   Vosko, Wilk & Nusair (VWN5_RPA)
    0.8100   Lee, Yang & Parr

   => Molecular Quadrature <=

    Radial Scheme       =       TREUTLER
    Pruning Scheme      =           FLAT
    Nuclear Scheme      =       TREUTLER

    BS radius alpha     =              1
    Pruning alpha       =              1
    Radial Points       =             75
    Spherical Points    =            302
    Total Points        =         396796
    Total Blocks        =           2997
    Max Points          =            256
    Max Functions       =            149

   => -D3ZERO: Empirical Dispersion <=

    Grimme's -D3 (zero-damping) Dispersion Correction
    Grimme S.; Antony J.; Ehrlich S.; Krieg H. (2010), J. Chem. Phys., 132: 154104

        S6 =   1.000000E+00
        S8 =   1.703000E+00
       SR6 =   1.261000E+00
       SR8 =   1.000000E+00
    ALPHA6 =   1.400000E+01

   => Loading Basis Set <=

    Name: (6-31G* AUX)
    Role: JKFIT
    Keyword: DF_BASIS_SCF
    atoms 1-7         entry C          line   121 file /shared/joao/test_parameterize/miniconda3/share/psi4/basis/cc-pvdz-jkfit.gbs 
    atoms 8-12, 15-18 entry H          line    51 file /shared/joao/test_parameterize/miniconda3/share/psi4/basis/cc-pvdz-jkfit.gbs 
    atoms 13-14       entry N          line   171 file /shared/joao/test_parameterize/miniconda3/share/psi4/basis/cc-pvdz-jkfit.gbs 

  Reading orbitals from file 180, no projection.

  ==> Pre-Iterations <==

   -------------------------------------------------------
    Irrep   Nso     Nmo     Nalpha   Nbeta   Ndocc  Nsocc
   -------------------------------------------------------
     A        153     153       0       0       0       0
   -------------------------------------------------------
    Total     153     153      32      32      32       0
   -------------------------------------------------------

  ==> Integral Setup <==

  ==> DiskDFJK: Density-Fitted J/K Matrices <==

    J tasked:                  Yes
    K tasked:                  Yes
    wK tasked:                  No
    OpenMP threads:              4
    Integrals threads:           4
    Memory (MB):              2002
    Algorithm:                Core
    Integral Cache:           NONE
    Schwarz Cutoff:          1E-12
    Fitting Condition:       1E-12

   => Auxiliary Basis Set <=

  Basis Set: (6-31G* AUX)
    Blend: CC-PVDZ-JKFIT
    Number of shells: 297
    Number of basis function: 954
    Number of Cartesian functions: 954
    Spherical Harmonics?: false
    Max angular momentum: 3

  Minimum eigenvalue in the overlap matrix is 4.9024238260E-04.
  Using Symmetric Orthogonalization.

  SCF Guess: Orbitals guess was supplied from a previous computation.

  ==> Iterations <==

                           Total Energy        Delta E     RMS |[F,P]|

   @DF-RKS iter   0:  -381.44741476478600   -3.81447e+02   1.82547e-03 
   @DF-RKS iter   1:  -381.46887027684960   -2.14555e-02   1.83807e-04 
   @DF-RKS iter   2:  -381.46881119976774    5.90771e-05   2.54188e-04 DIIS
   @DF-RKS iter   3:  -381.46901306022369   -2.01860e-04   6.20601e-05 DIIS
   @DF-RKS iter   4:  -381.46902390292456   -1.08427e-05   2.03513e-05 DIIS
   @DF-RKS iter   5:  -381.46902505533126   -1.15241e-06   6.75929e-06 DIIS
   @DF-RKS iter   6:  -381.46902517353044   -1.18199e-07   2.74631e-06 DIIS
   @DF-RKS iter   7:  -381.46902519377966   -2.02492e-08   5.02873e-07 DIIS
   @DF-RKS iter   8:  -381.46902519440084   -6.21185e-10   2.33416e-07 DIIS
   @DF-RKS iter   9:  -381.46902519456518   -1.64334e-10   5.93848e-08 DIIS
   @DF-RKS iter  10:  -381.46902519457393   -8.75389e-12   2.92007e-08 DIIS
   @DF-RKS iter  11:  -381.46902519457723   -3.29692e-12   4.94878e-09 DIIS

  ==> Post-Iterations <==

    Orbital Energies [Eh]
    ---------------------

    Doubly Occupied:                                                      

       1A    -14.566617     2A    -14.566395     3A    -10.498108  
       4A    -10.376489     5A    -10.358446     6A    -10.358253  
       7A    -10.344736     8A    -10.341572     9A    -10.341454  
      10A     -1.182627    11A     -1.088900    12A     -1.015019  
      13A     -0.926894    14A     -0.903556    15A     -0.846219  
      16A     -0.785293    17A     -0.773880    18A     -0.737873  
      19A     -0.735402    20A     -0.686997    21A     -0.669210  
      22A     -0.627865    23A     -0.613639    24A     -0.591994  
      25A     -0.580670    26A     -0.574219    27A     -0.518167  
      28A     -0.507387    29A     -0.499102    30A     -0.471235  
      31A     -0.412701    32A     -0.406781  

    Virtual:                                                              

      33A     -0.221820    34A     -0.157468    35A     -0.122080  
      36A     -0.109669    37A     -0.069984    38A     -0.064656  
      39A     -0.036651    40A     -0.035694    41A      0.008276  
      42A      0.020933    43A      0.023668    44A      0.060275  
      45A      0.063012    46A      0.081979    47A      0.121095  
      48A      0.135194    49A      0.156507    50A      0.171822  
      51A      0.202288    52A      0.244042    53A      0.299839  
      54A      0.350805    55A      0.352689    56A      0.378703  
      57A      0.388763    58A      0.396999    59A      0.418698  
      60A      0.422167    61A      0.440348    62A      0.451376  
      63A      0.454788    64A      0.471014    65A      0.471794  
      66A      0.473962    67A      0.483680    68A      0.508964  
      69A      0.520063    70A      0.537748    71A      0.545502  
      72A      0.598332    73A      0.608665    74A      0.654177  
      75A      0.664492    76A      0.683899    77A      0.690199  
      78A      0.703472    79A      0.715685    80A      0.726082  
      81A      0.751228    82A      0.774415    83A      0.788416  
      84A      0.801614    85A      0.824142    86A      0.832515  
      87A      0.852092    88A      0.934516    89A      0.954520  
      90A      0.988444    91A      1.021128    92A      1.033186  
      93A      1.068904    94A      1.090009    95A      1.130267  
      96A      1.171907    97A      1.188392    98A      1.266842  
      99A      1.282885   100A      1.306898   101A      1.322742  
     102A      1.347408   103A      1.361491   104A      1.378173  
     105A      1.441116   106A      1.452323   107A      1.483402  
     108A      1.607650   109A      1.623968   110A      1.647961  
     111A      1.662015   112A      1.735199   113A      1.749507  
     114A      1.797412   115A      1.819390   116A      1.846726  
     117A      1.897185   118A      1.910134   119A      1.952180  
     120A      1.973526   121A      1.993273   122A      2.019036  
     123A      2.031406   124A      2.059475   125A      2.117944  
     126A      2.129089   127A      2.152889   128A      2.202146  
     129A      2.252125   130A      2.261617   131A      2.324347  
     132A      2.361780   133A      2.446738   134A      2.461285  
     135A      2.488410   136A      2.499224   137A      2.535067  
     138A      2.590045   139A      2.606432   140A      2.634742  
     141A      2.738127   142A      2.879987   143A      2.990983  
     144A      3.254870   145A      3.635298   146A      3.662379  
     147A      3.900277   148A      3.945766   149A      3.961109  
     150A      4.045215   151A      4.170045   152A      4.256726  
     153A      4.543930  

    Final Occupation by Irrep:
              A 
    DOCC [    32 ]

  Energy converged.

  @DF-RKS Final Energy:  -381.46902519457723

   => Energetics <=

    Nuclear Repulsion Energy =            416.1388402391914383
    One-Electron Energy =               -1327.4573102344206745
    Two-Electron Energy =                 574.2604134729089083
    DFT Exchange-Correlation Energy =     -44.3992156622569638
    Empirical Dispersion Energy =          -0.0117530100000000
    VV10 Nonlocal Energy =                  0.0000000000000000
    Total Energy =                       -381.4690251945772275



Properties will be evaluated at   0.000000,   0.000000,   0.000000 [a0]

Properties computed using the SCF density matrix

  Nuclear Dipole Moment: [e a0]
     X:    -0.1416      Y:    -0.2255      Z:     0.2622

  Electronic Dipole Moment: [e a0]
     X:     0.1527      Y:     0.2282      Z:    -2.4724

  Dipole Moment: [e a0]
     X:     0.0111      Y:     0.0028      Z:    -2.2102     Total:     2.2102

  Dipole Moment: [D]
     X:     0.0283      Y:     0.0070      Z:    -5.6177     Total:     5.6177


*** tstop() called on oliva.prib.upf.edu at Sat Sep 29 20:47:51 2018
Module time:
	user time   =      80.73 seconds =       1.35 minutes
	system time =       0.50 seconds =       0.01 minutes
	total time  =         22 seconds =       0.37 minutes
Total time:
	user time   =     207.94 seconds =       3.47 minutes
	system time =       1.65 seconds =       0.03 minutes
	total time  =         57 seconds =       0.95 minutes

*** tstart() called on oliva.prib.upf.edu
*** at Sat Sep 29 20:47:51 2018


         ------------------------------------------------------------
                                   SCF GRAD                          
                          Rob Parrish, Justin Turney,                
                       Andy Simmonett, and Alex Sokolov              
         ------------------------------------------------------------

  ==> Geometry <==

    Molecular point group: c1
    Full point group: C1

    Geometry (in Angstrom), charge = 1, multiplicity = 1:

       Center              X                  Y                   Z               Mass       
    ------------   -----------------  -----------------  -----------------  -----------------
         C           -0.029475793394    -0.006345277861    -0.173922710894    12.000000000000
         C           -0.005203775483     1.212469672636     0.534496148468    12.000000000000
         C            0.000660966146     1.212785675060     1.924889739684    12.000000000000
         C           -0.002368537784     0.003472343534     2.625301002917    12.000000000000
         C           -0.000543630596    -1.211253690332     1.934122244107    12.000000000000
         C           -0.003506077109    -1.221307728605     0.543808484830    12.000000000000
         C            0.020801345977    -0.013457753564    -1.647374192915    12.000000000000
         H           -0.059739485455     2.163887313975     0.013496122581     1.007825032070
         H           -0.005004546379     2.155189408960     2.463011606814     1.007825032070
         H            0.003466689190     0.007450802503     3.710886462802     1.007825032070
         H            0.025222243891    -2.149844055437     2.479243597779     1.007825032070
         H            0.073324008824    -2.176124480126     0.029584417987     1.007825032070
         N            0.477589124682     1.041442163422    -2.319637628218    14.003074004780
         N           -0.473715228959    -1.041631299809    -2.338502273927    14.003074004780
         H           -0.411559519154    -1.098281994993    -3.348098606223     1.007825032070
         H           -1.022717010197    -1.758599622501    -1.877500782452     1.007825032070
         H            0.994757810878     1.769220765749    -1.844487054088     1.007825032070
         H            0.418011414922     1.110927757388    -3.328315579252     1.007825032070

  Nuclear repulsion =  416.138840239191438

  ==> Basis Set <==

  Basis Set: 6-31G*
    Blend: 6-31G*
    Number of shells: 72
    Number of basis function: 153
    Number of Cartesian functions: 153
    Spherical Harmonics?: false
    Max angular momentum: 2

  ==> DFJKGrad: Density-Fitted SCF Gradients <==

    Gradient:                    1
    J tasked:                  Yes
    K tasked:                  Yes
    wK tasked:                  No
    OpenMP threads:              4
    Integrals threads:           4
    Memory (MB):              2002
    Schwarz Cutoff:          0E+00
    Fitting Condition:       1E-12

   => Auxiliary Basis Set <=

  Basis Set: (6-31G* AUX)
    Blend: CC-PVDZ-JKFIT
    Number of shells: 297
    Number of basis function: 954
    Number of Cartesian functions: 954
    Spherical Harmonics?: false
    Max angular momentum: 3

  ==> DFT Potential <==

   => Composite Functional: B3LYP-D3ZERO <= 

    B3LYP-d3zero Hyb-GGA Exchange-Correlation Functional

    P. J. Stephens, F. J. Devlin, C. F. Chabalowski, and M. J. Frisch, J. Phys. Chem. 98, 11623 (1994)

    Deriv               =              1
    GGA                 =           TRUE
    Meta                =          FALSE

    Exchange Hybrid     =           TRUE
    MP2 Hybrid          =          FALSE

   => Exchange Functionals <=

    0.0800   Slater exchange
    0.7200         Becke 88

   => Exact (HF) Exchange <=

    0.2000               HF 

   => Correlation Functionals <=

    0.1900   Vosko, Wilk & Nusair (VWN5_RPA)
    0.8100   Lee, Yang & Parr

   => Molecular Quadrature <=

    Radial Scheme       =       TREUTLER
    Pruning Scheme      =           FLAT
    Nuclear Scheme      =       TREUTLER

    BS radius alpha     =              1
    Pruning alpha       =              1
    Radial Points       =             75
    Spherical Points    =            302
    Total Points        =         396796
    Total Blocks        =           2997
    Max Points          =            256
    Max Functions       =            149


  -Total Gradient:
     Atom            X                  Y                   Z
    ------   -----------------  -----------------  -----------------
       1       -0.008984043172     0.001867912449     0.001988419489
       2        0.003687758739    -0.000364211810     0.001084686076
       3        0.000486187516     0.000193032054     0.000122561776
       4       -0.000288331830     0.000255724469    -0.000548938971
       5       -0.000125766458    -0.000105677098    -0.000265202857
       6       -0.000207993804     0.000278244288     0.002166277070
       7        0.011681468089    -0.002460213765    -0.000880320723
       8       -0.000020949508     0.000179783651     0.000624485422
       9       -0.000092885985     0.000014827605     0.000224231233
      10        0.000063531230    -0.000023386523    -0.000049371302
      11        0.000123464256    -0.000319875914     0.000340295727
      12        0.000737549527    -0.000923039903     0.000782889023
      13       -0.004436561857     0.000090145063    -0.002289264062
      14        0.000104524892     0.002205276500    -0.003629594999
      15       -0.000351611075     0.000081838346    -0.000244258055
      16       -0.001845498106    -0.001774048956     0.000426075982
      17       -0.000370185935     0.000669123251     0.000100787773
      18       -0.000159099921     0.000140016560     0.000026585510


*** tstop() called on oliva.prib.upf.edu at Sat Sep 29 20:47:58 2018
Module time:
	user time   =      28.31 seconds =       0.47 minutes
	system time =       0.24 seconds =       0.00 minutes
	total time  =          7 seconds =       0.12 minutes
Total time:
	user time   =     236.33 seconds =       3.94 minutes
	system time =       1.90 seconds =       0.03 minutes
	total time  =         64 seconds =       1.07 minutes

			-----------------------------------------
			 OPTKING 2.0: for geometry optimizations 
			  - R.A. King,  Bethel University        
			-----------------------------------------
	At level 1: Red. Int., RFO, no backsteps, dynamic trust

	Previous internal coordinate definitions found.
	---Fragment 1 Geometry and Gradient---
	 C          -0.0557011771       -0.0119908374       -0.3286662919
	 C          -0.0098337105        2.2912356257        1.0100513397
	 C           0.0012490450        2.2918327838        3.6375144440
	 C          -0.0044758877        0.0065617783        4.9610999119
	 C          -0.0010273129       -2.2889377522        3.6549613489
	 C          -0.0066255255       -2.3079371310        1.0276491051
	 C           0.0393088471       -0.0254314686       -3.1130860630
	 H          -0.1128912668        4.0891544058        0.0255039755
	 H          -0.0094572221        4.0727177474        4.6544173990
	 H           0.0065510932        0.0140799762        7.0125591249
	 H           0.0476631334       -4.0626164932        4.6850914165
	 H           0.1385622956       -4.1122792985        0.0559064478
	 N           0.9025126497        1.9680404721       -4.3834798449
	 N          -0.8951920477       -1.9683978881       -4.4191288589
	 H          -0.7777347786       -2.0754521872       -6.3269894317
	 H          -1.9326550607       -3.3232716639       -3.5479622931
	 H           1.8798198311        3.3433427159       -3.4855753879
	 H           0.7899270946        2.0993492149       -6.2896049286
	            -0.0089840432        0.0018679124        0.0019884195
	             0.0036877587       -0.0003642118        0.0010846861
	             0.0004861875        0.0001930321        0.0001225618
	            -0.0002883318        0.0002557245       -0.0005489390
	            -0.0001257665       -0.0001056771       -0.0002652029
	            -0.0002079938        0.0002782443        0.0021662771
	             0.0116814681       -0.0024602138       -0.0008803207
	            -0.0000209495        0.0001797837        0.0006244854
	            -0.0000928860        0.0000148276        0.0002242312
	             0.0000635312       -0.0000233865       -0.0000493713
	             0.0001234643       -0.0003198759        0.0003402957
	             0.0007375495       -0.0009230399        0.0007828890
	            -0.0044365619        0.0000901451       -0.0022892641
	             0.0001045249        0.0022052765       -0.0036295950
	            -0.0003516111        0.0000818383       -0.0002442581
	            -0.0018454981       -0.0017740490        0.0004260760
	            -0.0003701859        0.0006691233        0.0001007878
	            -0.0001590999        0.0001400166        0.0000265855

	---Fragment 1 Intrafragment Coordinates---
	 - Coordinate -           - BOHR/RAD -       - ANG/DEG -
	 R(1,2)           =         2.664418	       1.409949
	 R(1,6)           =         2.667090	       1.411363
	 R(1,7)           =         2.786073	       1.474326
	 R(2,3)           =         2.627487	       1.390406
	 R(2,8)           =         2.052429	       1.086099
	 R(3,4)           =         2.640904	       1.397506
	 R(3,9)           =         2.050794	       1.085234
	 R(4,5)           =         2.641085	       1.397602
	 R(4,10)          =         2.051503	       1.085608
	 R(5,6)           =         2.627387	       1.390353
	 R(5,11)          =         2.051701	       1.085713
	 R(6,12)          =         2.054511	       1.087200
	 R(7,13)          =         2.516536	       1.331693
	 R(7,14)          =         2.520746	       1.333921
	 R(13,17)         =         1.911235	       1.011382
	 R(13,18)         =         1.913957	       1.012822
	 R(14,15)         =         1.914468	       1.013093
	 R(14,16)         =         1.915971	       1.013888
	 B(1,2,3)         =         2.097524	     120.179287
	 B(1,2,8)         =         2.112223	     121.021462
	 B(1,6,5)         =         2.097096	     120.154755
	 B(1,6,12)        =         2.113899	     121.117470
	 B(1,7,13)        =         2.108768	     120.823482
	 B(1,7,14)        =         2.104687	     120.589681
	 B(2,1,6)         =         2.080958	     119.230128
	 B(2,1,7)         =         2.101022	     120.379689
	 B(2,3,4)         =         2.095523	     120.064606
	 B(2,3,9)         =         2.089816	     119.737627
	 B(3,2,8)         =         2.071117	     118.666265
	 B(3,4,5)         =         2.099304	     120.281235
	 B(3,4,10)        =         2.092079	     119.867307
	 B(4,3,9)         =         2.097769	     120.193316
	 B(4,5,6)         =         2.095336	     120.053902
	 B(4,5,11)        =         2.097978	     120.205291
	 B(5,4,10)        =         2.091757	     119.848874
	 B(5,6,12)        =         2.070502	     118.631002
	 B(6,1,7)         =         2.098390	     120.228875
	 B(6,5,11)        =         2.089634	     119.727194
	 B(7,13,17)       =         2.103954	     120.547671
	 B(7,13,18)       =         2.137580	     122.474337
	 B(7,14,15)       =         2.137301	     122.458329
	 B(7,14,16)       =         2.106239	     120.678581
	 B(13,7,14)       =         2.067112	     118.436776
	 B(15,14,16)      =         2.033977	     116.538304
	 B(17,13,18)      =         2.035986	     116.653401
	 D(1,2,3,4)       =         0.012516	       0.717098
	 D(1,2,3,9)       =        -3.115708	    -178.516940
	 D(1,6,5,4)       =        -0.017302	      -0.991354
	 D(1,6,5,11)      =        -3.135522	    -179.652169
	 D(1,7,13,17)     =         0.253175	      14.505840
	 D(1,7,13,18)     =        -3.006460	    -172.257495
	 D(1,7,14,15)     =        -3.085340	    -176.776982
	 D(1,7,14,16)     =         0.174460	       9.995796
	 D(2,1,6,5)       =         0.038260	       2.192128
	 D(2,1,6,12)      =        -3.040049	    -174.181985
	*D(2,1,7,13)      =         0.349066	      20.000000
	 D(2,1,7,14)      =        -2.713599	    -155.477757
	 D(2,3,4,5)       =         0.008906	       0.510302
	 D(2,3,4,10)      =         3.140278	     179.924673
	 D(3,2,1,6)       =        -0.035860	      -2.054626
	 D(3,2,1,7)       =        -3.097076	    -177.449391
	 D(3,4,5,6)       =        -0.006490	      -0.371846
	 D(3,4,5,11)      =         3.111617	     178.282509
	 D(4,3,2,8)       =         3.081697	     176.568248
	 D(4,5,6,12)      =         3.062567	     175.472163
	 D(5,4,3,9)       =         3.137069	     179.740820
	 D(5,6,1,7)       =         3.099600	     177.593987
	 D(6,1,2,8)       =        -3.103310	    -177.806571
	 D(6,1,7,13)      =        -2.711344	    -155.348590
	 D(6,1,7,14)      =         0.509176	      29.173653
	 D(6,5,4,10)      =        -3.137863	    -179.786325
	 D(7,1,2,8)       =         0.118659	       6.798664
	 D(7,1,6,12)      =         0.021291	       1.219874
	 D(8,2,3,9)       =        -0.046527	      -2.665790
	 D(9,3,4,10)      =        -0.014745	      -0.844809
	 D(10,4,5,11)     =        -0.019757	      -1.131969
	 D(11,5,6,12)     =        -0.055652	      -3.188652
	 D(13,7,14,15)    =         0.133328	       7.639143
	 D(13,7,14,16)    =        -2.890057	    -165.588079
	 D(14,7,13,17)    =        -2.965681	    -169.921022
	 D(14,7,13,18)    =         0.057869	       3.315643

	Current energy   :      -381.4690251946

	Energy change for the previous step:
		Projected    :         0.0002671066
		Actual       :        -0.0004439317

	Performing BFGS update.
	Previous computed or guess Hessian on step 1.
	Steps to be used in Hessian update: 1
	Taking RFO optimization step.
	Going to follow RFO solution 1.
	Using RFO vector 1.
	Norm of target step-size    0.09515
	Projected energy change by RFO approximation:        -0.0007196089

	Back-transformation to cartesian coordinates...
	Could not converge backtransformation.
	Using first guess instead.

	Back-transformation to cartesian coordinates to adjust frozen coordinates...
	Successfully converged to displaced geometry.

	--- Internal Coordinate Step in ANG or DEG, aJ/ANG or AJ/DEG ---
	 ---------------------------------------------------------------------------
	   Coordinate                Previous        Force       Change         New 
	   ----------                --------       ------       ------       ------
	    1 R(1,2)          =      1.409949    -0.012025    -0.001035     1.408914
	    2 R(1,6)          =      1.411363    -0.021983    -0.002418     1.408945
	    3 R(1,7)          =      1.474326    -0.054715    -0.006250     1.468077
	    4 R(2,3)          =      1.390406     0.000054    -0.000008     1.390398
	    5 R(2,8)          =      1.086099     0.001167    -0.000115     1.085984
	    6 R(3,4)          =      1.397506     0.005745     0.000463     1.397970
	    7 R(3,9)          =      1.085234    -0.001029    -0.000112     1.085121
	    8 R(4,5)          =      1.397602     0.003616     0.000287     1.397889
	    9 R(4,10)         =      1.085608     0.000396     0.000060     1.085668
	   10 R(5,6)          =      1.390353     0.001387     0.000089     1.390442
	   11 R(5,11)         =      1.085713    -0.003716    -0.000578     1.085135
	   12 R(6,12)         =      1.087200    -0.004054    -0.000834     1.086366
	   13 R(7,13)         =      1.331693    -0.000805    -0.000120     1.331573
	   14 R(7,14)         =      1.333921    -0.017845    -0.001393     1.332528
	   15 R(13,17)        =      1.011382    -0.002798    -0.000688     1.010694
	   16 R(13,18)        =      1.012822     0.000070     0.000074     1.012896
	   17 R(14,15)        =      1.013093    -0.001781    -0.000093     1.013000
	   18 R(14,16)        =      1.013888    -0.020171    -0.002674     1.011214
	   19 B(1,2,3)        =    120.179287    -0.000073    -0.133231   120.046056
	   20 B(1,2,8)        =    121.021462    -0.000013    -0.041907   120.979555
	   21 B(1,6,5)        =    120.154755    -0.000051    -0.085518   120.069236
	   22 B(1,6,12)       =    121.117470    -0.000062    -0.189227   120.928243
	   23 B(1,7,13)       =    120.823482    -0.000095    -0.114290   120.709192
	   24 B(1,7,14)       =    120.589681    -0.000255    -0.385573   120.204108
	   25 B(2,1,6)        =    119.230128     0.000163     0.239090   119.469219
	   26 B(2,1,7)        =    120.379689     0.000022     0.068684   120.448373
	   27 B(2,3,4)        =    120.064606    -0.000008     0.010679   120.075285
	   28 B(2,3,9)        =    119.737627    -0.000011    -0.043991   119.693635
	   29 B(3,2,8)        =    118.666265     0.000086     0.170940   118.837205
	   30 B(3,4,5)        =    120.281235    -0.000020    -0.021887   120.259348
	   31 B(3,4,10)       =    119.867307     0.000008     0.002947   119.870254
	   32 B(4,3,9)        =    120.193316     0.000019     0.035178   120.228494
	   33 B(4,5,6)        =    120.053902    -0.000011    -0.003967   120.049935
	   34 B(4,5,11)       =    120.205291     0.000016     0.032444   120.237735
	   35 B(5,4,10)       =    119.848874     0.000012     0.020849   119.869723
	   36 B(5,6,12)       =    118.631002     0.000115     0.300429   118.931431
	   37 B(6,1,7)        =    120.228875    -0.000184    -0.299402   119.929473
	   38 B(6,5,11)       =    119.727194    -0.000005    -0.024311   119.702883
	   39 B(7,13,17)      =    120.547671    -0.000019    -0.074534   120.473137
	   40 B(7,13,18)      =    122.474337     0.000003    -0.062369   122.411968
	   41 B(7,14,15)      =    122.458329     0.000025     0.098954   122.557282
	   42 B(7,14,16)      =    120.678581    -0.000060    -0.144166   120.534415
	   43 B(13,7,14)      =    118.436776     0.000356     0.616031   119.052807
	   44 B(15,14,16)     =    116.538304     0.000039     0.135478   116.673782
	   45 B(17,13,18)     =    116.653401     0.000011    -0.018361   116.635040
	   46 D(1,2,3,4)      =      0.717098     0.000001     0.097183     0.814281
	   47 D(1,2,3,9)      =   -178.516940    -0.000001    -0.085182  -178.602122
	   48 D(1,6,5,4)      =     -0.991354     0.000001     0.009298    -0.982056
	   49 D(1,6,5,11)     =   -179.652169    -0.000001    -0.214580  -179.866749
	   50 D(1,7,13,17)    =     14.505840     0.000001    -0.053564    14.452276
	   51 D(1,7,13,18)    =   -172.257495    -0.000011    -1.507678  -173.765173
	   52 D(1,7,14,15)    =   -176.776982     0.000014     1.580929  -175.196053
	   53 D(1,7,14,16)    =      9.995796     0.000002     0.559000    10.554795
	   54 D(2,1,6,5)      =      2.192128    -0.000001    -0.149228     2.042899
	   55 D(2,1,6,12)     =   -174.181985    -0.000007    -0.676247  -174.858232
	   56 *D(2,1,7,13)    =     20.000000     0.000000     0.000000    20.000000
	   57 D(2,1,7,14)     =   -155.477757    -0.000023    -2.384722  -157.862479
	   58 D(2,3,4,5)      =      0.510302    -0.000003    -0.247190     0.263112
	   59 D(2,3,4,10)     =    179.924673    -0.000000     0.039314   179.963987
	   60 D(3,2,1,6)      =     -2.054626    -0.000000     0.096124    -1.958503
	   61 D(3,2,1,7)      =   -177.449391     0.000001    -0.011275  -177.460667
	   62 D(3,4,5,6)      =     -0.371846     0.000001     0.193030    -0.178816
	   63 D(3,4,5,11)     =    178.282509     0.000004     0.417347   178.699856
	   64 D(4,3,2,8)      =    176.568248     0.000001     0.030688   176.598936
	   65 D(4,5,6,12)     =    175.472163     0.000005     0.508536   175.980699
	   66 D(5,4,3,9)      =    179.740820    -0.000001    -0.064454   179.676366
	   67 D(5,6,1,7)      =    177.593987     0.000000    -0.025240   177.568747
	   68 D(6,1,2,8)      =   -177.806571    -0.000001     0.155245  -177.651326
	   69 D(6,1,7,13)     =   -155.348590    -0.000003    -0.132875  -155.481465
	   70 D(6,1,7,14)     =     29.173653    -0.000026    -2.517597    26.656056
	   71 D(6,5,4,10)     =   -179.786325    -0.000001    -0.093367  -179.879692
	   72 D(7,1,2,8)      =      6.798664     0.000000     0.047846     6.846511
	   73 D(7,1,6,12)     =      1.219874    -0.000006    -0.552259     0.667615
	   74 D(8,2,3,9)      =     -2.665790    -0.000001    -0.151677    -2.817468
	   75 D(9,3,4,10)     =     -0.844809     0.000002     0.222050    -0.622759
	   76 D(10,4,5,11)    =     -1.131969     0.000001     0.130949    -1.001020
	   77 D(11,5,6,12)    =     -3.188652     0.000003     0.284659    -2.903993
	   78 D(13,7,14,15)   =      7.639143    -0.000004    -0.732906     6.906237
	   79 D(13,7,14,16)   =   -165.588079    -0.000016    -1.754836  -167.342916
	   80 D(14,7,13,17)   =   -169.921022     0.000018     2.260078  -167.660944
	   81 D(14,7,13,18)   =      3.315643     0.000005     0.805964     4.121607
	 ---------------------------------------------------------------------------
	Successfully symmetrized geometry.

  ==> Convergence Check <==

  Measures of convergence in internal coordinates in au.
  Criteria marked as inactive (o), active & met (*), and active & unmet ( ).
  ---------------------------------------------------------------------------------------------
   Step     Total Energy     Delta E     MAX Force     RMS Force      MAX Disp      RMS Disp   
  ---------------------------------------------------------------------------------------------
    Convergence Criteria    1.00e-06 *    3.00e-04 *             o    1.20e-03 *             o
  ---------------------------------------------------------------------------------------------
      2    -381.46902519   -4.44e-04      6.64e-03      1.24e-03 o    4.39e-02      1.06e-02 o  ~
  ---------------------------------------------------------------------------------------------

	Writing optimization data to binary file.
	Structure for next step:
	Cartesian Geometry (in Angstrom)
	    C    -0.0393854442   0.0029819007  -0.1764213691
	    C    -0.0042970646   1.2192289589   0.5338950625
	    C     0.0090050249   1.2133120412   1.9242169698
	    C     0.0047863206   0.0006326682   2.6197099184
	    C    -0.0072539210  -1.2110755718   1.9227792041
	    C    -0.0188499013  -1.2145119615   0.5323895984
	    C     0.0023813111  -0.0030036739  -1.6438915537
	    H    -0.0571671415   2.1715581047   0.0146303255
	    H     0.0130565005   2.1536455022   2.4657375095
	    H     0.0157997234  -0.0001080023   3.7053218920
	    H     0.0107452263  -2.1522026136   2.4626624297
	    H     0.0385453036  -2.1645864814   0.0086960471
	    N     0.4617922081   1.0510823944  -2.3154051752
	    N    -0.4605420578  -1.0515974575  -2.3234377281
	    H    -0.3849521543  -1.1247882037  -3.3309584688
	    H    -0.9851893622  -1.7772811742  -1.8536700836
	    H     0.9841824514   1.7738710318  -1.8398144669
	    H     0.4173429769   1.1128425377  -3.3254391117
			--------------------------
			 OPTKING Finished Execution 
			--------------------------

    Structure for next step:
    Molecular point group: c1
    Full point group: C1

    Geometry (in Angstrom), charge = 1, multiplicity = 1:

    C           -0.039385444200     0.002981900713    -0.176421369092
    C           -0.004297064576     1.219228958938     0.533895062527
    C            0.009005024928     1.213312041248     1.924216969833
    C            0.004786320608     0.000632668159     2.619709918418
    C           -0.007253921011    -1.211075571757     1.922779204082
    C           -0.018849901335    -1.214511961488     0.532389598448
    C            0.002381311124    -0.003003673939    -1.643891553745
    H           -0.057167141534     2.171558104703     0.014630325473
    H            0.013056500491     2.153645502244     2.465737509547
    H            0.015799723418    -0.000108002277     3.705321891997
    H            0.010745226298    -2.152202613607     2.462662429705
    H            0.038545303614    -2.164586481401     0.008696047118
    N            0.461792208096     1.051082394362    -2.315405175165
    N           -0.460542057765    -1.051597457518    -2.323437728140
    H           -0.384952154275    -1.124788203650    -3.330958468838
    H           -0.985189362240    -1.777281174185    -1.853670083584
    H            0.984182451449     1.773871031780    -1.839814466887
    H            0.417342976910     1.112842537674    -3.325439111696

gradient() will perform analytic gradient computation.

*** tstart() called on oliva.prib.upf.edu
*** at Sat Sep 29 20:47:59 2018

   => Loading Basis Set <=

    Name: 6-31G*
    Role: ORBITAL
    Keyword: BASIS
    atoms 1-7         entry C          line   111 file /shared/joao/test_parameterize/miniconda3/share/psi4/basis/6-31gs.gbs 
    atoms 8-12, 15-18 entry H          line    44 file /shared/joao/test_parameterize/miniconda3/share/psi4/basis/6-31gs.gbs 
    atoms 13-14       entry N          line   128 file /shared/joao/test_parameterize/miniconda3/share/psi4/basis/6-31gs.gbs 


         ---------------------------------------------------------
                                   SCF
            by Justin Turney, Rob Parrish, Andy Simmonett
                             and Daniel Smith
                              RKS Reference
                        4 Threads,   2861 MiB Core
         ---------------------------------------------------------

  ==> Geometry <==

    Molecular point group: c1
    Full point group: C1

    Geometry (in Angstrom), charge = 1, multiplicity = 1:

       Center              X                  Y                   Z               Mass       
[...]
	            -0.0000013533        0.0000012287        0.0000000349
	            -0.0000063598        0.0000004752       -0.0000031189
	             0.0068887551       -0.0022024502        0.0002232780
	            -0.0000025805        0.0000068489       -0.0000016508
	            -0.0000004027        0.0000022658       -0.0000061886
	            -0.0000030169        0.0000021584       -0.0000037357
	            -0.0000011758       -0.0000016209       -0.0000058182
	            -0.0000079916       -0.0000023208       -0.0000060529
	            -0.0035093041        0.0014456132       -0.0001089732
	            -0.0000148396       -0.0000033734       -0.0000019289
	             0.0000104098       -0.0000002585        0.0000099093
	             0.0000040963        0.0000001087        0.0000082953
	            -0.0000012032        0.0000081162        0.0000007513
	            -0.0000051203        0.0000049074        0.0000034164

	---Fragment 1 Intrafragment Coordinates---
	 - Coordinate -           - BOHR/RAD -       - ANG/DEG -
	 R(1,2)           =         2.662528	       1.408949
	 R(1,6)           =         2.662752	       1.409068
	 R(1,7)           =         2.771086	       1.466396
	 R(2,3)           =         2.627244	       1.390278
	 R(2,8)           =         2.052487	       1.086129
	 R(3,4)           =         2.642316	       1.398253
	 R(3,9)           =         2.050499	       1.085078
	 R(4,5)           =         2.641606	       1.397877
	 R(4,10)          =         2.051543	       1.085630
	 R(5,6)           =         2.627758	       1.390550
	 R(5,11)          =         2.050499	       1.085077
	 R(6,12)          =         2.052510	       1.086141
	 R(7,13)          =         2.517436	       1.332170
	 R(7,14)          =         2.516738	       1.331800
	 R(13,17)         =         1.910388	       1.010934
	 R(13,18)         =         1.914147	       1.012923
	 R(14,15)         =         1.913960	       1.012824
	 R(14,16)         =         1.910301	       1.010888
	 B(1,2,3)         =         2.094762	     120.021044
	 B(1,2,8)         =         2.109095	     120.842218
	 B(1,6,5)         =         2.095317	     120.052822
	 B(1,6,12)        =         2.109890	     120.887809
	 B(1,7,13)        =         2.103490	     120.521106
	 B(1,7,14)        =         2.099517	     120.293487
	 B(2,1,6)         =         2.085830	     119.509277
	 B(2,1,7)         =         2.101351	     120.398538
	 B(2,3,4)         =         2.095833	     120.082411
	 B(2,3,9)         =         2.088842	     119.681817
	 B(3,2,8)         =         2.077038	     119.005501
	 B(3,4,5)         =         2.099111	     120.270181
	 B(3,4,10)        =         2.091934	     119.858967
	 B(4,3,9)         =         2.098464	     120.233133
	 B(4,5,6)         =         2.095148	     120.043151
	 B(4,5,11)        =         2.098683	     120.245692
	 B(5,4,10)        =         2.092132	     119.870332
	 B(5,6,12)        =         2.076684	     118.985253
	 B(6,1,7)         =         2.093866	     119.969713
	 B(6,5,11)        =         2.089198	     119.702250
	 B(7,13,17)       =         2.100166	     120.330633
	 B(7,13,18)       =         2.135672	     122.364994
	 B(7,14,15)       =         2.138970	     122.553975
	 B(7,14,16)       =         2.102134	     120.443412
	 B(13,7,14)       =         2.079235	     119.131410
	 B(15,14,16)      =         2.037597	     116.745688
	 B(17,13,18)      =         2.035165	     116.606369
	 D(1,2,3,4)       =         0.012390	       0.709903
	 D(1,2,3,9)       =        -3.118912	    -178.700515
	 D(1,6,5,4)       =        -0.014015	      -0.802997
	 D(1,6,5,11)      =        -3.136707	    -179.720075
	 D(1,7,13,17)     =         0.272985	      15.640876
	 D(1,7,13,18)     =        -3.041419	    -174.260467
	 D(1,7,14,15)     =        -3.055952	    -175.093158
	 D(1,7,14,16)     =         0.190611	      10.921227
	 D(2,1,6,5)       =         0.029337	       1.680871
	 D(2,1,6,12)      =        -3.057062	    -175.156752
	*D(2,1,7,13)      =         0.349066	      20.000000
	 D(2,1,7,14)      =        -2.745481	    -157.304451
	 D(2,3,4,5)       =         0.003152	       0.180583
	 D(2,3,4,10)      =         3.140161	     179.917965
	 D(3,2,1,6)       =        -0.028515	      -1.633806
	 D(3,2,1,7)       =        -3.099875	    -177.609729
	 D(3,4,5,6)       =        -0.002335	      -0.133800
	 D(3,4,5,11)      =         3.120253	     178.777337
	 D(4,3,2,8)       =         3.081922	     176.581115
	 D(4,5,6,12)      =         3.073430	     176.094590
	 D(5,4,3,9)       =         3.134397	     179.587722
	 D(5,6,1,7)       =         3.101002	     177.674303
	 D(6,1,2,8)       =        -3.096702	    -177.427983
	 D(6,1,7,13)      =        -2.721970	    -155.957375
	 D(6,1,7,14)      =         0.466669	      26.738173
	 D(6,5,4,10)      =        -3.139344	    -179.871151
	 D(7,1,2,8)       =         0.115124	       6.596093
	 D(7,1,6,12)      =         0.014603	       0.836680
	 D(8,2,3,9)       =        -0.049381	      -2.829303
	 D(9,3,4,10)      =        -0.011779	      -0.674897
	 D(10,4,5,11)     =        -0.016755	      -0.960014
	 D(11,5,6,12)     =        -0.049262	      -2.822488
	 D(13,7,14,15)    =         0.132037	       7.565137
	 D(13,7,14,16)    =        -2.904585	    -166.420478
	 D(14,7,13,17)    =        -2.915112	    -167.023629
	 D(14,7,13,18)    =         0.053669	       3.075028

	Current energy   :      -381.4692813019

	Energy change for the previous step:
		Projected    :        -0.0000007116
		Actual       :        -0.0000005136

	Performing BFGS update.
	Previous computed or guess Hessian on step 1.
	Steps to be used in Hessian update: 5 4
	Taking RFO optimization step.
	Going to follow RFO solution 1.
	Rejecting RFO root 1 because normalization gives large value.
	Using RFO vector 2.
	Norm of target step-size    0.00130
	Projected energy change by RFO approximation:        -0.0000000155

	Back-transformation to cartesian coordinates...
	Successfully converged to displaced geometry.

	Back-transformation to cartesian coordinates to adjust frozen coordinates...
	Successfully converged to displaced geometry.

	--- Internal Coordinate Step in ANG or DEG, aJ/ANG or AJ/DEG ---
	 ---------------------------------------------------------------------------
	   Coordinate                Previous        Force       Change         New 
	   ----------                --------       ------       ------       ------
	    1 R(1,2)          =      1.408949    -0.000119    -0.000019     1.408930
	    2 R(1,6)          =      1.409068     0.000040    -0.000000     1.409068
	    3 R(1,7)          =      1.466396     0.000386     0.000051     1.466447
	    4 R(2,3)          =      1.390278     0.000043     0.000002     1.390280
	    5 R(2,8)          =      1.086129    -0.000053    -0.000010     1.086119
	    6 R(3,4)          =      1.398253    -0.000022    -0.000001     1.398252
	    7 R(3,9)          =      1.085078     0.000006     0.000001     1.085079
	    8 R(4,5)          =      1.397877    -0.000049    -0.000006     1.397872
	    9 R(4,10)         =      1.085630     0.000024     0.000005     1.085635
	   10 R(5,6)          =      1.390550    -0.000006    -0.000004     1.390546
	   11 R(5,11)         =      1.085077     0.000008     0.000001     1.085078
	   12 R(6,12)         =      1.086141    -0.000034    -0.000006     1.086135
	   13 R(7,13)         =      1.332170    -0.000123    -0.000003     1.332167
	   14 R(7,14)         =      1.331800     0.000057     0.000006     1.331807
	   15 R(13,17)        =      1.010934    -0.000049    -0.000006     1.010928
	   16 R(13,18)        =      1.012923     0.000032     0.000004     1.012927
	   17 R(14,15)        =      1.012824     0.000081     0.000011     1.012835
	   18 R(14,16)        =      1.010888    -0.000016    -0.000002     1.010886
	   19 B(1,2,3)        =    120.021044    -0.000001    -0.002710   120.018335
	   20 B(1,2,8)        =    120.842218     0.000000    -0.000748   120.841471
	   21 B(1,6,5)        =    120.052822    -0.000000    -0.001548   120.051274
	   22 B(1,6,12)       =    120.887809     0.000000     0.001149   120.888957
	   23 B(1,7,13)       =    120.521106    -0.000000    -0.002199   120.518907
	   24 B(1,7,14)       =    120.293487     0.000002     0.005055   120.298541
	   25 B(2,1,6)        =    119.509277     0.000001     0.003357   119.512634
	   26 B(2,1,7)        =    120.398538    -0.000003    -0.008914   120.389624
	   27 B(2,3,4)        =    120.082411     0.000000     0.000364   120.082775
	   28 B(2,3,9)        =    119.681817     0.000000     0.002003   119.683819
	   29 B(3,2,8)        =    119.005501     0.000000     0.002769   119.008270
	   30 B(3,4,5)        =    120.270181     0.000000     0.001138   120.271320
	   31 B(3,4,10)       =    119.858967     0.000000     0.000074   119.859042
	   32 B(4,3,9)        =    120.233133    -0.000001    -0.002316   120.230817
	   33 B(4,5,6)        =    120.043151    -0.000000    -0.000808   120.042342
	   34 B(4,5,11)       =    120.245692    -0.000000    -0.001400   120.244292
	   35 B(5,4,10)       =    119.870332    -0.000000    -0.001243   119.869088
	   36 B(5,6,12)       =    118.985253    -0.000000     0.000262   118.985515
	   37 B(6,1,7)        =    119.969713     0.000002     0.005647   119.975359
	   38 B(6,5,11)       =    119.702250     0.000001     0.002254   119.704503
	   39 B(7,13,17)      =    120.330633    -0.000000    -0.003019   120.327615
	   40 B(7,13,18)      =    122.364994    -0.000000    -0.003236   122.361758
	   41 B(7,14,15)      =    122.553975     0.000000    -0.001139   122.552836
	   42 B(7,14,16)      =    120.443412     0.000001     0.001899   120.445310
	   43 B(13,7,14)      =    119.131410    -0.000002    -0.002912   119.128498
	   44 B(15,14,16)     =    116.745688    -0.000001    -0.003959   116.741729
	   45 B(17,13,18)     =    116.606369     0.000000    -0.001479   116.604890
	   46 D(1,2,3,4)      =      0.709903     0.000000     0.009226     0.719129
	   47 D(1,2,3,9)      =   -178.700515     0.000000     0.003541  -178.696974
	   48 D(1,6,5,4)      =     -0.802997    -0.000000     0.004879    -0.798118
	   49 D(1,6,5,11)     =   -179.720075     0.000000     0.002167  -179.717908
	   50 D(1,7,13,17)    =     15.640876     0.000000     0.029912    15.670787
	   51 D(1,7,13,18)    =   -174.260467    -0.000000    -0.024486  -174.284954
	   52 D(1,7,14,15)    =   -175.093158    -0.000000    -0.022796  -175.115954
	   53 D(1,7,14,16)    =     10.921227     0.000000     0.014654    10.935881
	   54 D(2,1,6,5)      =      1.680871     0.000000     0.004598     1.685469
	   55 D(2,1,6,12)     =   -175.156752     0.000000     0.007523  -175.149229
	   56 *D(2,1,7,13)    =     20.000000    -0.000000    -0.000000    20.000000
	   57 D(2,1,7,14)     =   -157.304451     0.000000     0.001490  -157.302961
	   58 D(2,3,4,5)      =      0.180583     0.000000     0.000219     0.180802
	   59 D(2,3,4,10)     =    179.917965    -0.000000    -0.007446   179.910519
	   60 D(3,2,1,6)      =     -1.633806    -0.000000    -0.011641    -1.645447
	   61 D(3,2,1,7)      =   -177.609729    -0.000000    -0.013346  -177.623076
	   62 D(3,4,5,6)      =     -0.133800    -0.000000    -0.007309    -0.141109
	   63 D(3,4,5,11)     =    178.777337    -0.000000    -0.004543   178.772794
	   64 D(4,3,2,8)      =    176.581115     0.000000    -0.001596   176.579518
	   65 D(4,5,6,12)     =    176.094590    -0.000000     0.002039   176.096629
	   66 D(5,4,3,9)      =    179.587722     0.000000     0.005962   179.593683
	   67 D(5,6,1,7)      =    177.674303    -0.000000     0.005701   177.680004
	   68 D(6,1,2,8)      =   -177.427983    -0.000000    -0.000762  -177.428745
	   69 D(6,1,7,13)     =   -155.957375     0.000000    -0.001617  -155.958992
	   70 D(6,1,7,14)     =     26.738173     0.000000    -0.000127    26.738046
	   71 D(6,5,4,10)     =   -179.871151     0.000000     0.000353  -179.870798
	   72 D(7,1,2,8)      =      6.596093    -0.000000    -0.002467     6.593626
	   73 D(7,1,6,12)     =      0.836680     0.000000     0.008626     0.845306
	   74 D(8,2,3,9)      =     -2.829303    -0.000000    -0.007282    -2.836584
	   75 D(9,3,4,10)     =     -0.674897    -0.000000    -0.001703    -0.676600
	   76 D(10,4,5,11)    =     -0.960014     0.000000     0.003119    -0.956895
	   77 D(11,5,6,12)    =     -2.822488    -0.000000    -0.000673    -2.823160
	   78 D(13,7,14,15)   =      7.565137    -0.000000    -0.021342     7.543795
	   79 D(13,7,14,16)   =   -166.420478     0.000000     0.016108  -166.404370
	   80 D(14,7,13,17)   =   -167.023629     0.000000     0.028652  -166.994977
	   81 D(14,7,13,18)   =      3.075028    -0.000000    -0.025746     3.049282
	 ---------------------------------------------------------------------------
	Successfully symmetrized geometry.

  ==> Convergence Check <==

  Measures of convergence in internal coordinates in au.
  Criteria marked as inactive (o), active & met (*), and active & unmet ( ).
  ---------------------------------------------------------------------------------------------
   Step     Total Energy     Delta E     MAX Force     RMS Force      MAX Disp      RMS Disp   
  ---------------------------------------------------------------------------------------------
    Convergence Criteria    1.00e-06 *    3.00e-04 *             o    1.20e-03 *             o
  ---------------------------------------------------------------------------------------------
      6    -381.46928130   -5.14e-07 *    4.68e-05 *    9.81e-06 o    5.22e-04 *    1.45e-04 o  ~
  ---------------------------------------------------------------------------------------------


  **** Optimization is complete! (in 6 steps) ****

  ==> Optimization Summary <==

  Measures of convergence in internal coordinates in au.
  --------------------------------------------------------------------------------------------------------------- ~
   Step         Total Energy             Delta E       MAX Force       RMS Force        MAX Disp        RMS Disp  ~
  --------------------------------------------------------------------------------------------------------------- ~
      1    -381.468581262876   -381.468581262876      0.00760297      0.00163005      0.16011042      0.03057022  ~
      2    -381.469025194577     -0.000443931701      0.00664126      0.00124243      0.04394036      0.01057071  ~
      3    -381.469262323016     -0.000237128439      0.00106662      0.00023918      0.01550548      0.00389780  ~
      4    -381.469276644182     -0.000014321166      0.00031431      0.00009090      0.00890211      0.00170975  ~
      5    -381.469280788218     -0.000004144036      0.00019044      0.00003423      0.00493034      0.00089746  ~
      6    -381.469281301854     -0.000000513636      0.00004685      0.00000981      0.00052206      0.00014492  ~
  --------------------------------------------------------------------------------------------------------------- ~

	Writing optimization data to binary file.
	Final energy is   -381.4692813018542
	Final (previous) structure:
	Cartesian Geometry (in Angstrom)
	    C    -0.0346870252   0.0009776417  -0.1770075769
	    C    -0.0055459830   1.2182172659   0.5319470574
	    C     0.0067555310   1.2133543977   1.9221618318
	    C     0.0052303767   0.0010187715   2.6188340064
	    C    -0.0048413086  -1.2114274410   1.9231803287
	    C    -0.0162098818  -1.2161773407   0.5326853915
	    C     0.0048935368  -0.0050954873  -1.6428564771
	    H    -0.0607949268   2.1686035038   0.0090792654
	    H     0.0078298247   2.1541651022   2.4627794811
	    H     0.0162112156   0.0014461144   3.7044083085
	    H     0.0139789393  -2.1519865123   2.4639083688
	    H     0.0407875618  -2.1660877254   0.0091163567
	    N     0.4581333073   1.0540326826  -2.3118085524
	    N    -0.4623880642  -1.0503138373  -2.3231934048
	    H    -0.3865060340  -1.1229657321  -3.3305545151
	    H    -0.9938752241  -1.7708325463  -1.8538663548
	    H     0.9916330845   1.7686068062  -1.8356274035
	    H     0.4193950700   1.1144643363  -3.3221851118
	Saving final (previous) structure.
	Removing binary optimization data file.
			--------------------------
			 OPTKING Finished Execution 
			--------------------------

    Final optimized geometry and variables:
    Molecular point group: c1
    Full point group: C1

    Geometry (in Angstrom), charge = 1, multiplicity = 1:

    C           -0.034687025244     0.000977641722    -0.177007576900
    C           -0.005545983002     1.218217265877     0.531947057447
    C            0.006755530951     1.213354397665     1.922161831777
    C            0.005230376690     0.001018771540     2.618834006404
    C           -0.004841308630    -1.211427440969     1.923180328737
    C           -0.016209881822    -1.216177340676     0.532685391527
    C            0.004893536809    -0.005095487286    -1.642856477123
    H           -0.060794926817     2.168603503812     0.009079265402
    H            0.007829824748     2.154165102175     2.462779481146
    H            0.016211215602     0.001446114438     3.704408308528
    H            0.013978939255    -2.151986512299     2.463908368830
    H            0.040787561833    -2.166087725378     0.009116356674
    N            0.458133307346     1.054032682622    -2.311808552425
    N           -0.462388064166    -1.050313837292    -2.323193404795
    H           -0.386506033976    -1.122965732099    -3.330554515140
    H           -0.993875224074    -1.770832546293    -1.853866354814
    H            0.991633084532     1.768606806168    -1.835627403510
    H            0.419395069965     1.114464336273    -3.322185111764

	Removing binary optimization data file.
	Cleaning optimization helper files.


Properties will be evaluated at   0.000000,   0.000000,   0.000000 [a0]
OEProp: No title given, name of density matrix used for the following properties is 'SCF density'
  Nuclear Dipole Moment: [e a0]
     X:    -0.4678      Y:     0.0504      Z:     0.2187

  Electronic Dipole Moment: [e a0]
     X:     0.5056      Y:    -0.0671      Z:    -2.4124

  Dipole Moment: [e a0]
     X:     0.0377      Y:    -0.0167      Z:    -2.1937     Total:     2.1941

  Dipole Moment: [D]
     X:     0.0959      Y:    -0.0426      Z:    -5.5758     Total:     5.5768

  Quadrupole Moment: [D A]
    XX:   -52.2103     YY:   -35.4259     ZZ:   -12.8905
    XY:     5.2345     XZ:    -0.1486     YZ:     0.1582

  Traceless Quadrupole Moment: [D A]
    XX:   -18.7014     YY:    -1.9170     ZZ:    20.6184
    XY:     5.2345     XZ:    -0.1486     YZ:     0.1582

  Mulliken Charges: (a.u.)
   Center  Symbol    Alpha    Beta     Spin     Total
       1     C     2.94359  2.94359  0.00000  0.11282
       2     C     3.08606  3.08606  0.00000 -0.17212
       3     C     3.06203  3.06203  0.00000 -0.12405
       4     C     3.05129  3.05129  0.00000 -0.10259
       5     C     3.06161  3.06161  0.00000 -0.12323
       6     C     3.08504  3.08504  0.00000 -0.17007
       7     C     2.71246  2.71246  0.00000  0.57508
       8     H     0.41590  0.41590  0.00000  0.16821
       9     H     0.40511  0.40511  0.00000  0.18978
      10     H     0.40315  0.40315  0.00000  0.19371
      11     H     0.40510  0.40510  0.00000  0.18981
      12     H     0.41645  0.41645  0.00000  0.16710
      13     N     3.87018  3.87018  0.00000 -0.74037
      14     N     3.86873  3.86873  0.00000 -0.73746
      15     H     0.30585  0.30585  0.00000  0.38830
      16     H     0.30040  0.30040  0.00000  0.39921
      17     H     0.30113  0.30113  0.00000  0.39774
      18     H     0.30593  0.30593  0.00000  0.38814

   Total alpha = 32.00000, Total beta = 32.00000, Total charge =  1.00000


    Psi4 stopped on: Saturday, 29 September 2018 08:49PM
    Psi4 wall time for execution: 0:02:53.17

*** Psi4 exiting successfully. Buy a developer a beer!
