
    -----------------------------------------------------------------------
          Psi4: An Open-Source Ab Initio Electronic Structure Package
                               Psi4 1.2.1 release

                         Git: Rev {HEAD} 406f4de 


    R. M. Parrish, L. A. Burns, D. G. A. Smith, A. C. Simmonett,
    A. E. DePrince III, E. G. Hohenstein, U. Bozkaya, A. Yu. Sokolov,
    R. Di Remigio, R. M. Richard, J. F. Gonthier, A. M. James,
    H. R. McAlexander, A. Kumar, M. Saitow, X. Wang, B. P. Pritchard,
    P. Verma, H. F. Schaefer III, K. Patkowski, R. A. King, E. F. Valeev,
    F. A. Evangelista, J. M. Turney, T. D. Crawford, and C. D. Sherrill,
    J. Chem. Theory Comput. 13(7) pp 3185--3197 (2017).
    (doi: 10.1021/acs.jctc.7b00174)


                         Additional Contributions by
    P. Kraus, H. Kruse, M. H. Lechner, M. C. Schieber, and R. A. Shaw

    -----------------------------------------------------------------------


    Psi4 started on: Saturday, 29 September 2018 08:46PM

    Process ID: 4064
    Host:       rosa.prib.upf.edu
    PSIDATADIR: /shared/joao/test_parameterize/miniconda3/share/psi4
    Memory:     500.0 MiB
    Threads:    1
    
  ==> Input File <==

--------------------------------------------------------------------------
set_num_threads(4)
set_memory('3000 MB')

set { scf_mem_safety_factor 0.7 }

set { reference rks }
set { basis 6-31G* }

molecule MOL {
    1 1
    noreorient
    nocom
    symmetry c1
    C   -0.000000  -0.000000  -0.177864
    C    0.036678   1.219374   0.524165
    C    0.031765   1.213120   1.915444
    C    0.000000   0.000000   2.610107
    C   -0.031765  -1.213120   1.915444
    C   -0.036678  -1.219375   0.524165
    C   -0.000000   0.000000  -1.644734
    H    0.018170   2.164705  -0.010854
    H    0.042402   2.152895   2.457886
    H    0.000000   0.000000   3.695756
    H   -0.042402  -2.152895   2.457886
    H   -0.018170  -2.164705  -0.010853
    N   -0.165932   1.140612  -2.308460
    N    0.165932  -1.140612  -2.308461
    H    0.265775  -1.181463  -3.315997
    H    0.128637  -2.021932  -1.813317
    H   -0.128637   2.021932  -1.813316
    H   -0.265775   1.181463  -3.315997
}

set optking { frozen_dihedral = (" 2 1 7 13 ") }

set optking { dynamic_level = 1 
 geom_maxiter = 250
 print_trajectory_xyz_file = True }

energy, wfn = optimize('B3LYP-D3', return_wfn=True)

import os
os.chdir(os.environ['HTMD_PSI4_WORKDIR'])

oeprop(wfn, 'DIPOLE', 'QUADRUPOLE', 'MULLIKEN_CHARGES')

with open('psi4out.xyz', 'w') as f:
    f.write('18 ' )
    f.write('%.12f\n' % energy)
    f.write(MOL.save_string_xyz())
--------------------------------------------------------------------------
  Threads set to 4 by Python driver.

  Memory set to   2.794 GiB by Python driver.
gradient() will perform analytic gradient computation.

*** tstart() called on rosa.prib.upf.edu
*** at Sat Sep 29 20:46:13 2018

   => Loading Basis Set <=

    Name: 6-31G*
    Role: ORBITAL
    Keyword: BASIS
    atoms 1-7         entry C          line   111 file /shared/joao/test_parameterize/miniconda3/share/psi4/basis/6-31gs.gbs 
    atoms 8-12, 15-18 entry H          line    44 file /shared/joao/test_parameterize/miniconda3/share/psi4/basis/6-31gs.gbs 
    atoms 13-14       entry N          line   128 file /shared/joao/test_parameterize/miniconda3/share/psi4/basis/6-31gs.gbs 


         ---------------------------------------------------------
                                   SCF
            by Justin Turney, Rob Parrish, Andy Simmonett
                             and Daniel Smith
                              RKS Reference
                        4 Threads,   2861 MiB Core
         ---------------------------------------------------------

  ==> Geometry <==

    Molecular point group: c1
    Full point group: C1

    Geometry (in Angstrom), charge = 1, multiplicity = 1:

       Center              X                  Y                   Z               Mass       
    ------------   -----------------  -----------------  -----------------  -----------------
         C            0.000000000000     0.000000000000    -0.177864000000    12.000000000000
         C            0.036678000000     1.219374000000     0.524165000000    12.000000000000
         C            0.031765000000     1.213120000000     1.915444000000    12.000000000000
         C            0.000000000000     0.000000000000     2.610107000000    12.000000000000
         C           -0.031765000000    -1.213120000000     1.915444000000    12.000000000000
         C           -0.036678000000    -1.219375000000     0.524165000000    12.000000000000
         C            0.000000000000     0.000000000000    -1.644734000000    12.000000000000
         H            0.018170000000     2.164705000000    -0.010854000000     1.007825032070
         H            0.042402000000     2.152895000000     2.457886000000     1.007825032070
         H            0.000000000000     0.000000000000     3.695756000000     1.007825032070
         H           -0.042402000000    -2.152895000000     2.457886000000     1.007825032070
         H           -0.018170000000    -2.164705000000    -0.010853000000     1.007825032070
         N           -0.165932000000     1.140612000000    -2.308460000000    14.003074004780
         N            0.165932000000    -1.140612000000    -2.308461000000    14.003074004780
         H            0.265775000000    -1.181463000000    -3.315997000000     1.007825032070
         H            0.128637000000    -2.021932000000    -1.813317000000     1.007825032070
         H           -0.128637000000     2.021932000000    -1.813316000000     1.007825032070
         H           -0.265775000000     1.181463000000    -3.315997000000     1.007825032070

  Running in c1 symmetry.

  Rotational constants: A =      0.12190  B =      0.04071  C =      0.03062 [cm^-1]
  Rotational constants: A =   3654.48783  B =   1220.43136  C =    917.81700 [MHz]
  Nuclear repulsion =  417.689226956341088

  Charge       = 1
  Multiplicity = 1
  Electrons    = 64
  Nalpha       = 32
  Nbeta        = 32

  ==> Algorithm <==

  SCF Algorithm Type is DF.
  DIIS enabled.
  MOM disabled.
  Fractional occupation disabled.
  Guess Type is SAD.
  Energy threshold   = 1.00e-08
  Density threshold  = 1.00e-08
  Integral threshold = 0.00e+00

  ==> Primary Basis <==

  Basis Set: 6-31G*
    Blend: 6-31G*
    Number of shells: 72
    Number of basis function: 153
    Number of Cartesian functions: 153
    Spherical Harmonics?: false
    Max angular momentum: 2

  ==> DFT Potential <==

   => Composite Functional: B3LYP-D3ZERO <= 

    B3LYP-d3zero Hyb-GGA Exchange-Correlation Functional

    P. J. Stephens, F. J. Devlin, C. F. Chabalowski, and M. J. Frisch, J. Phys. Chem. 98, 11623 (1994)

    Deriv               =              1
    GGA                 =           TRUE
    Meta                =          FALSE

    Exchange Hybrid     =           TRUE
    MP2 Hybrid          =          FALSE

   => Exchange Functionals <=

    0.0800   Slater exchange
    0.7200         Becke 88

   => Exact (HF) Exchange <=

    0.2000               HF 

   => Correlation Functionals <=

    0.1900   Vosko, Wilk & Nusair (VWN5_RPA)
    0.8100   Lee, Yang & Parr

   => Molecular Quadrature <=

    Radial Scheme       =       TREUTLER
    Pruning Scheme      =           FLAT
    Nuclear Scheme      =       TREUTLER

    BS radius alpha     =              1
    Pruning alpha       =              1
    Radial Points       =             75
    Spherical Points    =            302
    Total Points        =         396504
    Total Blocks        =           2951
    Max Points          =            256
    Max Functions       =            149

   => -D3ZERO: Empirical Dispersion <=

    Grimme's -D3 (zero-damping) Dispersion Correction
    Grimme S.; Antony J.; Ehrlich S.; Krieg H. (2010), J. Chem. Phys., 132: 154104

        S6 =   1.000000E+00
        S8 =   1.703000E+00
       SR6 =   1.261000E+00
       SR8 =   1.000000E+00
    ALPHA6 =   1.400000E+01

   => Loading Basis Set <=

    Name: (6-31G* AUX)
    Role: JKFIT
    Keyword: DF_BASIS_SCF
    atoms 1-7         entry C          line   121 file /shared/joao/test_parameterize/miniconda3/share/psi4/basis/cc-pvdz-jkfit.gbs 
    atoms 8-12, 15-18 entry H          line    51 file /shared/joao/test_parameterize/miniconda3/share/psi4/basis/cc-pvdz-jkfit.gbs 
    atoms 13-14       entry N          line   171 file /shared/joao/test_parameterize/miniconda3/share/psi4/basis/cc-pvdz-jkfit.gbs 

  ==> Pre-Iterations <==

   -------------------------------------------------------
    Irrep   Nso     Nmo     Nalpha   Nbeta   Ndocc  Nsocc
   -------------------------------------------------------
     A        153     153       0       0       0       0
   -------------------------------------------------------
    Total     153     153      32      32      32       0
   -------------------------------------------------------

  ==> Integral Setup <==

  ==> DiskDFJK: Density-Fitted J/K Matrices <==

    J tasked:                  Yes
    K tasked:                  Yes
    wK tasked:                  No
    OpenMP threads:              4
    Integrals threads:           4
    Memory (MB):              2002
    Algorithm:                Core
    Integral Cache:           NONE
    Schwarz Cutoff:          1E-12
    Fitting Condition:       1E-12

   => Auxiliary Basis Set <=

  Basis Set: (6-31G* AUX)
    Blend: CC-PVDZ-JKFIT
    Number of shells: 297
    Number of basis function: 954
    Number of Cartesian functions: 954
    Spherical Harmonics?: false
    Max angular momentum: 3

  Minimum eigenvalue in the overlap matrix is 4.7264302649E-04.
  Using Symmetric Orthogonalization.

  SCF Guess: Superposition of Atomic Densities via on-the-fly atomic UHF.

  ==> Iterations <==

                           Total Energy        Delta E     RMS |[F,P]|

   @DF-RKS iter   0:  -379.47473193456909   -3.79475e+02   6.66831e-02 
   @DF-RKS iter   1:  -380.99847266888844   -1.52374e+00   1.24674e-02 
   @DF-RKS iter   2:  -380.88482061087797    1.13652e-01   1.39187e-02 DIIS
   @DF-RKS iter   3:  -381.45163398223684   -5.66813e-01   2.05860e-03 DIIS
   @DF-RKS iter   4:  -381.46088152593876   -9.24754e-03   8.91607e-04 DIIS
   @DF-RKS iter   5:  -381.46286693702950   -1.98541e-03   2.51230e-04 DIIS
   @DF-RKS iter   6:  -381.46302472210641   -1.57785e-04   8.76970e-05 DIIS
   @DF-RKS iter   7:  -381.46304583780699   -2.11157e-05   2.40701e-05 DIIS
   @DF-RKS iter   8:  -381.46304762084668   -1.78304e-06   6.48314e-06 DIIS
   @DF-RKS iter   9:  -381.46304775102510   -1.30178e-07   2.17040e-06 DIIS
   @DF-RKS iter  10:  -381.46304776434516   -1.33201e-08   6.38771e-07 DIIS
   @DF-RKS iter  11:  -381.46304776539654   -1.05138e-09   1.77429e-07 DIIS
   @DF-RKS iter  12:  -381.46304776548533   -8.87894e-11   8.10637e-08 DIIS
   @DF-RKS iter  13:  -381.46304776550875   -2.34195e-11   1.09436e-08 DIIS
   @DF-RKS iter  14:  -381.46304776550915   -3.97904e-13   6.15952e-09 DIIS

  ==> Post-Iterations <==

    Orbital Energies [Eh]
    ---------------------

    Doubly Occupied:                                                      

       1A    -14.565494     2A    -14.565487     3A    -10.497249  
       4A    -10.376520     5A    -10.362661     6A    -10.362651  
       7A    -10.346837     8A    -10.344397     9A    -10.344337  
      10A     -1.183250    11A     -1.091848    12A     -1.017962  
      13A     -0.929028    14A     -0.907415    15A     -0.848311  
      16A     -0.786056    17A     -0.780358    18A     -0.739461  
      19A     -0.737846    20A     -0.690113    21A     -0.668555  
      22A     -0.634222    23A     -0.609641    24A     -0.602802  
      25A     -0.581040    26A     -0.580959    27A     -0.518080  
      28A     -0.511127    29A     -0.503302    30A     -0.471629  
      31A     -0.412771    32A     -0.408984  

    Virtual:                                                              

      33A     -0.223625    34A     -0.157007    35A     -0.117230  
      36A     -0.116392    37A     -0.079395    38A     -0.072104  
      39A     -0.044490    40A     -0.025844    41A      0.013652  
      42A      0.028156    43A      0.029956    44A      0.066581  
      45A      0.083968    46A      0.096108    47A      0.116292  
      48A      0.135243    49A      0.150493    50A      0.188104  
      51A      0.244275    52A      0.250478    53A      0.303628  
      54A      0.344825    55A      0.349944    56A      0.374171  
      57A      0.393620    58A      0.395551    59A      0.416848  
      60A      0.425102    61A      0.434238    62A      0.447084  
      63A      0.455927    64A      0.470486    65A      0.471462  
      66A      0.474729    67A      0.481418    68A      0.489296  
      69A      0.493393    70A      0.538455    71A      0.569219  
      72A      0.587803    73A      0.630128    74A      0.643301  
      75A      0.663960    76A      0.697902    77A      0.698144  
      78A      0.703075    79A      0.716884    80A      0.753727  
      81A      0.777966    82A      0.789783    83A      0.799018  
      84A      0.821737    85A      0.854397    86A      0.875165  
      87A      0.899716    88A      0.922149    89A      0.966206  
      90A      1.022862    91A      1.051515    92A      1.058007  
      93A      1.067706    94A      1.078836    95A      1.139174  
      96A      1.180488    97A      1.187299    98A      1.274335  
      99A      1.277071   100A      1.314785   101A      1.320933  
     102A      1.340112   103A      1.353245   104A      1.384419  
     105A      1.390918   106A      1.455692   107A      1.524648  
     108A      1.597333   109A      1.638601   110A      1.652271  
     111A      1.666070   112A      1.735268   113A      1.751468  
     114A      1.800014   115A      1.813336   116A      1.872988  
     117A      1.898606   118A      1.910546   119A      1.927160  
     120A      1.981723   121A      1.988492   122A      2.025393  
     123A      2.037573   124A      2.065520   125A      2.109164  
     126A      2.120014   127A      2.150690   128A      2.227406  
     129A      2.259881   130A      2.284968   131A      2.322977  
     132A      2.359737   133A      2.441367   134A      2.481073  
     135A      2.498054   136A      2.498407   137A      2.521092  
     138A      2.590021   139A      2.592506   140A      2.660538  
     141A      2.740780   142A      2.887574   143A      3.013893  
     144A      3.257610   145A      3.648546   146A      3.709507  
     147A      3.904415   148A      3.942030   149A      3.961615  
     150A      4.034686   151A      4.169689   152A      4.259029  
     153A      4.549277  

    Final Occupation by Irrep:
              A 
    DOCC [    32 ]

  Energy converged.

  @DF-RKS Final Energy:  -381.46304776550915

   => Energetics <=

    Nuclear Repulsion Energy =            417.6892269563410878
    One-Electron Energy =               -1330.3927585412918688
    Two-Electron Energy =                 575.6638927849650145
    DFT Exchange-Correlation Energy =     -44.4120163655234137
    Empirical Dispersion Energy =          -0.0113926000000000
    VV10 Nonlocal Energy =                  0.0000000000000000
    Total Energy =                       -381.4630477655091454



Properties will be evaluated at   0.000000,   0.000000,   0.000000 [a0]

Properties computed using the SCF density matrix

  Nuclear Dipole Moment: [e a0]
     X:     0.0000      Y:    -0.0000      Z:     0.0248

  Electronic Dipole Moment: [e a0]
     X:    -0.0000      Y:     0.0000      Z:    -2.1732

  Dipole Moment: [e a0]
     X:    -0.0000      Y:     0.0000      Z:    -2.1485     Total:     2.1485

  Dipole Moment: [D]
     X:    -0.0000      Y:     0.0000      Z:    -5.4608     Total:     5.4608


*** tstop() called on rosa.prib.upf.edu at Sat Sep 29 20:46:42 2018
Module time:
	user time   =     103.37 seconds =       1.72 minutes
	system time =       1.81 seconds =       0.03 minutes
	total time  =         29 seconds =       0.48 minutes
Total time:
	user time   =     103.37 seconds =       1.72 minutes
	system time =       1.81 seconds =       0.03 minutes
	total time  =         29 seconds =       0.48 minutes

*** tstart() called on rosa.prib.upf.edu
*** at Sat Sep 29 20:46:42 2018


         ------------------------------------------------------------
                                   SCF GRAD                          
                          Rob Parrish, Justin Turney,                
                       Andy Simmonett, and Alex Sokolov              
         ------------------------------------------------------------

  ==> Geometry <==

    Molecular point group: c1
    Full point group: C1

    Geometry (in Angstrom), charge = 1, multiplicity = 1:

       Center              X                  Y                   Z               Mass       
    ------------   -----------------  -----------------  -----------------  -----------------
         C            0.000000000000     0.000000000000    -0.177864000000    12.000000000000
         C            0.036678000000     1.219374000000     0.524165000000    12.000000000000
         C            0.031765000000     1.213120000000     1.915444000000    12.000000000000
         C            0.000000000000     0.000000000000     2.610107000000    12.000000000000
         C           -0.031765000000    -1.213120000000     1.915444000000    12.000000000000
         C           -0.036678000000    -1.219375000000     0.524165000000    12.000000000000
         C            0.000000000000     0.000000000000    -1.644734000000    12.000000000000
         H            0.018170000000     2.164705000000    -0.010854000000     1.007825032070
         H            0.042402000000     2.152895000000     2.457886000000     1.007825032070
         H            0.000000000000     0.000000000000     3.695756000000     1.007825032070
         H           -0.042402000000    -2.152895000000     2.457886000000     1.007825032070
         H           -0.018170000000    -2.164705000000    -0.010853000000     1.007825032070
         N           -0.165932000000     1.140612000000    -2.308460000000    14.003074004780
         N            0.165932000000    -1.140612000000    -2.308461000000    14.003074004780
         H            0.265775000000    -1.181463000000    -3.315997000000     1.007825032070
         H            0.128637000000    -2.021932000000    -1.813317000000     1.007825032070
         H           -0.128637000000     2.021932000000    -1.813316000000     1.007825032070
         H           -0.265775000000     1.181463000000    -3.315997000000     1.007825032070

  Nuclear repulsion =  417.689226956341088

  ==> Basis Set <==

  Basis Set: 6-31G*
    Blend: 6-31G*
    Number of shells: 72
    Number of basis function: 153
    Number of Cartesian functions: 153
    Spherical Harmonics?: false
    Max angular momentum: 2

  ==> DFJKGrad: Density-Fitted SCF Gradients <==

    Gradient:                    1
    J tasked:                  Yes
    K tasked:                  Yes
    wK tasked:                  No
    OpenMP threads:              4
    Integrals threads:           4
    Memory (MB):              2002
    Schwarz Cutoff:          0E+00
    Fitting Condition:       1E-12

   => Auxiliary Basis Set <=

  Basis Set: (6-31G* AUX)
    Blend: CC-PVDZ-JKFIT
    Number of shells: 297
    Number of basis function: 954
    Number of Cartesian functions: 954
    Spherical Harmonics?: false
    Max angular momentum: 3

  ==> DFT Potential <==

   => Composite Functional: B3LYP-D3ZERO <= 

    B3LYP-d3zero Hyb-GGA Exchange-Correlation Functional

    P. J. Stephens, F. J. Devlin, C. F. Chabalowski, and M. J. Frisch, J. Phys. Chem. 98, 11623 (1994)

    Deriv               =              1
    GGA                 =           TRUE
    Meta                =          FALSE

    Exchange Hybrid     =           TRUE
    MP2 Hybrid          =          FALSE

   => Exchange Functionals <=

    0.0800   Slater exchange
    0.7200         Becke 88

   => Exact (HF) Exchange <=

    0.2000               HF 

   => Correlation Functionals <=

    0.1900   Vosko, Wilk & Nusair (VWN5_RPA)
    0.8100   Lee, Yang & Parr

   => Molecular Quadrature <=

    Radial Scheme       =       TREUTLER
    Pruning Scheme      =           FLAT
    Nuclear Scheme      =       TREUTLER

    BS radius alpha     =              1
    Pruning alpha       =              1
    Radial Points       =             75
    Spherical Points    =            302
    Total Points        =         396504
    Total Blocks        =           2951
    Max Points          =            256
    Max Functions       =            149


  -Total Gradient:
     Atom            X                  Y                   Z
    ------   -----------------  -----------------  -----------------
       1       -0.000000003750     0.000000777004     0.000624542704
       2        0.005547423051     0.004919393980    -0.002712843058
       3        0.000109170333    -0.001848068811     0.001167689637
       4       -0.000000000545    -0.000000062390     0.000589819587
       5       -0.000109164047     0.001848313935     0.001167840004
       6       -0.005547429726    -0.004920896176    -0.002713219972
       7       -0.000000042631     0.000000177908    -0.001001117515
       8       -0.002443800420    -0.001170333870    -0.005362771647
       9       -0.000641524909     0.000100029520    -0.000063272648
      10        0.000000000155     0.000000005390     0.000116480154
      11        0.000641523411    -0.000100056263    -0.000063317332
      12        0.002443783330     0.001171064522    -0.005362277531
      13       -0.003213911838     0.000320429308     0.003280237276
      14        0.003214053784    -0.000320730660     0.003278948911
      15        0.002222363710    -0.000090878769    -0.000703371023
      16       -0.002940588108    -0.001159350108     0.004236510145
      17        0.002940590603     0.001159344778     0.004236498985
      18       -0.002222442508     0.000090840622    -0.000704211134


*** tstop() called on rosa.prib.upf.edu at Sat Sep 29 20:46:49 2018
Module time:
	user time   =      28.62 seconds =       0.48 minutes
	system time =       0.60 seconds =       0.01 minutes
	total time  =          7 seconds =       0.12 minutes
Total time:
	user time   =     132.08 seconds =       2.20 minutes
	system time =       2.42 seconds =       0.04 minutes
	total time  =         36 seconds =       0.60 minutes

			-----------------------------------------
			 OPTKING 2.0: for geometry optimizations 
			  - R.A. King,  Bethel University        
			-----------------------------------------
	At level 1: Red. Int., RFO, no backsteps, dynamic trust

	Internal coordinates to be generated automatically.
	Detected frag 1 with atoms:  1 2 3 4 5 6 7 8 9 10 11 12 13 14 15 16 17 18
	---Fragment 1 Bond Connectivity---
	 1 : 2 6 7
	 2 : 1 3 8
	 3 : 2 4 9
	 4 : 3 5 10
	 5 : 4 6 11
	 6 : 1 5 12
	 7 : 1 13 14
	 8 : 2
	 9 : 3
	 10 : 4
	 11 : 5
	 12 : 6
	 13 : 7 17 18
	 14 : 7 15 16
	 15 : 14
	 16 : 14
	 17 : 13
	 18 : 13

	Assuming in current code that numbering for constraints corresponds to unified fragment.
	Frozen dihedral atom list: 
	     2     1     7    13
	---Fragment 1 Geometry and Gradient---
	 C           0.0000000000        0.0000000000       -0.3361142489
	 C           0.0693113751        2.3042829136        0.9905282984
	 C           0.0600271506        2.2924645663        3.6196645829
	 C           0.0000000000        0.0000000000        4.9323874075
	 C          -0.0600271506       -2.2924645663        3.6196645829
	 C          -0.0693113751       -2.3042848033        0.9905282984
	 C           0.0000000000        0.0000000000       -3.1080968214
	 H           0.0343363238        4.0906996085       -0.0205110874
	 H           0.0801281675        4.0683819429        4.6447314059
	 H           0.0000000000        0.0000000000        6.9839666940
	 H          -0.0801281675       -4.0683819429        4.6447314059
	 H          -0.0343363238       -4.0906996085       -0.0205091977
	 N          -0.3135660367        2.1554443039       -4.3623571887
	 N           0.3135660367       -2.1554443039       -4.3623590784
	 H           0.5022419630       -2.2326415061       -6.2663261875
	 H           0.2430887006       -3.8208977393       -3.4266725221
	 H          -0.2430887006        3.8208977393       -3.4266706324
	 H          -0.5022419630        2.2326415061       -6.2663261875
	            -0.0000000038        0.0000007770        0.0006245427
	             0.0055474231        0.0049193940       -0.0027128431
	             0.0001091703       -0.0018480688        0.0011676896
	            -0.0000000005       -0.0000000624        0.0005898196
	            -0.0001091640        0.0018483139        0.0011678400
	            -0.0055474297       -0.0049208962       -0.0027132200
	            -0.0000000426        0.0000001779       -0.0010011175
	            -0.0024438004       -0.0011703339       -0.0053627716
	            -0.0006415249        0.0001000295       -0.0000632726
	             0.0000000002        0.0000000054        0.0001164802
	             0.0006415234       -0.0001000563       -0.0000633173
	             0.0024437833        0.0011710645       -0.0053622775
	            -0.0032139118        0.0003204293        0.0032802373
	             0.0032140538       -0.0003207307        0.0032789489
	             0.0022223637       -0.0000908788       -0.0007033710
	            -0.0029405881       -0.0011593501        0.0042365101
	             0.0029405906        0.0011593448        0.0042364990
	            -0.0022224425        0.0000908406       -0.0007042111

	Previous optimization step data not found.  Starting new optimization.

	---Fragment 1 Intrafragment Coordinates---
	 - Coordinate -           - BOHR/RAD -       - ANG/DEG -
	 R(1,2)           =         2.659794	       1.407502
	 R(1,6)           =         2.659796	       1.407503
	 R(1,7)           =         2.771983	       1.466870
	 R(2,3)           =         2.629179	       1.391302
	 R(2,8)           =         2.052976	       1.086388
	 R(3,4)           =         2.642393	       1.398294
	 R(3,9)           =         2.050622	       1.085142
	 R(4,5)           =         2.642393	       1.398294
	 R(4,10)          =         2.051579	       1.085649
	 R(5,6)           =         2.629179	       1.391302
	 R(5,11)          =         2.050622	       1.085142
	 R(6,12)          =         2.052973	       1.086386
	 R(7,13)          =         2.513450	       1.330061
	 R(7,14)          =         2.513451	       1.330061
	 R(13,17)         =         1.911599	       1.011575
	 R(13,18)         =         1.914851	       1.013296
	 R(14,15)         =         1.914850	       1.013295
	 R(14,16)         =         1.911599	       1.011575
	 B(1,2,3)         =         2.088380	     119.655376
	 B(1,2,8)         =         2.103396	     120.515689
	 B(1,6,5)         =         2.088379	     119.655315
	 B(1,6,12)        =         2.103396	     120.515729
	 B(1,7,13)        =         2.093263	     119.935142
	 B(1,7,14)        =         2.093264	     119.935179
	 B(2,1,6)         =         2.097220	     120.161857
	 B(2,1,7)         =         2.092983	     119.919082
	 B(2,3,4)         =         2.095279	     120.050636
	 B(2,3,9)         =         2.089719	     119.732108
	 B(3,2,8)         =         2.090149	     119.756722
	 B(3,4,5)         =         2.101793	     120.423859
	 B(3,4,10)        =         2.090696	     119.788070
	 B(4,3,9)         =         2.098135	     120.214297
	 B(4,5,6)         =         2.095280	     120.050677
	 B(4,5,11)        =         2.098135	     120.214297
	 B(5,4,10)        =         2.090696	     119.788070
	 B(5,6,12)        =         2.090149	     119.756743
	 B(6,1,7)         =         2.092982	     119.919061
	 B(6,5,11)        =         2.089719	     119.732067
	 B(7,13,17)       =         2.092412	     119.886374
	 B(7,13,18)       =         2.144860	     122.891406
	 B(7,14,15)       =         2.144860	     122.891446
	 B(7,14,16)       =         2.092411	     119.886337
	 B(13,7,14)       =         2.096658	     120.129680
	 B(15,14,16)      =         2.043399	     117.078156
	 B(17,13,18)      =         2.043399	     117.078158
	 D(1,2,3,4)       =         0.007799	       0.446825
	 D(1,2,3,9)       =        -3.122896	    -178.928735
	 D(1,6,5,4)       =         0.007799	       0.446822
	 D(1,6,5,11)      =        -3.122896	    -178.928737
	 D(1,7,13,17)     =         0.187845	      10.762707
	 D(1,7,13,18)     =        -3.032166	    -173.730292
	 D(1,7,14,15)     =        -3.032165	    -173.730283
	 D(1,7,14,16)     =         0.187845	      10.762703
	 D(2,1,6,5)       =        -0.003906	      -0.223802
	 D(2,1,6,12)      =        -3.091437	    -177.126283
	*D(2,1,7,13)      =        -0.174533	     -10.000014
	 D(2,1,7,14)      =         2.967059	     169.999986
	 D(2,3,4,5)       =        -0.003942	      -0.225875
	 D(2,3,4,10)      =         3.137650	     179.774125
	 D(3,2,1,6)       =        -0.003906	      -0.223806
	 D(3,2,1,7)       =         3.137687	     179.776196
	 D(3,4,5,6)       =        -0.003942	      -0.225874
	 D(3,4,5,11)      =         3.126699	     179.146646
	 D(4,3,2,8)       =         3.095744	     177.373058
	 D(4,5,6,12)      =         3.095744	     177.373055
	 D(5,4,3,9)       =         3.126699	     179.146646
	 D(5,6,1,7)       =         3.137687	     179.776197
	 D(6,1,2,8)       =        -3.091437	    -177.126287
	 D(6,1,7,13)      =         2.967060	     169.999987
	 D(6,1,7,14)      =        -0.174533	     -10.000013
	 D(6,5,4,10)      =         3.137650	     179.774126
	 D(7,1,2,8)       =         0.050156	       2.873714
	 D(7,1,6,12)      =         0.050156	       2.873716
	 D(8,2,3,9)       =        -0.034950	      -2.002503
	 D(9,3,4,10)      =        -0.014894	      -0.853354
	 D(10,4,5,11)     =        -0.014894	      -0.853354
	 D(11,5,6,12)     =        -0.034950	      -2.002504
	 D(13,7,14,15)    =         0.109427	       6.269717
	 D(13,7,14,16)    =        -2.953748	    -169.237297
	 D(14,7,13,17)    =        -2.953748	    -169.237293
	 D(14,7,13,18)    =         0.109427	       6.269708

	Current energy   :      -381.4630477655

	Generating empirical Hessian (Schlegel '84) for each fragment.
	Taking RFO optimization step.
	Going to follow RFO solution 1.
	Using RFO vector 1.
	Norm of target step-size    0.28086
	Projected energy change by RFO approximation:        -0.0047824873

	Back-transformation to cartesian coordinates...
	Successfully converged to displaced geometry.

	Back-transformation to cartesian coordinates to adjust frozen coordinates...
	Successfully converged to displaced geometry.

	--- Internal Coordinate Step in ANG or DEG, aJ/ANG or AJ/DEG ---
	 ---------------------------------------------------------------------------
	   Coordinate                Previous        Force       Change         New 
	   ----------                --------       ------       ------       ------
	    1 R(1,2)          =      1.407502     0.030609     0.004556     1.412059
	    2 R(1,6)          =      1.407503     0.030604     0.004560     1.412063
	    3 R(1,7)          =      1.466870     0.103962     0.018209     1.485079
	    4 R(2,3)          =      1.391302    -0.012187    -0.001651     1.389650
	    5 R(2,8)          =      1.086388    -0.013714    -0.002461     1.083926
	    6 R(3,4)          =      1.398294    -0.019682    -0.002900     1.395394
	    7 R(3,9)          =      1.085142    -0.000399    -0.000071     1.085071
	    8 R(4,5)          =      1.398294    -0.019681    -0.002896     1.395398
	    9 R(4,10)         =      1.085649    -0.000954    -0.000171     1.085478
	   10 R(5,6)          =      1.391302    -0.012189    -0.001643     1.389658
	   11 R(5,11)         =      1.085142    -0.000399    -0.000071     1.085071
	   12 R(6,12)         =      1.086386    -0.013707    -0.002460     1.083926
	   13 R(7,13)         =      1.330061     0.014338     0.001534     1.331594
	   14 R(7,14)         =      1.330061     0.014334     0.001533     1.331594
	   15 R(13,17)        =      1.011575    -0.026296    -0.003651     1.007924
	   16 R(13,18)        =      1.013296    -0.007609    -0.001063     1.012233
	   17 R(14,15)        =      1.013295    -0.007602    -0.001062     1.012233
	   18 R(14,16)        =      1.011575    -0.026296    -0.003651     1.007924
	   19 B(1,2,3)        =    119.655376     0.000337     1.130005   120.785381
	   20 B(1,2,8)        =    120.515689     0.000247     1.337152   121.852841
	   21 B(1,6,5)        =    119.655315     0.000337     1.127114   120.782429
	   22 B(1,6,12)       =    120.515729     0.000247     1.342244   121.857974
	   23 B(1,7,13)       =    119.935142     0.000614     1.804061   121.739203
	   24 B(1,7,14)       =    119.935179     0.000614     1.808229   121.743408
	   25 B(2,1,6)        =    120.161857    -0.000679    -1.978060   118.183797
	   26 B(2,1,7)        =    119.919082     0.000339     0.991522   120.910603
	   27 B(2,3,4)        =    120.050636     0.000043     0.052547   120.103183
	   28 B(2,3,9)        =    119.732108    -0.000014     0.013284   119.745392
	   29 B(3,2,8)        =    119.756722    -0.000578    -2.399191   117.357531
	   30 B(3,4,5)        =    120.423859    -0.000081    -0.397466   120.026394
	   31 B(3,4,10)       =    119.788070     0.000040     0.198564   119.986635
	   32 B(4,3,9)        =    120.214297    -0.000029    -0.063028   120.151269
	   33 B(4,5,6)        =    120.050677     0.000043     0.054450   120.105127
	   34 B(4,5,11)       =    120.214297    -0.000029    -0.065370   120.148926
	   35 B(5,4,10)       =    119.788070     0.000040     0.198899   119.986970
	   36 B(5,6,12)       =    119.756743    -0.000578    -2.401589   117.355154
	   37 B(6,1,7)        =    119.919061     0.000339     0.986403   120.905465
	   38 B(6,5,11)       =    119.732067    -0.000014     0.013685   119.745751
	   39 B(7,13,17)      =    119.886374     0.000357     1.597840   121.484213
	   40 B(7,13,18)      =    122.891406    -0.000195    -0.928052   121.963354
	   41 B(7,14,15)      =    122.891446    -0.000195    -0.924637   121.966809
	   42 B(7,14,16)      =    119.886337     0.000357     1.601449   121.487786
	   43 B(13,7,14)      =    120.129680    -0.001228    -3.612421   116.517259
	   44 B(15,14,16)     =    117.078156    -0.000160    -0.636905   116.441251
	   45 B(17,13,18)     =    117.078158    -0.000160    -0.629917   116.448241
	   46 D(1,2,3,4)      =      0.446825    -0.000012    -1.524979    -1.078155
	   47 D(1,2,3,9)      =   -178.928735    -0.000016    -2.005675  -180.934411
	   48 D(1,6,5,4)      =      0.446822    -0.000012    -1.575293    -1.128471
	   49 D(1,6,5,11)     =   -178.928737    -0.000016    -2.039019  -180.967757
	   50 D(1,7,13,17)    =     10.762707    -0.000034    -4.165944     6.596764
	   51 D(1,7,13,18)    =   -173.730292    -0.000028    -3.516682  -177.246974
	   52 D(1,7,14,15)    =   -173.730283    -0.000029    -3.645721  -177.376004
	   53 D(1,7,14,16)    =     10.762703    -0.000034    -4.295413     6.467290
	   54 D(2,1,6,5)      =     -0.223802     0.000006     0.837360     0.613558
	   55 D(2,1,6,12)     =   -177.126283    -0.000019    -3.047433  -180.173715
	   56 *D(2,1,7,13)    =    -10.000014    -0.000000    -0.000000   -10.000014
	   57 D(2,1,7,14)     =    169.999986     0.000001     0.135997   170.135983
	   58 D(2,3,4,5)      =     -0.225875     0.000006     0.788293     0.562418
	   59 D(2,3,4,10)     =    179.774125     0.000006     0.771057   180.545182
	   60 D(3,2,1,6)      =     -0.223806     0.000006     0.714141     0.490335
	   61 D(3,2,1,7)      =    179.776196     0.000006     0.846759   180.622954
	   62 D(3,4,5,6)      =     -0.225874     0.000006     0.762337     0.536463
	   63 D(3,4,5,11)     =    179.146646     0.000010     1.228449   180.375096
	   64 D(4,3,2,8)      =    177.373058     0.000020     2.284812   179.657869
	   65 D(4,5,6,12)     =    177.373055     0.000019     2.251339   179.624394
	   66 D(5,4,3,9)      =    179.146646     0.000010     1.271440   180.418086
	   67 D(5,6,1,7)      =    179.776197     0.000006     0.704749   180.480946
	   68 D(6,1,2,8)      =   -177.126287    -0.000020    -3.152981  -180.279268
	   69 D(6,1,7,13)     =    169.999987     0.000001     0.136238   170.136225
	   70 D(6,1,7,14)     =    -10.000013     0.000002     0.272235    -9.727777
	   71 D(6,5,4,10)     =    179.774126     0.000006     0.779573   180.553699
	   72 D(7,1,2,8)      =      2.873714    -0.000019    -3.020363    -0.146649
	   73 D(7,1,6,12)     =      2.873716    -0.000020    -3.180043    -0.306328
	   74 D(8,2,3,9)      =     -2.002503     0.000016     1.804116    -0.198387
	   75 D(9,3,4,10)     =     -0.853354     0.000010     1.254203     0.400850
	   76 D(10,4,5,11)    =     -0.853354     0.000010     1.245686     0.392332
	   77 D(11,5,6,12)    =     -2.002504     0.000016     1.787612    -0.214892
	   78 D(13,7,14,15)   =      6.269717    -0.000028    -3.516464     2.753253
	   79 D(13,7,14,16)   =   -169.237297    -0.000034    -4.166156  -173.403452
	   80 D(14,7,13,17)   =   -169.237293    -0.000034    -4.295195  -173.532487
	   81 D(14,7,13,18)   =      6.269708    -0.000029    -3.645933     2.623775
	 ---------------------------------------------------------------------------
	Successfully symmetrized geometry.

  ==> Convergence Check <==

  Measures of convergence in internal coordinates in au.
  Criteria marked as inactive (o), active & met (*), and active & unmet ( ).
  --------------------------------------------------------------------------------------------- ~
   Step     Total Energy     Delta E     MAX Force     RMS Force      MAX Disp      RMS Disp    ~
  --------------------------------------------------------------------------------------------- ~
    Convergence Criteria    1.00e-06 *    3.00e-04 *             o    1.20e-03 *             o  ~
  --------------------------------------------------------------------------------------------- ~
      1    -381.46304777   -3.81e+02      1.61e-02      3.57e-03 o    7.50e-02      3.12e-02 o  ~
  ---------------------------------------------------------------------------------------------

	Writing optimization data to binary file.
	Structure for next step:
	Cartesian Geometry (in Angstrom)
	    C    -0.0006454313   0.0001394956  -0.1697523951
	    C     0.0108650314   1.2115401561   0.5557028991
	    C     0.0207709167   1.2083373759   1.9453142191
	    C    -0.0032806112  -0.0001113458   2.6425919735
	    C    -0.0254870556  -1.2084372841   1.9450321136
	    C    -0.0124502081  -1.2114224869   0.5554380340
	    C     0.0026042566   0.0002054755  -1.6548281464
	    H     0.0247261070   2.1752244365   0.0597019506
	    H     0.0449090472   2.1489762817   2.4856795740
	    H    -0.0044336854  -0.0002118912   3.7280695336
	    H    -0.0503504823  -2.1491678625   2.4852049537
	    H    -0.0244142757  -2.1750633969   0.0593035678
	    N    -0.1804430436   1.1175491186  -2.3556708464
	    N     0.1860565782  -1.1174601929  -2.3550512968
	    H     0.2277832545  -1.1154625744  -3.3664217164
	    H     0.2336258096  -2.0184100258  -1.9056772624
	    H    -0.2301802946   2.0184811219  -1.9064958251
	    H    -0.2196559134   1.1152925986  -3.3671413304
			--------------------------
			 OPTKING Finished Execution 
			--------------------------

    Structure for next step:
    Molecular point group: c1
    Full point group: C1

    Geometry (in Angstrom), charge = 1, multiplicity = 1:

    C           -0.000645431319     0.000139495632    -0.169752395064
    C            0.010865031425     1.211540156133     0.555702899112
    C            0.020770916689     1.208337375905     1.945314219090
    C           -0.003280611152    -0.000111345835     2.642591973501
    C           -0.025487055596    -1.208437284113     1.945032113570
    C           -0.012450208133    -1.211422486943     0.555438033965
    C            0.002604256636     0.000205475533    -1.654828146423
    H            0.024726107046     2.175224436536     0.059701950617
    H            0.044909047228     2.148976281728     2.485679573960
    H           -0.004433685418    -0.000211891223     3.728069533619
    H           -0.050350482325    -2.149167862484     2.485204953697
    H           -0.024414275720    -2.175063396933     0.059303567796
    N           -0.180443043632     1.117549118647    -2.355670846405
    N            0.186056578225    -1.117460192908    -2.355051296763
    H            0.227783254503    -1.115462574394    -3.366421716353
    H            0.233625809554    -2.018410025792    -1.905677262433
    H           -0.230180294583     2.018481121936    -1.906495825115
    H           -0.219655913427     1.115292598574    -3.367141330370

gradient() will perform analytic gradient computation.

*** tstart() called on rosa.prib.upf.edu
*** at Sat Sep 29 20:46:50 2018

   => Loading Basis Set <=

    Name: 6-31G*
    Role: ORBITAL
    Keyword: BASIS
    atoms 1-7         entry C          line   111 file /shared/joao/test_parameterize/miniconda3/share/psi4/basis/6-31gs.gbs 
    atoms 8-12, 15-18 entry H          line    44 file /shared/joao/test_parameterize/miniconda3/share/psi4/basis/6-31gs.gbs 
    atoms 13-14       entry N          line   128 file /shared/joao/test_parameterize/miniconda3/share/psi4/basis/6-31gs.gbs 


         ---------------------------------------------------------
                                   SCF
            by Justin Turney, Rob Parrish, Andy Simmonett
                             and Daniel Smith
                              RKS Reference
                        4 Threads,   2861 MiB Core
         ---------------------------------------------------------

  ==> Geometry <==

    Molecular point group: c1
    Full point group: C1

    Geometry (in Angstrom), charge = 1, multiplicity = 1:

       Center              X                  Y                   Z               Mass       
    ------------   -----------------  -----------------  -----------------  -----------------
         C           -0.000645431319     0.000139495632    -0.169752395064    12.000000000000
         C            0.010865031425     1.211540156133     0.555702899112    12.000000000000
         C            0.020770916689     1.208337375905     1.945314219090    12.000000000000
         C           -0.003280611152    -0.000111345835     2.642591973501    12.000000000000
         C           -0.025487055596    -1.208437284113     1.945032113570    12.000000000000
         C           -0.012450208133    -1.211422486943     0.555438033965    12.000000000000
         C            0.002604256636     0.000205475533    -1.654828146423    12.000000000000
         H            0.024726107046     2.175224436536     0.059701950617     1.007825032070
         H            0.044909047228     2.148976281728     2.485679573960     1.007825032070
         H           -0.004433685418    -0.000211891223     3.728069533619     1.007825032070
         H           -0.050350482325    -2.149167862484     2.485204953697     1.007825032070
         H           -0.024414275720    -2.175063396933     0.059303567796     1.007825032070
         N           -0.180443043632     1.117549118647    -2.355670846405    14.003074004780
         N            0.186056578225    -1.117460192908    -2.355051296763    14.003074004780
         H            0.227783254503    -1.115462574394    -3.366421716353     1.007825032070
         H            0.233625809554    -2.018410025792    -1.905677262433     1.007825032070
         H           -0.230180294583     2.018481121936    -1.906495825115     1.007825032070
         H           -0.219655913427     1.115292598574    -3.367141330370     1.007825032070

  Running in c1 symmetry.

  Rotational constants: A =      0.12397  B =      0.03937  C =      0.02998 [cm^-1]
  Rotational constants: A =   3716.54294  B =   1180.38739  C =    898.77603 [MHz]
  Nuclear repulsion =  415.550027645498631

  Charge       = 1
  Multiplicity = 1
  Electrons    = 64
  Nalpha       = 32
  Nbeta        = 32

  ==> Algorithm <==

  SCF Algorithm Type is DF.
  DIIS enabled.
  MOM disabled.
  Fractional occupation disabled.
  Guess Type is READ.
  Energy threshold   = 1.00e-08
  Density threshold  = 1.00e-08
  Integral threshold = 0.00e+00

  ==> Primary Basis <==

  Basis Set: 6-31G*
    Blend: 6-31G*
    Number of shells: 72
    Number of basis function: 153
    Number of Cartesian functions: 153
    Spherical Harmonics?: false
    Max angular momentum: 2

  ==> DFT Potential <==

   => Composite Functional: B3LYP-D3ZERO <= 

    B3LYP-d3zero Hyb-GGA Exchange-Correlation Functional

    P. J. Stephens, F. J. Devlin, C. F. Chabalowski, and M. J. Frisch, J. Phys. Chem. 98, 11623 (1994)

    Deriv               =              1
    GGA                 =           TRUE
    Meta                =          FALSE

    Exchange Hybrid     =           TRUE
    MP2 Hybrid          =          FALSE

   => Exchange Functionals <=

    0.0800   Slater exchange
    0.7200         Becke 88

   => Exact (HF) Exchange <=

    0.2000               HF 

   => Correlation Functionals <=

    0.1900   Vosko, Wilk & Nusair (VWN5_RPA)
    0.8100   Lee, Yang & Parr

   => Molecular Quadrature <=

    Radial Scheme       =       TREUTLER
    Pruning Scheme      =           FLAT
    Nuclear Scheme      =       TREUTLER

    BS radius alpha     =              1
    Pruning alpha       =              1
    Radial Points       =             75
    Spherical Points    =            302
    Total Points        =         396548
    Total Blocks        =           2978
    Max Points          =            256
    Max Functions       =            148

   => -D3ZERO: Empirical Dispersion <=

    Grimme's -D3 (zero-damping) Dispersion Correction
    Grimme S.; Antony J.; Ehrlich S.; Krieg H. (2010), J. Chem. Phys., 132: 154104

        S6 =   1.000000E+00
        S8 =   1.703000E+00
       SR6 =   1.261000E+00
       SR8 =   1.000000E+00
    ALPHA6 =   1.400000E+01

   => Loading Basis Set <=

    Name: (6-31G* AUX)
    Role: JKFIT
    Keyword: DF_BASIS_SCF
    atoms 1-7         entry C          line   121 file /shared/joao/test_parameterize/miniconda3/share/psi4/basis/cc-pvdz-jkfit.gbs 
    atoms 8-12, 15-18 entry H          line    51 file /shared/joao/test_parameterize/miniconda3/share/psi4/basis/cc-pvdz-jkfit.gbs 
    atoms 13-14       entry N          line   171 file /shared/joao/test_parameterize/miniconda3/share/psi4/basis/cc-pvdz-jkfit.gbs 

  Reading orbitals from file 180, no projection.

  ==> Pre-Iterations <==

   -------------------------------------------------------
    Irrep   Nso     Nmo     Nalpha   Nbeta   Ndocc  Nsocc
   -------------------------------------------------------
     A        153     153       0       0       0       0
   -------------------------------------------------------
    Total     153     153      32      32      32       0
   -------------------------------------------------------

  ==> Integral Setup <==

  ==> DiskDFJK: Density-Fitted J/K Matrices <==

    J tasked:                  Yes
    K tasked:                  Yes
    wK tasked:                  No
    OpenMP threads:              4
    Integrals threads:           4
    Memory (MB):              2002
    Algorithm:                Core
    Integral Cache:           NONE
    Schwarz Cutoff:          1E-12
    Fitting Condition:       1E-12

   => Auxiliary Basis Set <=

  Basis Set: (6-31G* AUX)
    Blend: CC-PVDZ-JKFIT
    Number of shells: 297
    Number of basis function: 954
    Number of Cartesian functions: 954
    Spherical Harmonics?: false
    Max angular momentum: 3

  Minimum eigenvalue in the overlap matrix is 4.5957758190E-04.
  Using Symmetric Orthogonalization.

  SCF Guess: Orbitals guess was supplied from a previous computation.

  ==> Iterations <==

                           Total Energy        Delta E     RMS |[F,P]|

   @DF-RKS iter   0:  -381.44463219364161   -3.81445e+02   1.39439e-03 
   @DF-RKS iter   1:  -381.46505485665273   -2.04227e-02   1.66162e-04 
   @DF-RKS iter   2:  -381.46500417359636    5.06831e-05   2.26565e-04 DIIS
   @DF-RKS iter   3:  -381.46516555131194   -1.61378e-04   5.22019e-05 DIIS
   @DF-RKS iter   4:  -381.46517269530324   -7.14399e-06   2.54909e-05 DIIS
   @DF-RKS iter   5:  -381.46517457031933   -1.87502e-06   5.88303e-06 DIIS
   @DF-RKS iter   6:  -381.46517467300129   -1.02682e-07   1.70607e-06 DIIS
   @DF-RKS iter   7:  -381.46517468123960   -8.23832e-09   2.54245e-07 DIIS
   @DF-RKS iter   8:  -381.46517468138569   -1.46088e-10   1.29500e-07 DIIS
   @DF-RKS iter   9:  -381.46517468143162   -4.59295e-11   1.70239e-08 DIIS
   @DF-RKS iter  10:  -381.46517468143253   -9.09495e-13   1.11251e-08 DIIS
   @DF-RKS iter  11:  -381.46517468143327   -7.38964e-13   1.97705e-09 DIIS

  ==> Post-Iterations <==

    Orbital Energies [Eh]
    ---------------------

    Doubly Occupied:                                                      

       1A    -14.565140     2A    -14.565130     3A    -10.500073  
       4A    -10.380664     5A    -10.361269     6A    -10.361262  
       7A    -10.345287     8A    -10.342180     9A    -10.342131  
      10A     -1.184619    11A     -1.088115    12A     -1.016511  
      13A     -0.927680    14A     -0.905507    15A     -0.848937  
      16A     -0.787949    17A     -0.775279    18A     -0.740275  
      19A     -0.736307    20A     -0.684956    21A     -0.670384  
      22A     -0.631577    23A     -0.610112    24A     -0.602234  
      25A     -0.582807    26A     -0.577883    27A     -0.518058  
      28A     -0.509772    29A     -0.500881    30A     -0.469524  
      31A     -0.413068    32A     -0.407404  

    Virtual:                                                              

      33A     -0.223500    34A     -0.154533    35A     -0.117305  
      36A     -0.116271    37A     -0.077101    38A     -0.073737  
      39A     -0.040536    40A     -0.029641    41A      0.014080  
      42A      0.024662    43A      0.028723    44A      0.066460  
      45A      0.075829    46A      0.085944    47A      0.113685  
      48A      0.127415    49A      0.155114    50A      0.186292  
      51A      0.240616    52A      0.247963    53A      0.301450  
      54A      0.345985    55A      0.351913    56A      0.372195  
      57A      0.393723    58A      0.396144    59A      0.418872  
      60A      0.419141    61A      0.436989    62A      0.451817  
      63A      0.457071    64A      0.468901    65A      0.474935  
      66A      0.476125    67A      0.482880    68A      0.492471  
      69A      0.500615    70A      0.536145    71A      0.565968  
      72A      0.589346    73A      0.632534    74A      0.649198  
      75A      0.662903    76A      0.693852    77A      0.696052  
      78A      0.703952    79A      0.713886    80A      0.748543  
      81A      0.775740    82A      0.783011    83A      0.797698  
      84A      0.813248    85A      0.842870    86A      0.864879  
      87A      0.901418    88A      0.922571    89A      0.968189  
      90A      1.030774    91A      1.055369    92A      1.059229  
      93A      1.073552    94A      1.082067    95A      1.139657  
      96A      1.172076    97A      1.177304    98A      1.272910  
      99A      1.290850   100A      1.321653   101A      1.322484  
     102A      1.339291   103A      1.353245   104A      1.366279  
     105A      1.393998   106A      1.454651   107A      1.510441  
     108A      1.602549   109A      1.630853   110A      1.647498  
     111A      1.652795   112A      1.742555   113A      1.744086  
     114A      1.805489   115A      1.817256   116A      1.856138  
     117A      1.895362   118A      1.925629   119A      1.944642  
     120A      1.975647   121A      1.981715   122A      2.020651  
     123A      2.028708   124A      2.086566   125A      2.103509  
     126A      2.121130   127A      2.154498   128A      2.224956  
     129A      2.255525   130A      2.264236   131A      2.312309  
     132A      2.347578   133A      2.437986   134A      2.481035  
     135A      2.494045   136A      2.505586   137A      2.519529  
     138A      2.595008   139A      2.610256   140A      2.657956  
     141A      2.736475   142A      2.893506   143A      3.001269  
     144A      3.258565   145A      3.644076   146A      3.689131  
     147A      3.895638   148A      3.945792   149A      3.962376  
     150A      4.040801   151A      4.171572   152A      4.259869  
     153A      4.546721  

    Final Occupation by Irrep:
              A 
    DOCC [    32 ]

  Energy converged.

  @DF-RKS Final Energy:  -381.46517468143327

   => Energetics <=

    Nuclear Repulsion Energy =            415.5500276454986306
    One-Electron Energy =               -1326.1779756578198430
    Two-Electron Energy =                 573.5790026622465803
    DFT Exchange-Correlation Energy =     -44.4047434413586330
    Empirical Dispersion Energy =          -0.0114858900000000
    VV10 Nonlocal Energy =                  0.0000000000000000
    Total Energy =                       -381.4651746814332682



Properties will be evaluated at   0.000000,   0.000000,   0.000000 [a0]

Properties computed using the SCF density matrix

  Nuclear Dipole Moment: [e a0]
     X:    -0.0084      Y:     0.0034      Z:     0.4047

  Electronic Dipole Moment: [e a0]
     X:     0.0111      Y:    -0.0033      Z:    -2.5966

  Dipole Moment: [e a0]
     X:     0.0028      Y:     0.0001      Z:    -2.1919     Total:     2.1919

  Dipole Moment: [D]
     X:     0.0070      Y:     0.0002      Z:    -5.5714     Total:     5.5714


*** tstop() called on rosa.prib.upf.edu at Sat Sep 29 20:47:12 2018
Module time:
	user time   =      81.29 seconds =       1.35 minutes
	system time =       0.95 seconds =       0.02 minutes
	total time  =         22 seconds =       0.37 minutes
Total time:
	user time   =     214.37 seconds =       3.57 minutes
	system time =       3.42 seconds =       0.06 minutes
	total time  =         59 seconds =       0.98 minutes

*** tstart() called on rosa.prib.upf.edu
*** at Sat Sep 29 20:47:12 2018


         ------------------------------------------------------------
                                   SCF GRAD                          
                          Rob Parrish, Justin Turney,                
                       Andy Simmonett, and Alex Sokolov              
         ------------------------------------------------------------

  ==> Geometry <==

    Molecular point group: c1
    Full point group: C1

    Geometry (in Angstrom), charge = 1, multiplicity = 1:

       Center              X                  Y                   Z               Mass       
    ------------   -----------------  -----------------  -----------------  -----------------
         C           -0.000645431319     0.000139495632    -0.169752395064    12.000000000000
         C            0.010865031425     1.211540156133     0.555702899112    12.000000000000
         C            0.020770916689     1.208337375905     1.945314219090    12.000000000000
         C           -0.003280611152    -0.000111345835     2.642591973501    12.000000000000
         C           -0.025487055596    -1.208437284113     1.945032113570    12.000000000000
         C           -0.012450208133    -1.211422486943     0.555438033965    12.000000000000
         C            0.002604256636     0.000205475533    -1.654828146423    12.000000000000
         H            0.024726107046     2.175224436536     0.059701950617     1.007825032070
         H            0.044909047228     2.148976281728     2.485679573960     1.007825032070
         H           -0.004433685418    -0.000211891223     3.728069533619     1.007825032070
         H           -0.050350482325    -2.149167862484     2.485204953697     1.007825032070
         H           -0.024414275720    -2.175063396933     0.059303567796     1.007825032070
         N           -0.180443043632     1.117549118647    -2.355670846405    14.003074004780
         N            0.186056578225    -1.117460192908    -2.355051296763    14.003074004780
         H            0.227783254503    -1.115462574394    -3.366421716353     1.007825032070
         H            0.233625809554    -2.018410025792    -1.905677262433     1.007825032070
         H           -0.230180294583     2.018481121936    -1.906495825115     1.007825032070
         H           -0.219655913427     1.115292598574    -3.367141330370     1.007825032070

  Nuclear repulsion =  415.550027645498631

  ==> Basis Set <==

  Basis Set: 6-31G*
    Blend: 6-31G*
    Number of shells: 72
    Number of basis function: 153
    Number of Cartesian functions: 153
    Spherical Harmonics?: false
    Max angular momentum: 2

  ==> DFJKGrad: Density-Fitted SCF Gradients <==

    Gradient:                    1
    J tasked:                  Yes
    K tasked:                  Yes
    wK tasked:                  No
    OpenMP threads:              4
    Integrals threads:           4
    Memory (MB):              2002
    Schwarz Cutoff:          0E+00
    Fitting Condition:       1E-12

   => Auxiliary Basis Set <=

  Basis Set: (6-31G* AUX)
    Blend: CC-PVDZ-JKFIT
    Number of shells: 297
    Number of basis function: 954
    Number of Cartesian functions: 954
    Spherical Harmonics?: false
    Max angular momentum: 3

  ==> DFT Potential <==

   => Composite Functional: B3LYP-D3ZERO <= 

    B3LYP-d3zero Hyb-GGA Exchange-Correlation Functional

    P. J. Stephens, F. J. Devlin, C. F. Chabalowski, and M. J. Frisch, J. Phys. Chem. 98, 11623 (1994)

    Deriv               =              1
    GGA                 =           TRUE
    Meta                =          FALSE

    Exchange Hybrid     =           TRUE
    MP2 Hybrid          =          FALSE

   => Exchange Functionals <=

    0.0800   Slater exchange
    0.7200         Becke 88

   => Exact (HF) Exchange <=

    0.2000               HF 

   => Correlation Functionals <=

    0.1900   Vosko, Wilk & Nusair (VWN5_RPA)
    0.8100   Lee, Yang & Parr

   => Molecular Quadrature <=

    Radial Scheme       =       TREUTLER
    Pruning Scheme      =           FLAT
    Nuclear Scheme      =       TREUTLER

    BS radius alpha     =              1
    Pruning alpha       =              1
    Radial Points       =             75
    Spherical Points    =            302
    Total Points        =         396548
    Total Blocks        =           2978
    Max Points          =            256
    Max Functions       =            148


  -Total Gradient:
     Atom            X                  Y                   Z
    ------   -----------------  -----------------  -----------------
       1       -0.000267285443     0.000016487545     0.003067898021
       2        0.000256698772     0.000997875940     0.002653951280
       3        0.000409393388    -0.000275554602     0.000302839374
       4       -0.000005870767    -0.000001476585    -0.001470031498
       5       -0.000398058563     0.000279974087     0.000303256241
       6       -0.000164291001    -0.001013750631     0.002620802536
       7        0.000340543960     0.000045835340    -0.002583750203
       8       -0.000700739051    -0.000977357665     0.001495983316
       9        0.000204813610    -0.000190768634     0.000482085268
      10        0.000001524297     0.000000931408    -0.000098168289
      11       -0.000204905945     0.000192260543     0.000483308237
      12        0.000706934888     0.000973132398     0.001494311531
      13       -0.001695154589    -0.002655809334    -0.003823096826
      14        0.001554987599     0.002633563266    -0.003812605579
      15        0.000994176971     0.000710633409    -0.000065047081
      16       -0.002086624487     0.001239195334    -0.000499889209
      17        0.002058792837    -0.001248570715    -0.000487668120
      18       -0.001005034114    -0.000726676164    -0.000067472541


*** tstop() called on rosa.prib.upf.edu at Sat Sep 29 20:47:20 2018
Module time:
	user time   =      27.84 seconds =       0.46 minutes
	system time =       0.62 seconds =       0.01 minutes
	total time  =          8 seconds =       0.13 minutes
Total time:
	user time   =     242.28 seconds =       4.04 minutes
	system time =       4.05 seconds =       0.07 minutes
	total time  =         67 seconds =       1.12 minutes

			-----------------------------------------
			 OPTKING 2.0: for geometry optimizations 
			  - R.A. King,  Bethel University        
			-----------------------------------------
	At level 1: Red. Int., RFO, no backsteps, dynamic trust

	Previous internal coordinate definitions found.
	---Fragment 1 Geometry and Gradient---
	 C          -0.0012196884        0.0002636085       -0.3207855371
	 C           0.0205319338        2.2894790941        1.0501262906
	 C           0.0392513441        2.2834267166        3.6761111165
	 C          -0.0061994566       -0.0002104131        4.9937751109
	 C          -0.0481635550       -2.2836155157        3.6755780143
	 C          -0.0235274837       -2.2892567315        1.0496257680
	 C           0.0049213318        0.0003882925       -3.1271719937
	 H           0.0467255706        4.1105784626        0.1128203363
	 H           0.0848658001        4.0609766385        4.6972536489
	 H          -0.0083784512       -0.0004004164        7.0450304229
	 H          -0.0951486223       -4.0613386737        4.6963567466
	 H          -0.0461362948       -4.1102741419        0.1120675018
	 N          -0.3409879350        2.1118617743       -4.4515727589
	 N           0.3515959781       -2.1116937290       -4.4504019798
	 H           0.4304479687       -2.1079187771       -6.3616150917
	 H           0.4414887976       -3.8142421726       -3.6012081237
	 H          -0.4349777179        3.8143765249       -3.6027549830
	 H          -0.4150895198        2.1075975693       -6.3629749651
	            -0.0002672854        0.0000164875        0.0030678980
	             0.0002566988        0.0009978759        0.0026539513
	             0.0004093934       -0.0002755546        0.0003028394
	            -0.0000058708       -0.0000014766       -0.0014700315
	            -0.0003980586        0.0002799741        0.0003032562
	            -0.0001642910       -0.0010137506        0.0026208025
	             0.0003405440        0.0000458353       -0.0025837502
	            -0.0007007391       -0.0009773577        0.0014959833
	             0.0002048136       -0.0001907686        0.0004820853
	             0.0000015243        0.0000009314       -0.0000981683
	            -0.0002049059        0.0001922605        0.0004833082
	             0.0007069349        0.0009731324        0.0014943115
	            -0.0016951546       -0.0026558093       -0.0038230968
	             0.0015549876        0.0026335633       -0.0038126056
	             0.0009941770        0.0007106334       -0.0000650471
	            -0.0020866245        0.0012391953       -0.0004998892
	             0.0020587928       -0.0012485707       -0.0004876681
	            -0.0010050341       -0.0007266762       -0.0000674725

	---Fragment 1 Intrafragment Coordinates---
	 - Coordinate -           - BOHR/RAD -       - ANG/DEG -
	 R(1,2)           =         2.668404	       1.412059
	 R(1,6)           =         2.668413	       1.412063
	 R(1,7)           =         2.806393	       1.485079
	 R(2,3)           =         2.626059	       1.389650
	 R(2,8)           =         2.048324	       1.083926
	 R(3,4)           =         2.636912	       1.395394
	 R(3,9)           =         2.050487	       1.085071
	 R(4,5)           =         2.636919	       1.395398
	 R(4,10)          =         2.051256	       1.085478
	 R(5,6)           =         2.626074	       1.389658
	 R(5,11)          =         2.050487	       1.085071
	 R(6,12)          =         2.048324	       1.083926
	 R(7,13)          =         2.516349	       1.331594
	 R(7,14)          =         2.516349	       1.331594
	 R(13,17)         =         1.904700	       1.007924
	 R(13,18)         =         1.912843	       1.012233
	 R(14,15)         =         1.912843	       1.012233
	 R(14,16)         =         1.904700	       1.007924
	 B(1,2,3)         =         2.108103	     120.785381
	 B(1,2,8)         =         2.126733	     121.852841
	 B(1,6,5)         =         2.108051	     120.782429
	 B(1,6,12)        =         2.126823	     121.857974
	 B(1,7,13)        =         2.124750	     121.739203
	 B(1,7,14)        =         2.124823	     121.743408
	 B(2,1,6)         =         2.062696	     118.183797
	 B(2,1,7)         =         2.110288	     120.910603
	 B(2,3,4)         =         2.096196	     120.103183
	 B(2,3,9)         =         2.089951	     119.745392
	 B(3,2,8)         =         2.048275	     117.357531
	 B(3,4,5)         =         2.094856	     120.026394
	 B(3,4,10)        =         2.094162	     119.986635
	 B(4,3,9)         =         2.097035	     120.151269
	 B(4,5,6)         =         2.096230	     120.105127
	 B(4,5,11)        =         2.096994	     120.148926
	 B(5,4,10)        =         2.094168	     119.986970
	 B(5,6,12)        =         2.048234	     117.355154
	 B(6,1,7)         =         2.110198	     120.905465
	 B(6,5,11)        =         2.089958	     119.745751
	 B(7,13,17)       =         2.120300	     121.484213
	 B(7,13,18)       =         2.128662	     121.963354
	 B(7,14,15)       =         2.128722	     121.966809
	 B(7,14,16)       =         2.120362	     121.487786
	 B(13,7,14)       =         2.033610	     116.517259
	 B(15,14,16)      =         2.032283	     116.441251
	 B(17,13,18)      =         2.032405	     116.448241
	 D(1,2,3,4)       =        -0.018817	      -1.078155
	 D(1,2,3,9)       =         3.125284	     179.065589
	 D(1,6,5,4)       =        -0.019696	      -1.128471
	 D(1,6,5,11)      =         3.124702	     179.032243
	 D(1,7,13,17)     =         0.115135	       6.596764
	 D(1,7,13,18)     =        -3.093543	    -177.246974
	 D(1,7,14,15)     =        -3.095795	    -177.376004
	 D(1,7,14,16)     =         0.112876	       6.467290
	 D(2,1,6,5)       =         0.010709	       0.613558
	 D(2,1,6,12)      =         3.138561	     179.826285
	*D(2,1,7,13)      =        -0.174533	     -10.000014
	 D(2,1,7,14)      =         2.969433	     170.135983
	 D(2,3,4,5)       =         0.009816	       0.562418
	 D(2,3,4,10)      =        -3.132077	    -179.454818
	 D(3,2,1,6)       =         0.008558	       0.490335
	 D(3,2,1,7)       =        -3.130720	    -179.377046
	 D(3,4,5,6)       =         0.009363	       0.536463
	 D(3,4,5,11)      =        -3.135046	    -179.624904
	 D(4,3,2,8)       =         3.135621	     179.657869
	 D(4,5,6,12)      =         3.135037	     179.624394
	 D(5,4,3,9)       =        -3.134296	    -179.581914
	 D(5,6,1,7)       =        -3.133199	    -179.519054
	 D(6,1,2,8)       =         3.136719	     179.720732
	 D(6,1,7,13)      =         2.969437	     170.136225
	 D(6,1,7,14)      =        -0.169782	      -9.727777
	 D(6,5,4,10)      =        -3.131929	    -179.446301
	 D(7,1,2,8)       =        -0.002560	      -0.146649
	 D(7,1,6,12)      =        -0.005346	      -0.306328
	 D(8,2,3,9)       =        -0.003463	      -0.198387
	 D(9,3,4,10)      =         0.006996	       0.400850
	 D(10,4,5,11)     =         0.006847	       0.392332
	 D(11,5,6,12)     =        -0.003751	      -0.214892
	 D(13,7,14,15)    =         0.048053	       2.753253
	 D(13,7,14,16)    =        -3.026461	    -173.403452
	 D(14,7,13,17)    =        -3.028713	    -173.532487
	 D(14,7,13,18)    =         0.045794	       2.623775

	Current energy   :      -381.4651746814

	Energy change for the previous step:
		Projected    :        -0.0047824873
		Actual       :        -0.0021269159

	Performing BFGS update.
	Previous computed or guess Hessian on step 1.
	Steps to be used in Hessian update: 1
	Taking RFO optimization step.
	Going to follow RFO solution 1.
	Using RFO vector 1.
	Norm of target step-size    0.19395
	Projected energy change by RFO approximation:         0.0005457865

	Back-transformation to cartesian coordinates...
	Could not converge backtransformation.
	Using first guess instead.

	Back-transformation to cartesian coordinates to adjust frozen coordinates...
	Successfully converged to displaced geometry.

	--- Internal Coordinate Step in ANG or DEG, aJ/ANG or AJ/DEG ---
	 ---------------------------------------------------------------------------
	   Coordinate                Previous        Force       Change         New 
	   ----------                --------       ------       ------       ------
	    1 R(1,2)          =      1.412059    -0.026597    -0.002460     1.409599
	    2 R(1,6)          =      1.412063    -0.026568    -0.002438     1.409625
	    3 R(1,7)          =      1.485079    -0.093415    -0.010230     1.474849
	    4 R(2,3)          =      1.389650     0.000014    -0.000293     1.389357
	    5 R(2,8)          =      1.083926     0.012873     0.001771     1.085698
	    6 R(3,4)          =      1.395394     0.015503     0.001401     1.396795
	    7 R(3,9)          =      1.085071    -0.000654    -0.000084     1.084987
	    8 R(4,5)          =      1.395398     0.015492     0.001403     1.396801
	    9 R(4,10)         =      1.085478     0.000807     0.000089     1.085567
	   10 R(5,6)          =      1.389658    -0.000045    -0.000297     1.389361
	   11 R(5,11)         =      1.085071    -0.000648    -0.000074     1.084997
	   12 R(6,12)         =      1.083926     0.012828     0.001832     1.085759
	   13 R(7,13)         =      1.331594     0.012306     0.001459     1.333054
	   14 R(7,14)         =      1.331594     0.012207     0.001449     1.333043
	   15 R(13,17)        =      1.007924     0.011821     0.002845     1.010769
	   16 R(13,18)        =      1.012233    -0.000888     0.000528     1.012761
	   17 R(14,15)        =      1.012233    -0.000883     0.000489     1.012721
	   18 R(14,16)        =      1.007924     0.011773     0.003139     1.011063
	   19 B(1,2,3)        =    120.785381    -0.000120    -0.156925   120.628456
	   20 B(1,2,8)        =    121.852841    -0.000008     0.153410   122.006252
	   21 B(1,6,5)        =    120.782429    -0.000120    -0.155921   120.626507
	   22 B(1,6,12)       =    121.857974    -0.000008     0.155571   122.013545
	   23 B(1,7,13)       =    121.739203    -0.000402    -0.654774   121.084429
	   24 B(1,7,14)       =    121.743408    -0.000400    -0.651570   121.091838
	   25 B(2,1,6)        =    118.183797     0.000316     0.370549   118.554345
	   26 B(2,1,7)        =    120.910603    -0.000161    -0.191376   120.719227
	   27 B(2,3,4)        =    120.103183    -0.000024     0.001542   120.104725
	   28 B(2,3,9)        =    119.745392    -0.000028    -0.148715   119.596677
	   29 B(3,2,8)        =    117.357531     0.000128    -0.020187   117.337344
	   30 B(3,4,5)        =    120.026394    -0.000027    -0.053152   119.973241
	   31 B(3,4,10)       =    119.986635     0.000014     0.026883   120.013517
	   32 B(4,3,9)        =    120.151269     0.000052     0.146552   120.297821
	   33 B(4,5,6)        =    120.105127    -0.000024     0.001154   120.106281
	   34 B(4,5,11)       =    120.148926     0.000052     0.147757   120.296683
	   35 B(5,4,10)       =    119.986970     0.000014     0.026257   120.013227
	   36 B(5,6,12)       =    117.355154     0.000128    -0.022616   117.332538
	   37 B(6,1,7)        =    120.905465    -0.000155    -0.179671   120.725794
	   38 B(6,5,11)       =    119.745751    -0.000028    -0.149674   119.596077
	   39 B(7,13,17)      =    121.484213     0.000010     0.295410   121.779623
	   40 B(7,13,18)      =    121.963354     0.000039    -0.016906   121.946448
	   41 B(7,14,15)      =    121.966809     0.000038    -0.028514   121.938294
	   42 B(7,14,16)      =    121.487786     0.000010     0.303699   121.791485
	   43 B(13,7,14)      =    116.517259     0.000803     1.305505   117.822764
	   44 B(15,14,16)     =    116.441251    -0.000045    -0.201405   116.239846
	   45 B(17,13,18)     =    116.448241    -0.000046    -0.206925   116.241316
	   46 D(1,2,3,4)      =     -1.078155     0.000005     0.279829    -0.798326
	   47 D(1,2,3,9)      =    179.065589     0.000002    -0.183676   178.881914
	   48 D(1,6,5,4)      =     -1.128471     0.000006     0.429399    -0.699071
	   49 D(1,6,5,11)     =    179.032243     0.000003    -0.086375   178.945868
	   50 D(1,7,13,17)    =      6.596764    -0.000029    -4.537822     2.058942
	   51 D(1,7,13,18)    =   -177.246974    -0.000017    -2.849769  -180.096742
	   52 D(1,7,14,15)    =   -177.376004    -0.000014    -2.349552  -179.725556
	   53 D(1,7,14,16)    =      6.467290    -0.000027    -4.112440     2.354851
	   54 D(2,1,6,5)      =      0.613558    -0.000004    -0.369289     0.244269
	   55 D(2,1,6,12)     =    179.826285    -0.000006    -1.537528   178.288756
	   56 *D(2,1,7,13)    =    -10.000014     0.000000    -0.000000   -10.000014
	   57 D(2,1,7,14)     =    170.135983    -0.000003    -0.501979   169.634004
	   58 D(2,3,4,5)      =      0.562418    -0.000003    -0.223021     0.339397
	   59 D(2,3,4,10)     =   -179.454818    -0.000002    -0.161387  -179.616206
	   60 D(3,2,1,6)      =      0.490335    -0.000002     0.014921     0.505256
	   61 D(3,2,1,7)      =   -179.377046    -0.000004    -0.405358  -179.782403
	   62 D(3,4,5,6)      =      0.536463    -0.000002    -0.128927     0.407536
	   63 D(3,4,5,11)     =   -179.624904     0.000001     0.390011  -179.234893
	   64 D(4,3,2,8)      =    179.657869     0.000007     1.428650   181.086519
	   65 D(4,5,6,12)     =    179.624394     0.000008     1.543009   181.167404
	   66 D(5,4,3,9)      =   -179.581914    -0.000000     0.243334  -179.338580
	   67 D(5,6,1,7)      =   -179.519054    -0.000001     0.051002  -179.468052
	   68 D(6,1,2,8)      =    179.720732    -0.000004    -1.189993   178.530739
	   69 D(6,1,7,13)     =    170.136225    -0.000002    -0.430170   169.706055
	   70 D(6,1,7,14)     =     -9.727777    -0.000006    -0.932149   -10.659926
	   71 D(6,5,4,10)     =   -179.446301    -0.000003    -0.190560  -179.636861
	   72 D(7,1,2,8)      =     -0.146649    -0.000006    -1.610271    -1.756920
	   73 D(7,1,6,12)     =     -0.306328    -0.000003    -1.117238    -1.423565
	   74 D(8,2,3,9)      =     -0.198387     0.000005     0.965145     0.766759
	   75 D(9,3,4,10)     =      0.400850     0.000000     0.304968     0.705817
	   76 D(10,4,5,11)    =      0.392332     0.000000     0.328377     0.720709
	   77 D(11,5,6,12)    =     -0.214892     0.000005     1.027235     0.812343
	   78 D(13,7,14,15)   =      2.753253    -0.000016    -2.833208    -0.079955
	   79 D(13,7,14,16)   =   -173.403452    -0.000030    -4.596096  -177.999549
	   80 D(14,7,13,17)   =   -173.532487    -0.000027    -4.054200  -177.586687
	   81 D(14,7,13,18)   =      2.623775    -0.000014    -2.366146     0.257629
	 ---------------------------------------------------------------------------
	Successfully symmetrized geometry.

  ==> Convergence Check <==

  Measures of convergence in internal coordinates in au.
  Criteria marked as inactive (o), active & met (*), and active & unmet ( ).
  ---------------------------------------------------------------------------------------------
   Step     Total Energy     Delta E     MAX Force     RMS Force      MAX Disp      RMS Disp   
  ---------------------------------------------------------------------------------------------
    Convergence Criteria    1.00e-06 *    3.00e-04 *             o    1.20e-03 *             o
  ---------------------------------------------------------------------------------------------
      2    -381.46517468   -2.13e-03      1.13e-02      2.20e-03 o    8.02e-02      2.16e-02 o  ~
  ---------------------------------------------------------------------------------------------

	Writing optimization data to binary file.
	Structure for next step:
	Cartesian Geometry (in Angstrom)
	    C     0.0015376730  -0.0003866669  -0.1756343882
	    C     0.0174778570   1.2113771534   0.5443266012
	    C     0.0237118499   1.2092243634   1.9336681412
	    C    -0.0026486008   0.0001189402   2.6325281003
	    C    -0.0281678902  -1.2092177347   1.9340256254
	    C    -0.0188329829  -1.2118935055   0.5446984354
	    C    -0.0002895430  -0.0004929386  -1.6504822638
	    H     0.0570669178   2.1756864420   0.0470540215
	    H     0.0544141097   2.1513900602   2.4708619120
	    H    -0.0040304399   0.0003075885   3.7180940969
	    H    -0.0612119112  -2.1511606164   2.4714915452
	    H    -0.0592506233  -2.1763999203   0.0477416195
	    N    -0.1854089333   1.1261256749  -2.3385911092
	    N     0.1903006993  -1.1259140134  -2.3390364477
	    H     0.1956142762  -1.1400505821  -3.3516452570
	    H     0.3069211936  -2.0186144718  -1.8788912458
	    H    -0.2995127744   2.0185749815  -1.8779736519
	    H    -0.1876908775   1.1413242456  -3.3512357349
			--------------------------
			 OPTKING Finished Execution 
			--------------------------

    Structure for next step:
    Molecular point group: c1
    Full point group: C1

    Geometry (in Angstrom), charge = 1, multiplicity = 1:

    C            0.001537672955    -0.000386666889    -0.175634388225
    C            0.017477857042     1.211377153426     0.544326601237
    C            0.023711849894     1.209224363410     1.933668141217
    C           -0.002648600760     0.000118940151     2.632528100257
    C           -0.028167890227    -1.209217734662     1.934025625379
    C           -0.018832982943    -1.211893505494     0.544698435429
    C           -0.000289543013    -0.000492938602    -1.650482263806
    H            0.057066917792     2.175686441956     0.047054021462
    H            0.054414109718     2.151390060153     2.470861912038
    H           -0.004030439892     0.000307588511     3.718094096899
    H           -0.061211911197    -2.151160616360     2.471491545230
    H           -0.059250623253    -2.176399920324     0.047741619493
    N           -0.185408933275     1.126125674909    -2.338591109222
    N            0.190300699295    -1.125914013393    -2.339036447740
    H            0.195614276157    -1.140050582108    -3.351645256998
    H            0.306921193634    -2.018614471821    -1.878891245835
    H           -0.299512774427     2.018574981493    -1.877973651887
    H           -0.187690877499     1.141324245645    -3.351235734929

gradient() will perform analytic gradient computation.

*** tstart() called on rosa.prib.upf.edu
*** at Sat Sep 29 20:47:20 2018

   => Loading Basis Set <=

    Name: 6-31G*
    Role: ORBITAL
    Keyword: BASIS
    atoms 1-7         entry C          line   111 file /shared/joao/test_parameterize/miniconda3/share/psi4/basis/6-31gs.gbs 
    atoms 8-12, 15-18 entry H          line    44 file /shared/joao/test_parameterize/miniconda3/share/psi4/basis/6-31gs.gbs 
    atoms 13-14       entry N          line   128 file /shared/joao/test_parameterize/miniconda3/share/psi4/basis/6-31gs.gbs 


         ---------------------------------------------------------
                                   SCF
            by Justin Turney, Rob Parrish, Andy Simmonett
                             and Daniel Smith
                              RKS Reference
                        4 Threads,   2861 MiB Core
         ---------------------------------------------------------

  ==> Geometry <==

    Molecular point group: c1
    Full point group: C1

    Geometry (in Angstrom), charge = 1, multiplicity = 1:

       Center              X                  Y                   Z               Mass       
[...]
	             0.0000016318       -0.0000096408       -0.0000010148
	            -0.0000031804       -0.0000042144        0.0000037722

	---Fragment 1 Intrafragment Coordinates---
	 - Coordinate -           - BOHR/RAD -       - ANG/DEG -
	 R(1,2)           =         2.663631	       1.409533
	 R(1,6)           =         2.663984	       1.409720
	 R(1,7)           =         2.774348	       1.468122
	 R(2,3)           =         2.626440	       1.389852
	 R(2,8)           =         2.051992	       1.085868
	 R(3,4)           =         2.641646	       1.397899
	 R(3,9)           =         2.050400	       1.085025
	 R(4,5)           =         2.641023	       1.397569
	 R(4,10)          =         2.051497	       1.085605
	 R(5,6)           =         2.626891	       1.390091
	 R(5,11)          =         2.050412	       1.085031
	 R(6,12)          =         2.051971	       1.085856
	 R(7,13)          =         2.519113	       1.333057
	 R(7,14)          =         2.517828	       1.332377
	 R(13,17)         =         1.909150	       1.010278
	 R(13,18)         =         1.913750	       1.012713
	 R(14,15)         =         1.913463	       1.012561
	 R(14,16)         =         1.908911	       1.010152
	 B(1,2,3)         =         2.099550	     120.295360
	 B(1,2,8)         =         2.114952	     121.177831
	 B(1,6,5)         =         2.100012	     120.321801
	 B(1,6,12)        =         2.116450	     121.263635
	 B(1,7,13)        =         2.108825	     120.826768
	 B(1,7,14)        =         2.104695	     120.590161
	 B(2,1,6)         =         2.077797	     119.048983
	 B(2,1,7)         =         2.104418	     120.574276
	 B(2,3,4)         =         2.096072	     120.096059
	 B(2,3,9)         =         2.088155	     119.642465
	 B(3,2,8)         =         2.066385	     118.395167
	 B(3,4,5)         =         2.096827	     120.139344
	 B(3,4,10)        =         2.093107	     119.926224
	 B(4,3,9)         =         2.098930	     120.259842
	 B(4,5,6)         =         2.095393	     120.057147
	 B(4,5,11)        =         2.099069	     120.267783
	 B(5,4,10)        =         2.093231	     119.933301
	 B(5,6,12)        =         2.065741	     118.358228
	 B(6,1,7)         =         2.097029	     120.150926
	 B(6,5,11)        =         2.088551	     119.665154
	 B(7,13,17)       =         2.106156	     120.673857
	 B(7,13,18)       =         2.130725	     122.081549
	 B(7,14,15)       =         2.135251	     122.340883
	 B(7,14,16)       =         2.109788	     120.881923
	 B(13,7,14)       =         2.067851	     118.479156
	 B(15,14,16)      =         2.033054	     116.485393
	 B(17,13,18)      =         2.029273	     116.268758
	 D(1,2,3,4)       =        -0.013347	      -0.764752
	 D(1,2,3,9)       =         3.120151	     178.771460
	 D(1,6,5,4)       =         0.023067	       1.321635
	 D(1,6,5,11)      =        -3.138462	    -179.820641
	 D(1,7,13,17)     =        -0.286333	     -16.405677
	 D(1,7,13,18)     =         3.059913	     175.320076
	 D(1,7,14,15)     =         3.082444	     176.611050
	 D(1,7,14,16)     =        -0.171266	      -9.812795
	 D(2,1,6,5)       =        -0.042379	      -2.428157
	 D(2,1,6,12)      =         3.050787	     174.797194
	*D(2,1,7,13)      =        -0.174533	     -10.000014
	 D(2,1,7,14)      =         2.901389	     166.237327
	 D(2,3,4,5)       =        -0.006534	      -0.374395
	 D(2,3,4,10)      =        -3.141373	    -179.987417
	 D(3,2,1,6)       =         0.037502	       2.148688
	 D(3,2,1,7)       =         3.083951	     176.697390
	 D(3,4,5,6)       =         0.001664	       0.095350
	 D(3,4,5,11)      =        -3.119871	    -178.755425
	 D(4,3,2,8)       =        -3.083005	    -176.643175
	 D(4,5,6,12)      =        -3.071487	    -175.983252
	 D(5,4,3,9)       =        -3.139982	    -179.907719
	 D(5,6,1,7)       =        -3.089241	    -177.000475
	 D(6,1,2,8)       =         3.105127	     177.910686
	 D(6,1,7,13)      =         2.870868	     164.488616
	 D(6,1,7,14)      =        -0.336396	     -19.274043
	 D(6,5,4,10)      =         3.136502	     179.708344
	 D(7,1,2,8)       =        -0.131609	      -7.540612
	 D(7,1,6,12)      =         0.003925	       0.224876
	 D(8,2,3,9)       =         0.050493	       2.893038
	 D(9,3,4,10)      =         0.008365	       0.479259
	 D(10,4,5,11)     =         0.014967	       0.857570
	 D(11,5,6,12)     =         0.050169	       2.874471
	 D(13,7,14,15)    =        -0.123303	      -7.064719
	 D(13,7,14,16)    =         2.906173	     166.511436
	 D(14,7,13,17)    =         2.919572	     167.279131
	 D(14,7,13,18)    =        -0.017368	      -0.995116

	Current energy   :      -381.4675501118

	Energy change for the previous step:
		Projected    :        -0.0000005617
		Actual       :        -0.0000000604
	Energy ratio indicates iffy step: Trust radius decreased to 2.500e-01.


	Performing BFGS update.
	Previous computed or guess Hessian on step 1.
	Steps to be used in Hessian update: 9 8
	Taking RFO optimization step.
	Going to follow RFO solution 1.
	Rejecting RFO root 1 because normalization gives large value.
	Rejecting RFO root 2 because normalization gives large value.
	Rejecting RFO root 3 because normalization gives large value.
	Rejecting RFO root 4 because normalization gives large value.
	Rejecting RFO root 5 because normalization gives large value.
	Using RFO vector 6.
	Norm of target step-size    0.00121
	Projected energy change by RFO approximation:        -0.0000000319

	Back-transformation to cartesian coordinates...
	Successfully converged to displaced geometry.

	Back-transformation to cartesian coordinates to adjust frozen coordinates...
	Successfully converged to displaced geometry.

	--- Internal Coordinate Step in ANG or DEG, aJ/ANG or AJ/DEG ---
	 ---------------------------------------------------------------------------
	   Coordinate                Previous        Force       Change         New 
	   ----------                --------       ------       ------       ------
	    1 R(1,2)          =      1.409533     0.000094     0.000011     1.409544
	    2 R(1,6)          =      1.409720    -0.000052    -0.000001     1.409719
	    3 R(1,7)          =      1.468122     0.000043    -0.000010     1.468112
	    4 R(2,3)          =      1.389852    -0.000024    -0.000004     1.389848
	    5 R(2,8)          =      1.085868    -0.000038    -0.000002     1.085866
	    6 R(3,4)          =      1.397899    -0.000072    -0.000014     1.397885
	    7 R(3,9)          =      1.085025     0.000005     0.000001     1.085026
	    8 R(4,5)          =      1.397569    -0.000043    -0.000009     1.397560
	    9 R(4,10)         =      1.085605    -0.000012    -0.000002     1.085603
	   10 R(5,6)          =      1.390091    -0.000022    -0.000003     1.390088
	   11 R(5,11)         =      1.085031     0.000000    -0.000000     1.085031
	   12 R(6,12)         =      1.085856     0.000024     0.000005     1.085861
	   13 R(7,13)         =      1.333057     0.000003     0.000002     1.333059
	   14 R(7,14)         =      1.332377    -0.000060    -0.000000     1.332377
	   15 R(13,17)        =      1.010278     0.000071     0.000015     1.010293
	   16 R(13,18)        =      1.012713     0.000036     0.000005     1.012718
	   17 R(14,15)        =      1.012561     0.000053     0.000007     1.012568
	   18 R(14,16)        =      1.010152     0.000280     0.000060     1.010212
	   19 B(1,2,3)        =    120.295360     0.000000     0.003140   120.298500
	   20 B(1,2,8)        =    121.177831     0.000001     0.000286   121.178117
	   21 B(1,6,5)        =    120.321801     0.000000     0.002867   120.324668
	   22 B(1,6,12)       =    121.263635    -0.000000    -0.000386   121.263249
	   23 B(1,7,13)       =    120.826768     0.000002     0.005157   120.831925
	   24 B(1,7,14)       =    120.590161    -0.000002    -0.003133   120.587028
	   25 B(2,1,6)        =    119.048983    -0.000000    -0.005300   119.043683
	   26 B(2,1,7)        =    120.574276     0.000002     0.005975   120.580251
	   27 B(2,3,4)        =    120.096059     0.000000     0.000325   120.096384
	   28 B(2,3,9)        =    119.642465    -0.000000    -0.001707   119.640758
	   29 B(3,2,8)        =    118.395167    -0.000001    -0.003499   118.391668
	   30 B(3,4,5)        =    120.139344    -0.000000    -0.001749   120.137595
	   31 B(3,4,10)       =    119.926224    -0.000000     0.000738   119.926962
	   32 B(4,3,9)        =    120.259842     0.000000     0.001439   120.261281
	   33 B(4,5,6)        =    120.057147     0.000000     0.000824   120.057971
	   34 B(4,5,11)       =    120.267783     0.000000     0.001059   120.268842
	   35 B(5,4,10)       =    119.933301     0.000000     0.001082   119.934383
	   36 B(5,6,12)       =    118.358228     0.000000    -0.002724   118.355504
	   37 B(6,1,7)        =    120.150926    -0.000002    -0.001581   120.149345
	   38 B(6,5,11)       =    119.665154    -0.000000    -0.001906   119.663248
	   39 B(7,13,17)      =    120.673857     0.000000     0.002410   120.676267
	   40 B(7,13,18)      =    122.081549     0.000000     0.001333   122.082882
	   41 B(7,14,15)      =    122.340883     0.000000    -0.000411   122.340472
	   42 B(7,14,16)      =    120.881923    -0.000000    -0.000135   120.881788
	   43 B(13,7,14)      =    118.479156    -0.000000    -0.001421   118.477735
	   44 B(15,14,16)     =    116.485393    -0.000000    -0.001239   116.484154
	   45 B(17,13,18)     =    116.268758    -0.000000    -0.000613   116.268144
	   46 D(1,2,3,4)      =     -0.764752     0.000000    -0.011486    -0.776239
	   47 D(1,2,3,9)      =    178.771460    -0.000000    -0.003333   178.768127
	   48 D(1,6,5,4)      =      1.321635    -0.000000    -0.000242     1.321393
	   49 D(1,6,5,11)     =   -179.820641    -0.000000    -0.001594  -179.822234
	   50 D(1,7,13,17)    =    -16.405677     0.000000    -0.002790   -16.408467
	   51 D(1,7,13,18)    =    175.320076    -0.000000    -0.021330   175.298746
	   52 D(1,7,14,15)    =    176.611050     0.000000    -0.010471   176.600579
	   53 D(1,7,14,16)    =     -9.812795    -0.000000    -0.030106    -9.842901
	   54 D(2,1,6,5)      =     -2.428157     0.000000     0.003814    -2.424343
	   55 D(2,1,6,12)     =    174.797194     0.000000    -0.002246   174.794947
	   56 *D(2,1,7,13)    =    -10.000014     0.000000     0.000000   -10.000014
	   57 D(2,1,7,14)     =    166.237327     0.000000     0.010865   166.248192
	   58 D(2,3,4,5)      =     -0.374395     0.000000     0.014923    -0.359472
	   59 D(2,3,4,10)     =   -179.987417    -0.000000     0.002607  -179.984810
	   60 D(3,2,1,6)      =      2.148688    -0.000000     0.002073     2.150761
	   61 D(3,2,1,7)      =    176.697390     0.000000    -0.008933   176.688457
	   62 D(3,4,5,6)      =      0.095350    -0.000000    -0.009026     0.086324
	   63 D(3,4,5,11)     =   -178.755425     0.000000    -0.007632  -178.763057
	   64 D(4,3,2,8)      =   -176.643175    -0.000000    -0.010353  -176.653527
	   65 D(4,5,6,12)     =   -175.983252     0.000000     0.005586  -175.977666
	   66 D(5,4,3,9)      =   -179.907719     0.000000     0.006734  -179.900985
	   67 D(5,6,1,7)      =   -177.000475    -0.000000     0.014348  -176.986127
	   68 D(6,1,2,8)      =    177.910686    -0.000000     0.000754   177.911440
	   69 D(6,1,7,13)     =    164.488616     0.000000    -0.011323   164.477293
	   70 D(6,1,7,14)     =    -19.274043     0.000000    -0.000458   -19.274501
	   71 D(6,5,4,10)     =    179.708344     0.000000     0.003290   179.711634
	   72 D(7,1,2,8)      =     -7.540612     0.000000    -0.010251    -7.550863
	   73 D(7,1,6,12)     =      0.224876    -0.000000     0.008287     0.233163
	   74 D(8,2,3,9)      =      2.893038    -0.000000    -0.002200     2.890839
	   75 D(9,3,4,10)     =      0.479259     0.000000    -0.005582     0.473677
	   76 D(10,4,5,11)    =      0.857570     0.000000     0.004683     0.862253
	   77 D(11,5,6,12)    =      2.874471     0.000000     0.004235     2.878706
	   78 D(13,7,14,15)   =     -7.064719     0.000000     0.000389    -7.064330
	   79 D(13,7,14,16)   =    166.511436    -0.000000    -0.019246   166.492191
	   80 D(14,7,13,17)   =    167.279131     0.000000    -0.013360   167.265771
	   81 D(14,7,13,18)   =     -0.995116    -0.000000    -0.031900    -1.027016
	 ---------------------------------------------------------------------------
	Successfully symmetrized geometry.

  ==> Convergence Check <==

  Measures of convergence in internal coordinates in au.
  Criteria marked as inactive (o), active & met (*), and active & unmet ( ).
  ---------------------------------------------------------------------------------------------
   Step     Total Energy     Delta E     MAX Force     RMS Force      MAX Disp      RMS Disp   
  ---------------------------------------------------------------------------------------------
    Convergence Criteria    1.00e-06 *    3.00e-04 *             o    1.20e-03 *             o
  ---------------------------------------------------------------------------------------------
     10    -381.46755011   -6.04e-08 *    3.40e-05 *    8.21e-06 o    5.57e-04 *    1.34e-04 o  ~
  ---------------------------------------------------------------------------------------------


  **** Optimization is complete! (in 10 steps) ****

  ==> Optimization Summary <==

  Measures of convergence in internal coordinates in au.
  --------------------------------------------------------------------------------------------------------------- ~
   Step         Total Energy             Delta E       MAX Force       RMS Force        MAX Disp        RMS Disp  ~
  --------------------------------------------------------------------------------------------------------------- ~
      1    -381.463047765509   -381.463047765509      0.01613474      0.00356709      0.07496910      0.03117751  ~
      2    -381.465174681433     -0.002126915924      0.01133858      0.00219763      0.08021701      0.02157648  ~
      3    -381.466235064497     -0.001060383064      0.00281934      0.00074339      0.20878895      0.05180076  ~
      4    -381.466773939441     -0.000538874944      0.01576283      0.00243271      0.05767758      0.01317651  ~
      5    -381.467412048531     -0.000638109090      0.00230607      0.00061193      0.04394159      0.00953593  ~
      6    -381.467530119793     -0.000118071262      0.00089533      0.00017426      0.02354721      0.00451261  ~
      7    -381.467545632888     -0.000015513095      0.00019181      0.00006855      0.01298598      0.00277677  ~
      8    -381.467548948001     -0.000003315113      0.00021497      0.00005868      0.00474383      0.00092250  ~
      9    -381.467550051374     -0.000001103373      0.00006890      0.00001979      0.00126794      0.00031395  ~
     10    -381.467550111813     -0.000000060439      0.00003396      0.00000821      0.00055677      0.00013408  ~
  --------------------------------------------------------------------------------------------------------------- ~

	Writing optimization data to binary file.
	Final energy is   -381.4675501118132
	Final (previous) structure:
	Cartesian Geometry (in Angstrom)
	    C     0.0462243702  -0.0015337418  -0.1764332817
	    C     0.0886205359   1.2128577160   0.5378770088
	    C     0.0692594747   1.2098832188   1.9275910457
	    C    -0.0086014614   0.0008642974   2.6249663096
	    C    -0.0751276027  -1.2084544147   1.9275985819
	    C    -0.0620327943  -1.2122291286   0.5375744832
	    C    -0.0064470028  -0.0034620366  -1.6436087530
	    H     0.2053426281   2.1628814087   0.0251009179
	    H     0.1224985846   2.1498002961   2.4670362721
	    H    -0.0237493104   0.0017653667   3.7104656549
	    H    -0.1559267854  -2.1467662157   2.4664260605
	    H    -0.1816024750  -2.1610409034   0.0232368142
	    N    -0.2140986838   1.1256071989  -2.3211958373
	    N     0.2265798622  -1.1220299775  -2.3289799313
	    H     0.1481790818  -1.1655970697  -3.3375605939
	    H     0.5850734680  -1.9468071374  -1.8689444223
	    H    -0.5791360916   1.9454369861  -1.8572029878
	    H    -0.1850557982   1.1588231367  -3.3329473413
	Saving final (previous) structure.
	Removing binary optimization data file.
			--------------------------
			 OPTKING Finished Execution 
			--------------------------

    Final optimized geometry and variables:
    Molecular point group: c1
    Full point group: C1

    Geometry (in Angstrom), charge = 1, multiplicity = 1:

    C            0.046224370195    -0.001533741845    -0.176433281672
    C            0.088620535945     1.212857716040     0.537877008816
    C            0.069259474694     1.209883218846     1.927591045652
    C           -0.008601461447     0.000864297431     2.624966309600
    C           -0.075127602682    -1.208454414693     1.927598581901
    C           -0.062032794259    -1.212229128582     0.537574483160
    C           -0.006447002837    -0.003462036582    -1.643608752971
    H            0.205342628111     2.162881408721     0.025100917942
    H            0.122498584582     2.149800296086     2.467036272097
    H           -0.023749310374     0.001765366683     3.710465654880
    H           -0.155926785359    -2.146766215745     2.466426060461
    H           -0.181602474990    -2.161040903432     0.023236814162
    N           -0.214098683787     1.125607198857    -2.321195837335
    N            0.226579862231    -1.122029977494    -2.328979931348
    H            0.148179081849    -1.165597069659    -3.337560593921
    H            0.585073467956    -1.946807137399    -1.868944422276
    H           -0.579136091627     1.945436986107    -1.857202987815
    H           -0.185055798202     1.158823136661    -3.332947341334

	Removing binary optimization data file.
	Cleaning optimization helper files.


Properties will be evaluated at   0.000000,   0.000000,   0.000000 [a0]
OEProp: No title given, name of density matrix used for the following properties is 'SCF density'
  Nuclear Dipole Moment: [e a0]
     X:     0.6319      Y:     0.0210      Z:     0.2981

  Electronic Dipole Moment: [e a0]
     X:    -0.6837      Y:    -0.0354      Z:    -2.4666

  Dipole Moment: [e a0]
     X:    -0.0518      Y:    -0.0144      Z:    -2.1685     Total:     2.1692

  Dipole Moment: [D]
     X:    -0.1317      Y:    -0.0367      Z:    -5.5118     Total:     5.5135

  Quadrupole Moment: [D A]
    XX:   -54.1545     YY:   -33.6392     ZZ:   -12.6479
    XY:    -2.7304     XZ:     0.2060     YZ:     0.1383

  Traceless Quadrupole Moment: [D A]
    XX:   -20.6740     YY:    -0.1587     ZZ:    20.8326
    XY:    -2.7304     XZ:     0.2060     YZ:     0.1383

  Mulliken Charges: (a.u.)
   Center  Symbol    Alpha    Beta     Spin     Total
       1     C     2.93472  2.93472  0.00000  0.13056
       2     C     3.08767  3.08767  0.00000 -0.17534
       3     C     3.06134  3.06134  0.00000 -0.12269
       4     C     3.05136  3.05136  0.00000 -0.10273
       5     C     3.06121  3.06121  0.00000 -0.12241
       6     C     3.08621  3.08621  0.00000 -0.17242
       7     C     2.70846  2.70846  0.00000  0.58308
       8     H     0.41813  0.41813  0.00000  0.16373
       9     H     0.40499  0.40499  0.00000  0.19002
      10     H     0.40280  0.40280  0.00000  0.19441
      11     H     0.40496  0.40496  0.00000  0.19007
      12     H     0.41885  0.41885  0.00000  0.16229
      13     N     3.87327  3.87327  0.00000 -0.74654
      14     N     3.87227  3.87227  0.00000 -0.74453
      15     H     0.30590  0.30590  0.00000  0.38820
      16     H     0.30034  0.30034  0.00000  0.39931
      17     H     0.30139  0.30139  0.00000  0.39722
      18     H     0.30612  0.30612  0.00000  0.38776

   Total alpha = 32.00000, Total beta = 32.00000, Total charge =  1.00000


    Psi4 stopped on: Saturday, 29 September 2018 08:50PM
    Psi4 wall time for execution: 0:04:46.37

*** Psi4 exiting successfully. Buy a developer a beer!
