
    -----------------------------------------------------------------------
          Psi4: An Open-Source Ab Initio Electronic Structure Package
                               Psi4 1.2.1 release

                         Git: Rev {HEAD} 406f4de 


    R. M. Parrish, L. A. Burns, D. G. A. Smith, A. C. Simmonett,
    A. E. DePrince III, E. G. Hohenstein, U. Bozkaya, A. Yu. Sokolov,
    R. Di Remigio, R. M. Richard, J. F. Gonthier, A. M. James,
    H. R. McAlexander, A. Kumar, M. Saitow, X. Wang, B. P. Pritchard,
    P. Verma, H. F. Schaefer III, K. Patkowski, R. A. King, E. F. Valeev,
    F. A. Evangelista, J. M. Turney, T. D. Crawford, and C. D. Sherrill,
    J. Chem. Theory Comput. 13(7) pp 3185--3197 (2017).
    (doi: 10.1021/acs.jctc.7b00174)


                         Additional Contributions by
    P. Kraus, H. Kruse, M. H. Lechner, M. C. Schieber, and R. A. Shaw

    -----------------------------------------------------------------------


    Psi4 started on: Saturday, 29 September 2018 08:42PM

    Process ID: 18481
    Host:       green.prib.upf.edu
    PSIDATADIR: /shared/joao/test_parameterize/miniconda3/share/psi4
    Memory:     500.0 MiB
    Threads:    1
    
  ==> Input File <==

--------------------------------------------------------------------------
set_num_threads(4)
set_memory('3000 MB')

set { scf_mem_safety_factor 0.7 }

set { reference rks }
set { basis 6-31G* }

molecule MOL {
    1 1
    noreorient
    nocom
    symmetry c1
    C   -0.000000  -0.000000  -0.177864
    C    0.036678   1.219374   0.524165
    C    0.031765   1.213120   1.915444
    C    0.000000   0.000000   2.610107
    C   -0.031765  -1.213120   1.915444
    C   -0.036678  -1.219375   0.524165
    C   -0.000000   0.000000  -1.644734
    H    0.018170   2.164705  -0.010854
    H    0.042402   2.152895   2.457886
    H    0.000000   0.000000   3.695756
    H   -0.042402  -2.152895   2.457886
    H   -0.018170  -2.164705  -0.010853
    N   -1.015073  -0.546037  -2.308461
    N    1.015073   0.546037  -2.308460
    H    1.019311   0.653831  -3.315997
    H    1.855998   0.812421  -1.813316
    H   -1.855998  -0.812421  -1.813317
    H   -1.019312  -0.653831  -3.315997
}

set optking { frozen_dihedral = (" 2 1 7 13 ") }

set optking { dynamic_level = 1 
 geom_maxiter = 250
 print_trajectory_xyz_file = True }

energy, wfn = optimize('B3LYP-D3', return_wfn=True)

import os
os.chdir(os.environ['HTMD_PSI4_WORKDIR'])

oeprop(wfn, 'DIPOLE', 'QUADRUPOLE', 'MULLIKEN_CHARGES')

with open('psi4out.xyz', 'w') as f:
    f.write('18 ' )
    f.write('%.12f\n' % energy)
    f.write(MOL.save_string_xyz())
--------------------------------------------------------------------------
  Threads set to 4 by Python driver.

  Memory set to   2.794 GiB by Python driver.
gradient() will perform analytic gradient computation.

*** tstart() called on green.prib.upf.edu
*** at Sat Sep 29 20:42:54 2018

   => Loading Basis Set <=

    Name: 6-31G*
    Role: ORBITAL
    Keyword: BASIS
    atoms 1-7         entry C          line   111 file /shared/joao/test_parameterize/miniconda3/share/psi4/basis/6-31gs.gbs 
    atoms 8-12, 15-18 entry H          line    44 file /shared/joao/test_parameterize/miniconda3/share/psi4/basis/6-31gs.gbs 
    atoms 13-14       entry N          line   128 file /shared/joao/test_parameterize/miniconda3/share/psi4/basis/6-31gs.gbs 


         ---------------------------------------------------------
                                   SCF
            by Justin Turney, Rob Parrish, Andy Simmonett
                             and Daniel Smith
                              RKS Reference
                        4 Threads,   2861 MiB Core
         ---------------------------------------------------------

  ==> Geometry <==

    Molecular point group: c1
    Full point group: C1

    Geometry (in Angstrom), charge = 1, multiplicity = 1:

       Center              X                  Y                   Z               Mass       
    ------------   -----------------  -----------------  -----------------  -----------------
         C            0.000000000000     0.000000000000    -0.177864000000    12.000000000000
         C            0.036678000000     1.219374000000     0.524165000000    12.000000000000
         C            0.031765000000     1.213120000000     1.915444000000    12.000000000000
         C            0.000000000000     0.000000000000     2.610107000000    12.000000000000
         C           -0.031765000000    -1.213120000000     1.915444000000    12.000000000000
         C           -0.036678000000    -1.219375000000     0.524165000000    12.000000000000
         C            0.000000000000     0.000000000000    -1.644734000000    12.000000000000
         H            0.018170000000     2.164705000000    -0.010854000000     1.007825032070
         H            0.042402000000     2.152895000000     2.457886000000     1.007825032070
         H            0.000000000000     0.000000000000     3.695756000000     1.007825032070
         H           -0.042402000000    -2.152895000000     2.457886000000     1.007825032070
         H           -0.018170000000    -2.164705000000    -0.010853000000     1.007825032070
         N           -1.015073000000    -0.546037000000    -2.308461000000    14.003074004780
         N            1.015073000000     0.546037000000    -2.308460000000    14.003074004780
         H            1.019311000000     0.653831000000    -3.315997000000     1.007825032070
         H            1.855998000000     0.812421000000    -1.813316000000     1.007825032070
         H           -1.855998000000    -0.812421000000    -1.813317000000     1.007825032070
         H           -1.019312000000    -0.653831000000    -3.315997000000     1.007825032070

  Running in c1 symmetry.

  Rotational constants: A =      0.12190  B =      0.03796  C =      0.03238 [cm^-1]
  Rotational constants: A =   3654.48753  B =   1137.98341  C =    970.70714 [MHz]
  Nuclear repulsion =  416.179285403581616

  Charge       = 1
  Multiplicity = 1
  Electrons    = 64
  Nalpha       = 32
  Nbeta        = 32

  ==> Algorithm <==

  SCF Algorithm Type is DF.
  DIIS enabled.
  MOM disabled.
  Fractional occupation disabled.
  Guess Type is SAD.
  Energy threshold   = 1.00e-08
  Density threshold  = 1.00e-08
  Integral threshold = 0.00e+00

  ==> Primary Basis <==

  Basis Set: 6-31G*
    Blend: 6-31G*
    Number of shells: 72
    Number of basis function: 153
    Number of Cartesian functions: 153
    Spherical Harmonics?: false
    Max angular momentum: 2

  ==> DFT Potential <==

   => Composite Functional: B3LYP-D3ZERO <= 

    B3LYP-d3zero Hyb-GGA Exchange-Correlation Functional

    P. J. Stephens, F. J. Devlin, C. F. Chabalowski, and M. J. Frisch, J. Phys. Chem. 98, 11623 (1994)

    Deriv               =              1
    GGA                 =           TRUE
    Meta                =          FALSE

    Exchange Hybrid     =           TRUE
    MP2 Hybrid          =          FALSE

   => Exchange Functionals <=

    0.0800   Slater exchange
    0.7200         Becke 88

   => Exact (HF) Exchange <=

    0.2000               HF 

   => Correlation Functionals <=

    0.1900   Vosko, Wilk & Nusair (VWN5_RPA)
    0.8100   Lee, Yang & Parr

   => Molecular Quadrature <=

    Radial Scheme       =       TREUTLER
    Pruning Scheme      =           FLAT
    Nuclear Scheme      =       TREUTLER

    BS radius alpha     =              1
    Pruning alpha       =              1
    Radial Points       =             75
    Spherical Points    =            302
    Total Points        =         397204
    Total Blocks        =           3022
    Max Points          =            256
    Max Functions       =            148

   => -D3ZERO: Empirical Dispersion <=

    Grimme's -D3 (zero-damping) Dispersion Correction
    Grimme S.; Antony J.; Ehrlich S.; Krieg H. (2010), J. Chem. Phys., 132: 154104

        S6 =   1.000000E+00
        S8 =   1.703000E+00
       SR6 =   1.261000E+00
       SR8 =   1.000000E+00
    ALPHA6 =   1.400000E+01

   => Loading Basis Set <=

    Name: (6-31G* AUX)
    Role: JKFIT
    Keyword: DF_BASIS_SCF
    atoms 1-7         entry C          line   121 file /shared/joao/test_parameterize/miniconda3/share/psi4/basis/cc-pvdz-jkfit.gbs 
    atoms 8-12, 15-18 entry H          line    51 file /shared/joao/test_parameterize/miniconda3/share/psi4/basis/cc-pvdz-jkfit.gbs 
    atoms 13-14       entry N          line   171 file /shared/joao/test_parameterize/miniconda3/share/psi4/basis/cc-pvdz-jkfit.gbs 

  ==> Pre-Iterations <==

   -------------------------------------------------------
    Irrep   Nso     Nmo     Nalpha   Nbeta   Ndocc  Nsocc
   -------------------------------------------------------
     A        153     153       0       0       0       0
   -------------------------------------------------------
    Total     153     153      32      32      32       0
   -------------------------------------------------------

  ==> Integral Setup <==

  ==> DiskDFJK: Density-Fitted J/K Matrices <==

    J tasked:                  Yes
    K tasked:                  Yes
    wK tasked:                  No
    OpenMP threads:              4
    Integrals threads:           4
    Memory (MB):              2002
    Algorithm:                Core
    Integral Cache:           NONE
    Schwarz Cutoff:          1E-12
    Fitting Condition:       1E-12

   => Auxiliary Basis Set <=

  Basis Set: (6-31G* AUX)
    Blend: CC-PVDZ-JKFIT
    Number of shells: 297
    Number of basis function: 954
    Number of Cartesian functions: 954
    Spherical Harmonics?: false
    Max angular momentum: 3

  Minimum eigenvalue in the overlap matrix is 4.8836541208E-04.
  Using Symmetric Orthogonalization.

  SCF Guess: Superposition of Atomic Densities via on-the-fly atomic UHF.

  ==> Iterations <==

                           Total Energy        Delta E     RMS |[F,P]|

   @DF-RKS iter   0:  -379.68867734089048   -3.79689e+02   6.76162e-02 
   @DF-RKS iter   1:  -381.05918576050755   -1.37051e+00   1.14365e-02 
   @DF-RKS iter   2:  -380.99998099937744    5.92048e-02   1.24911e-02 DIIS
   @DF-RKS iter   3:  -381.46225008356737   -4.62269e-01   1.31975e-03 DIIS
   @DF-RKS iter   4:  -381.46597627334768   -3.72619e-03   6.36623e-04 DIIS
   @DF-RKS iter   5:  -381.46702934032959   -1.05307e-03   1.99307e-04 DIIS
   @DF-RKS iter   6:  -381.46713094551268   -1.01605e-04   8.43856e-05 DIIS
   @DF-RKS iter   7:  -381.46715359066462   -2.26452e-05   1.29674e-05 DIIS
   @DF-RKS iter   8:  -381.46715401684236   -4.26178e-07   5.82695e-06 DIIS
   @DF-RKS iter   9:  -381.46715411132203   -9.44797e-08   1.46558e-06 DIIS
   @DF-RKS iter  10:  -381.46715411615486   -4.83283e-09   6.81239e-07 DIIS
   @DF-RKS iter  11:  -381.46715411743844   -1.28358e-09   7.50243e-08 DIIS
   @DF-RKS iter  12:  -381.46715411745021   -1.17666e-11   4.26509e-08 DIIS
   @DF-RKS iter  13:  -381.46715411745589   -5.68434e-12   1.31008e-08 DIIS
   @DF-RKS iter  14:  -381.46715411745623   -3.41061e-13   4.40525e-09 DIIS

  ==> Post-Iterations <==

    Orbital Energies [Eh]
    ---------------------

    Doubly Occupied:                                                      

       1A    -14.572172     2A    -14.572165     3A    -10.500541  
       4A    -10.369891     5A    -10.351723     6A    -10.351715  
       7A    -10.337563     8A    -10.335945     9A    -10.335855  
      10A     -1.186559    11A     -1.094357    12A     -1.010752  
      13A     -0.924706    14A     -0.897655    15A     -0.844880  
      16A     -0.786915    17A     -0.766916    18A     -0.748882  
      19A     -0.729670    20A     -0.690450    21A     -0.668504  
      22A     -0.620121    23A     -0.619871    24A     -0.578155  
      25A     -0.576082    26A     -0.568120    27A     -0.516868  
      28A     -0.500344    29A     -0.493154    30A     -0.476397  
      31A     -0.407810    32A     -0.401226  

    Virtual:                                                              

      33A     -0.208509    34A     -0.151365    35A     -0.148741  
      36A     -0.110649    37A     -0.064988    38A     -0.063475  
      39A     -0.036209    40A     -0.028681    41A      0.007505  
      42A      0.014050    43A      0.023582    44A      0.057289  
      45A      0.060638    46A      0.075463    47A      0.140747  
      48A      0.143271    49A      0.163009    50A      0.167463  
      51A      0.202155    52A      0.231812    53A      0.293788  
      54A      0.347029    55A      0.356838    56A      0.381333  
      57A      0.390014    58A      0.398576    59A      0.410137  
      60A      0.424707    61A      0.445935    62A      0.450807  
      63A      0.451707    64A      0.468061    65A      0.475292  
      66A      0.479361    67A      0.485789    68A      0.500095  
      69A      0.512781    70A      0.535550    71A      0.553483  
      72A      0.587487    73A      0.589279    74A      0.641855  
      75A      0.664594    76A      0.681829    77A      0.684425  
      78A      0.698221    79A      0.701285    80A      0.708869  
      81A      0.728338    82A      0.751347    83A      0.777960  
      84A      0.792653    85A      0.811057    86A      0.829493  
      87A      0.852742    88A      0.939883    89A      0.967564  
      90A      1.001614    91A      1.007416    92A      1.026393  
      93A      1.041715    94A      1.083547    95A      1.149044  
      96A      1.173031    97A      1.210533    98A      1.283714  
      99A      1.289981   100A      1.320158   101A      1.323881  
     102A      1.347269   103A      1.361847   104A      1.368995  
     105A      1.452525   106A      1.452642   107A      1.480473  
     108A      1.606652   109A      1.628394   110A      1.651291  
     111A      1.668340   112A      1.736265   113A      1.758550  
     114A      1.796001   115A      1.830556   116A      1.848672  
     117A      1.892725   118A      1.910295   119A      1.975971  
     120A      1.980194   121A      2.001927   122A      2.005363  
     123A      2.042244   124A      2.063536   125A      2.125944  
     126A      2.129163   127A      2.164195   128A      2.204651  
     129A      2.216928   130A      2.265313   131A      2.376981  
     132A      2.383909   133A      2.412190   134A      2.450836  
     135A      2.499774   136A      2.566578   137A      2.569229  
     138A      2.588802   139A      2.599443   140A      2.629444  
     141A      2.728895   142A      2.885337   143A      2.945408  
     144A      3.258527   145A      3.635379   146A      3.637213  
     147A      3.935797   148A      3.964545   149A      3.969933  
     150A      4.083829   151A      4.182603   152A      4.260808  
     153A      4.550169  

    Final Occupation by Irrep:
              A 
    DOCC [    32 ]

  Energy converged.

  @DF-RKS Final Energy:  -381.46715411745623

   => Energetics <=

    Nuclear Repulsion Energy =            416.1792854035816163
    One-Electron Energy =               -1327.6752278350859342
    Two-Electron Energy =                 574.4437342023215933
    DFT Exchange-Correlation Energy =     -44.4031866382734890
    Empirical Dispersion Energy =          -0.0117592500000000
    VV10 Nonlocal Energy =                  0.0000000000000000
    Total Energy =                       -381.4671541174562321



Properties will be evaluated at   0.000000,   0.000000,   0.000000 [a0]

Properties computed using the SCF density matrix

  Nuclear Dipole Moment: [e a0]
     X:    -0.0000      Y:    -0.0000      Z:     0.0248

  Electronic Dipole Moment: [e a0]
     X:     0.0000      Y:     0.0000      Z:    -2.4465

  Dipole Moment: [e a0]
     X:     0.0000      Y:     0.0000      Z:    -2.4217     Total:     2.4217

  Dipole Moment: [D]
     X:     0.0000      Y:     0.0000      Z:    -6.1554     Total:     6.1554


*** tstop() called on green.prib.upf.edu at Sat Sep 29 20:43:21 2018
Module time:
	user time   =      97.26 seconds =       1.62 minutes
	system time =       0.49 seconds =       0.01 minutes
	total time  =         27 seconds =       0.45 minutes
Total time:
	user time   =      97.26 seconds =       1.62 minutes
	system time =       0.49 seconds =       0.01 minutes
	total time  =         27 seconds =       0.45 minutes

*** tstart() called on green.prib.upf.edu
*** at Sat Sep 29 20:43:21 2018


         ------------------------------------------------------------
                                   SCF GRAD                          
                          Rob Parrish, Justin Turney,                
                       Andy Simmonett, and Alex Sokolov              
         ------------------------------------------------------------

  ==> Geometry <==

    Molecular point group: c1
    Full point group: C1

    Geometry (in Angstrom), charge = 1, multiplicity = 1:

       Center              X                  Y                   Z               Mass       
    ------------   -----------------  -----------------  -----------------  -----------------
         C            0.000000000000     0.000000000000    -0.177864000000    12.000000000000
         C            0.036678000000     1.219374000000     0.524165000000    12.000000000000
         C            0.031765000000     1.213120000000     1.915444000000    12.000000000000
         C            0.000000000000     0.000000000000     2.610107000000    12.000000000000
         C           -0.031765000000    -1.213120000000     1.915444000000    12.000000000000
         C           -0.036678000000    -1.219375000000     0.524165000000    12.000000000000
         C            0.000000000000     0.000000000000    -1.644734000000    12.000000000000
         H            0.018170000000     2.164705000000    -0.010854000000     1.007825032070
         H            0.042402000000     2.152895000000     2.457886000000     1.007825032070
         H            0.000000000000     0.000000000000     3.695756000000     1.007825032070
         H           -0.042402000000    -2.152895000000     2.457886000000     1.007825032070
         H           -0.018170000000    -2.164705000000    -0.010853000000     1.007825032070
         N           -1.015073000000    -0.546037000000    -2.308461000000    14.003074004780
         N            1.015073000000     0.546037000000    -2.308460000000    14.003074004780
         H            1.019311000000     0.653831000000    -3.315997000000     1.007825032070
         H            1.855998000000     0.812421000000    -1.813316000000     1.007825032070
         H           -1.855998000000    -0.812421000000    -1.813317000000     1.007825032070
         H           -1.019312000000    -0.653831000000    -3.315997000000     1.007825032070

  Nuclear repulsion =  416.179285403581616

  ==> Basis Set <==

  Basis Set: 6-31G*
    Blend: 6-31G*
    Number of shells: 72
    Number of basis function: 153
    Number of Cartesian functions: 153
    Spherical Harmonics?: false
    Max angular momentum: 2

  ==> DFJKGrad: Density-Fitted SCF Gradients <==

    Gradient:                    1
    J tasked:                  Yes
    K tasked:                  Yes
    wK tasked:                  No
    OpenMP threads:              4
    Integrals threads:           4
    Memory (MB):              2002
    Schwarz Cutoff:          0E+00
    Fitting Condition:       1E-12

   => Auxiliary Basis Set <=

  Basis Set: (6-31G* AUX)
    Blend: CC-PVDZ-JKFIT
    Number of shells: 297
    Number of basis function: 954
    Number of Cartesian functions: 954
    Spherical Harmonics?: false
    Max angular momentum: 3

  ==> DFT Potential <==

   => Composite Functional: B3LYP-D3ZERO <= 

    B3LYP-d3zero Hyb-GGA Exchange-Correlation Functional

    P. J. Stephens, F. J. Devlin, C. F. Chabalowski, and M. J. Frisch, J. Phys. Chem. 98, 11623 (1994)

    Deriv               =              1
    GGA                 =           TRUE
    Meta                =          FALSE

    Exchange Hybrid     =           TRUE
    MP2 Hybrid          =          FALSE

   => Exchange Functionals <=

    0.0800   Slater exchange
    0.7200         Becke 88

   => Exact (HF) Exchange <=

    0.2000               HF 

   => Correlation Functionals <=

    0.1900   Vosko, Wilk & Nusair (VWN5_RPA)
    0.8100   Lee, Yang & Parr

   => Molecular Quadrature <=

    Radial Scheme       =       TREUTLER
    Pruning Scheme      =           FLAT
    Nuclear Scheme      =       TREUTLER

    BS radius alpha     =              1
    Pruning alpha       =              1
    Radial Points       =             75
    Spherical Points    =            302
    Total Points        =         397204
    Total Blocks        =           3022
    Max Points          =            256
    Max Functions       =            148


  -Total Gradient:
     Atom            X                  Y                   Z
    ------   -----------------  -----------------  -----------------
       1        0.000000069557     0.000000638592    -0.007848741515
       2       -0.000715532003    -0.000687099162     0.002872985340
       3        0.000630288044     0.001443454354    -0.001186204604
       4        0.000000000484    -0.000000063153     0.000052038451
       5       -0.000630291855    -0.001443233507    -0.001186084504
       6        0.000715537401     0.000685655346     0.002872617255
       7        0.000000230500     0.000000088584     0.008456274373
       8       -0.001512357501     0.000409495591     0.000979711036
       9       -0.000017136101    -0.000095182412     0.000095402267
      10        0.000000001072     0.000000005525    -0.000023088710
      11        0.000017134513     0.000095171283     0.000095350692
      12        0.001512346484    -0.000408752808     0.000980174238
      13       -0.002368729728    -0.000150204430    -0.002550997637
      14        0.002368611575     0.000150011192    -0.002549751240
      15       -0.000309449550     0.000161526682     0.000882003375
      16        0.000398087013    -0.001261247431    -0.001411323323
      17       -0.000398087059     0.001261236279    -0.001411365529
      18        0.000309276978    -0.000161500693     0.000882869583


*** tstop() called on green.prib.upf.edu at Sat Sep 29 20:43:27 2018
Module time:
	user time   =      25.14 seconds =       0.42 minutes
	system time =       0.20 seconds =       0.00 minutes
	total time  =          6 seconds =       0.10 minutes
Total time:
	user time   =     122.45 seconds =       2.04 minutes
	system time =       0.69 seconds =       0.01 minutes
	total time  =         33 seconds =       0.55 minutes

			-----------------------------------------
			 OPTKING 2.0: for geometry optimizations 
			  - R.A. King,  Bethel University        
			-----------------------------------------
	At level 1: Red. Int., RFO, no backsteps, dynamic trust

	Internal coordinates to be generated automatically.
	Detected frag 1 with atoms:  1 2 3 4 5 6 7 8 9 10 11 12 13 14 15 16 17 18
	---Fragment 1 Bond Connectivity---
	 1 : 2 6 7
	 2 : 1 3 8
	 3 : 2 4 9
	 4 : 3 5 10
	 5 : 4 6 11
	 6 : 1 5 12
	 7 : 1 13 14
	 8 : 2
	 9 : 3
	 10 : 4
	 11 : 5
	 12 : 6
	 13 : 7 17 18
	 14 : 7 15 16
	 15 : 14
	 16 : 14
	 17 : 13
	 18 : 13

	Assuming in current code that numbering for constraints corresponds to unified fragment.
	Frozen dihedral atom list: 
	     2     1     7    13
	---Fragment 1 Geometry and Gradient---
	 C           0.0000000000        0.0000000000       -0.3361142489
	 C           0.0693113751        2.3042829136        0.9905282984
	 C           0.0600271506        2.2924645663        3.6196645829
	 C           0.0000000000        0.0000000000        4.9323874075
	 C          -0.0600271506       -2.2924645663        3.6196645829
	 C          -0.0693113751       -2.3042848033        0.9905282984
	 C           0.0000000000        0.0000000000       -3.1080968214
	 H           0.0343363238        4.0906996085       -0.0205110874
	 H           0.0801281675        4.0683819429        4.6447314059
	 H           0.0000000000        0.0000000000        6.9839666940
	 H          -0.0801281675       -4.0683819429        4.6447314059
	 H          -0.0343363238       -4.0906996085       -0.0205091977
	 N          -1.9182099749       -1.0318603884       -4.3623590784
	 N           1.9182099749        1.0318603884       -4.3623571887
	 H           1.9262186342        1.2355615272       -6.2663261875
	 H           3.5073279232        1.5352531946       -3.4266706324
	 H          -3.5073279232       -1.5352531946       -3.4266725221
	 H          -1.9262205240       -1.2355615272       -6.2663261875
	             0.0000000696        0.0000006386       -0.0078487415
	            -0.0007155320       -0.0006870992        0.0028729853
	             0.0006302880        0.0014434544       -0.0011862046
	             0.0000000005       -0.0000000632        0.0000520385
	            -0.0006302919       -0.0014432335       -0.0011860845
	             0.0007155374        0.0006856553        0.0028726173
	             0.0000002305        0.0000000886        0.0084562744
	            -0.0015123575        0.0004094956        0.0009797110
	            -0.0000171361       -0.0000951824        0.0000954023
	             0.0000000011        0.0000000055       -0.0000230887
	             0.0000171345        0.0000951713        0.0000953507
	             0.0015123465       -0.0004087528        0.0009801742
	            -0.0023687297       -0.0001502044       -0.0025509976
	             0.0023686116        0.0001500112       -0.0025497512
	            -0.0003094496        0.0001615267        0.0008820034
	             0.0003980870       -0.0012612474       -0.0014113233
	            -0.0003980871        0.0012612363       -0.0014113655
	             0.0003092770       -0.0001615007        0.0008828696

	Previous optimization step data not found.  Starting new optimization.

	---Fragment 1 Intrafragment Coordinates---
	 - Coordinate -           - BOHR/RAD -       - ANG/DEG -
	 R(1,2)           =         2.659794	       1.407502
	 R(1,6)           =         2.659796	       1.407503
	 R(1,7)           =         2.771983	       1.466870
	 R(2,3)           =         2.629179	       1.391302
	 R(2,8)           =         2.052976	       1.086388
	 R(3,4)           =         2.642393	       1.398294
	 R(3,9)           =         2.050622	       1.085142
	 R(4,5)           =         2.642393	       1.398294
	 R(4,10)          =         2.051579	       1.085649
	 R(5,6)           =         2.629179	       1.391302
	 R(5,11)          =         2.050622	       1.085142
	 R(6,12)          =         2.052973	       1.086386
	 R(7,13)          =         2.513452	       1.330061
	 R(7,14)          =         2.513451	       1.330061
	 R(13,17)         =         1.911599	       1.011574
	 R(13,18)         =         1.914850	       1.013295
	 R(14,15)         =         1.914851	       1.013296
	 R(14,16)         =         1.911599	       1.011574
	 B(1,2,3)         =         2.088380	     119.655376
	 B(1,2,8)         =         2.103396	     120.515689
	 B(1,6,5)         =         2.088379	     119.655315
	 B(1,6,12)        =         2.103396	     120.515729
	 B(1,7,13)        =         2.093264	     119.935175
	 B(1,7,14)        =         2.093263	     119.935137
	 B(2,1,6)         =         2.097220	     120.161857
	 B(2,1,7)         =         2.092983	     119.919082
	 B(2,3,4)         =         2.095279	     120.050636
	 B(2,3,9)         =         2.089719	     119.732108
	 B(3,2,8)         =         2.090149	     119.756722
	 B(3,4,5)         =         2.101793	     120.423859
	 B(3,4,10)        =         2.090696	     119.788070
	 B(4,3,9)         =         2.098135	     120.214297
	 B(4,5,6)         =         2.095280	     120.050677
	 B(4,5,11)        =         2.098135	     120.214297
	 B(5,4,10)        =         2.090696	     119.788070
	 B(5,6,12)        =         2.090149	     119.756743
	 B(6,1,7)         =         2.092982	     119.919061
	 B(6,5,11)        =         2.089719	     119.732067
	 B(7,13,17)       =         2.092411	     119.886344
	 B(7,13,18)       =         2.144860	     122.891446
	 B(7,14,15)       =         2.144859	     122.891354
	 B(7,14,16)       =         2.092412	     119.886381
	 B(13,7,14)       =         2.096659	     120.129688
	 B(15,14,16)      =         2.043400	     117.078211
	 B(17,13,18)      =         2.043399	     117.078155
	 D(1,2,3,4)       =         0.007799	       0.446825
	 D(1,2,3,9)       =        -3.122896	    -178.928735
	 D(1,6,5,4)       =         0.007799	       0.446822
	 D(1,6,5,11)      =        -3.122896	    -178.928737
	 D(1,7,13,17)     =         0.187843	      10.762627
	 D(1,7,13,18)     =        -3.032165	    -173.730255
	 D(1,7,14,15)     =        -3.032165	    -173.730236
	 D(1,7,14,16)     =         0.187843	      10.762631
	 D(2,1,6,5)       =        -0.003906	      -0.223802
	 D(2,1,6,12)      =        -3.091437	    -177.126283
	*D(2,1,7,13)      =        -2.094395	    -119.999989
	 D(2,1,7,14)      =         1.047198	      60.000011
	 D(2,3,4,5)       =        -0.003942	      -0.225875
	 D(2,3,4,10)      =         3.137650	     179.774125
	 D(3,2,1,6)       =        -0.003906	      -0.223806
	 D(3,2,1,7)       =         3.137687	     179.776196
	 D(3,4,5,6)       =        -0.003942	      -0.225874
	 D(3,4,5,11)      =         3.126699	     179.146646
	 D(4,3,2,8)       =         3.095744	     177.373058
	 D(4,5,6,12)      =         3.095744	     177.373055
	 D(5,4,3,9)       =         3.126699	     179.146646
	 D(5,6,1,7)       =         3.137687	     179.776197
	 D(6,1,2,8)       =        -3.091437	    -177.126287
	 D(6,1,7,13)      =         1.047198	      60.000012
	 D(6,1,7,14)      =        -2.094395	    -119.999988
	 D(6,5,4,10)      =         3.137650	     179.774126
	 D(7,1,2,8)       =         0.050156	       2.873714
	 D(7,1,6,12)      =         0.050156	       2.873716
	 D(8,2,3,9)       =        -0.034950	      -2.002503
	 D(9,3,4,10)      =        -0.014894	      -0.853354
	 D(10,4,5,11)     =        -0.014894	      -0.853354
	 D(11,5,6,12)     =        -0.034950	      -2.002504
	 D(13,7,14,15)    =         0.109428	       6.269764
	 D(13,7,14,16)    =        -2.953749	    -169.237369
	 D(14,7,13,17)    =        -2.953749	    -169.237373
	 D(14,7,13,18)    =         0.109428	       6.269745

	Current energy   :      -381.4671541175

	Generating empirical Hessian (Schlegel '84) for each fragment.
	Taking RFO optimization step.
	Going to follow RFO solution 1.
	Using RFO vector 1.
	Norm of target step-size    0.30811
	Projected energy change by RFO approximation:        -0.0030486621

	Back-transformation to cartesian coordinates...
	Could not converge backtransformation.
	Using first guess instead.

	Back-transformation to cartesian coordinates to adjust frozen coordinates...
	Successfully converged to displaced geometry.

	--- Internal Coordinate Step in ANG or DEG, aJ/ANG or AJ/DEG ---
	 ---------------------------------------------------------------------------
	   Coordinate                Previous        Force       Change         New 
	   ----------                --------       ------       ------       ------
	    1 R(1,2)          =      1.407502    -0.018095    -0.002589     1.404913
	    2 R(1,6)          =      1.407503    -0.018093    -0.000606     1.406898
	    3 R(1,7)          =      1.466870     0.018924     0.003601     1.470471
	    4 R(2,3)          =      1.391302     0.008912     0.001681     1.392982
	    5 R(2,8)          =      1.086388     0.000827     0.001931     1.088319
	    6 R(3,4)          =      1.398294    -0.000658     0.000653     1.398947
	    7 R(3,9)          =      1.085142     0.000288     0.000167     1.085310
	    8 R(4,5)          =      1.398294    -0.000651     0.000186     1.398480
	    9 R(4,10)         =      1.085649     0.000191     0.000372     1.086021
	   10 R(5,6)          =      1.391302     0.008924     0.001477     1.392779
	   11 R(5,11)         =      1.085142     0.000288     0.001461     1.086603
	   12 R(6,12)         =      1.086386     0.000834     0.002003     1.088390
	   13 R(7,13)         =      1.330061    -0.024902    -0.002128     1.327933
	   14 R(7,14)         =      1.330061    -0.024898     0.001910     1.331971
	   15 R(13,17)        =      1.011574     0.005702     0.006113     1.017688
	   16 R(13,18)        =      1.013295     0.007101     0.002637     1.015932
	   17 R(14,15)        =      1.013296     0.007094     0.001532     1.014828
	   18 R(14,16)        =      1.011574     0.005701     0.004996     1.016570
	   19 B(1,2,3)        =    119.655376    -0.000106    -0.360079   119.295297
	   20 B(1,2,8)        =    120.515689    -0.000026    -0.201861   120.313828
	   21 B(1,6,5)        =    119.655315    -0.000107    -0.345547   119.309768
	   22 B(1,6,12)       =    120.515729    -0.000027    -0.062892   120.452837
	   23 B(1,7,13)       =    119.935175    -0.000176    -0.533154   119.402021
	   24 B(1,7,14)       =    119.935137    -0.000176    -0.613367   119.321770
	   25 B(2,1,6)        =    120.161857     0.000210     0.548426   120.710283
	   26 B(2,1,7)        =    119.919082    -0.000105    -0.310639   119.608442
	   27 B(2,3,4)        =    120.050636     0.000004     0.064859   120.115495
	   28 B(2,3,9)        =    119.732108    -0.000012    -0.099517   119.632591
	   29 B(3,2,8)        =    119.756722     0.000134     0.626504   120.383225
	   30 B(3,4,5)        =    120.423859    -0.000006     0.032352   120.456211
	   31 B(3,4,10)       =    119.788070     0.000003     0.013357   119.801427
	   32 B(4,3,9)        =    120.214297     0.000008     0.037509   120.251805
	   33 B(4,5,6)        =    120.050677     0.000004     0.012066   120.062744
	   34 B(4,5,11)       =    120.214297     0.000008     0.039622   120.253918
	   35 B(5,4,10)       =    119.788070     0.000003    -0.048541   119.739530
	   36 B(5,6,12)       =    119.756743     0.000135     0.461110   120.217853
	   37 B(6,1,7)        =    119.919061    -0.000105    -0.416296   119.502765
	   38 B(6,5,11)       =    119.732067    -0.000012    -0.050508   119.681558
	   39 B(7,13,17)      =    119.886344    -0.000100    -0.485747   119.400597
	   40 B(7,13,18)      =    122.891446     0.000065     0.258082   123.149528
	   41 B(7,14,15)      =    122.891354     0.000065     0.373195   123.264549
	   42 B(7,14,16)      =    119.886381    -0.000100    -0.190804   119.695577
	   43 B(13,7,14)      =    120.129688     0.000351     0.979292   121.108980
	   44 B(15,14,16)     =    117.078211     0.000040    -0.072363   117.005848
	   45 B(17,13,18)     =    117.078155     0.000040     0.337311   117.415466
	   46 D(1,2,3,4)      =      0.446825    -0.000001    -0.450659    -0.003834
	   47 D(1,2,3,9)      =   -178.928735    -0.000005    -0.955099  -179.883835
	   48 D(1,6,5,4)      =      0.446822     0.000007     1.352584     1.799406
	   49 D(1,6,5,11)     =   -178.928737     0.000001     0.244143  -178.684595
	   50 D(1,7,13,17)    =     10.762627    -0.000033    -5.442711     5.319917
	   51 D(1,7,13,18)    =   -173.730255    -0.000017    -3.140358  -176.870613
	   52 D(1,7,14,15)    =   -173.730236     0.000006     1.483405  -172.246831
	   53 D(1,7,14,16)    =     10.762631    -0.000010    -0.822536     9.940095
	   54 D(2,1,6,5)      =     -0.223802    -0.000011    -2.512776    -2.736578
	   55 D(2,1,6,12)     =   -177.126283    -0.000021    -4.005849  -181.132132
	   56 *D(2,1,7,13)    =   -119.999989    -0.000000    -0.000000  -119.999989
	   57 D(2,1,7,14)     =     60.000011    -0.000023    -4.646825    55.353186
	   58 D(2,3,4,5)      =     -0.225875    -0.000004    -0.691718    -0.917593
	   59 D(2,3,4,10)     =    179.774125    -0.000001    -0.077982   179.696142
	   60 D(3,2,1,6)      =     -0.223806     0.000008     2.060732     1.836926
	   61 D(3,2,1,7)      =    179.776196    -0.000013    -2.818871   176.957325
	   62 D(3,4,5,6)      =     -0.225874     0.000000     0.231198     0.005323
	   63 D(3,4,5,11)     =    179.146646     0.000007     1.345473   180.492120
	   64 D(4,3,2,8)      =    177.373058     0.000010     1.620222   178.993280
	   65 D(4,5,6,12)     =    177.373055     0.000016     2.825751   180.198806
	   66 D(5,4,3,9)      =    179.146646     0.000000    -0.184989   178.961658
	   67 D(5,6,1,7)      =    179.776197     0.000010     2.361713   182.137910
	   68 D(6,1,2,8)      =   -177.126287    -0.000004    -0.034612  -177.160899
	   69 D(6,1,7,13)     =     60.000012    -0.000021    -4.820192    55.179820
	   70 D(6,1,7,14)     =   -119.999988    -0.000044    -9.467017  -129.467005
	   71 D(6,5,4,10)     =    179.774126    -0.000002    -0.382159   179.391967
	   72 D(7,1,2,8)      =      2.873714    -0.000025    -4.914215    -2.040500
	   73 D(7,1,6,12)     =      2.873716    -0.000000     0.868640     3.742356
	   74 D(8,2,3,9)      =     -2.002503     0.000007     1.115782    -0.886720
	   75 D(9,3,4,10)     =     -0.853354     0.000003     0.428747    -0.424607
	   76 D(10,4,5,11)    =     -0.853354     0.000004     0.732117    -0.121237
	   77 D(11,5,6,12)    =     -2.002504     0.000009     1.717310    -0.285194
	   78 D(13,7,14,15)   =      6.269764    -0.000017    -3.245070     3.024694
	   79 D(13,7,14,16)   =   -169.237369    -0.000033    -5.551012  -174.788380
	   80 D(14,7,13,17)   =   -169.237373    -0.000010    -0.710499  -169.947872
	   81 D(14,7,13,18)   =      6.269745     0.000006     1.591853     7.861598
	 ---------------------------------------------------------------------------
	Successfully symmetrized geometry.

  ==> Convergence Check <==

  Measures of convergence in internal coordinates in au.
  Criteria marked as inactive (o), active & met (*), and active & unmet ( ).
  --------------------------------------------------------------------------------------------- ~
   Step     Total Energy     Delta E     MAX Force     RMS Force      MAX Disp      RMS Disp    ~
  --------------------------------------------------------------------------------------------- ~
    Convergence Criteria    1.00e-06 *    3.00e-04 *             o    1.20e-03 *             o  ~
  --------------------------------------------------------------------------------------------- ~
      1    -381.46715412   -3.81e+02      4.61e-03      1.24e-03 o    1.65e-01      3.43e-02 o  ~
  ---------------------------------------------------------------------------------------------

	Writing optimization data to binary file.
	Structure for next step:
	Cartesian Geometry (in Angstrom)
	    C     0.0610737608  -0.0198564611  -0.1779115937
	    C     0.0956870786   1.2053827749   0.5086541764
	    C     0.0556403405   1.2078312069   1.9010586309
	    C    -0.0183248995   0.0001501283   2.6032603010
	    C    -0.0719879691  -1.2169544266   1.9165850427
	    C    -0.0519127815  -1.2338746894   0.5240533176
	    C     0.0351412025  -0.0283385992  -1.6481291387
	    H     0.1367625743   2.1429261190  -0.0424926789
	    H     0.0801700254   2.1512937272   2.4369443326
	    H    -0.0442909120   0.0077774654   3.6889435794
	    H    -0.1374354649  -2.1526243981   2.4651693456
	    H    -0.0968204588  -2.1794827366  -0.0129764446
	    N    -0.9885237276  -0.5919816537  -2.2788618727
	    N     0.9908098806   0.6104085179  -2.3210678030
	    H     0.9710178355   0.7406707829  -3.3273060523
	    H     1.8045906427   0.9649728857  -1.8256281531
	    H    -1.7790494878  -0.9374088278  -1.7390121953
	    H    -1.0425486398  -0.6708928155  -3.2902827938
			--------------------------
			 OPTKING Finished Execution 
			--------------------------

    Structure for next step:
    Molecular point group: c1
    Full point group: C1

    Geometry (in Angstrom), charge = 1, multiplicity = 1:

    C            0.061073760829    -0.019856461094    -0.177911593674
    C            0.095687078613     1.205382774895     0.508654176359
    C            0.055640340481     1.207831206899     1.901058630871
    C           -0.018324899509     0.000150128258     2.603260301012
    C           -0.071987969076    -1.216954426557     1.916585042655
    C           -0.051912781542    -1.233874689353     0.524053317570
    C            0.035141202516    -0.028338599198    -1.648129138673
    H            0.136762574276     2.142926118981    -0.042492678902
    H            0.080170025408     2.151293727178     2.436944332642
    H           -0.044290911952     0.007777465378     3.688943579382
    H           -0.137435464908    -2.152624398134     2.465169345556
    H           -0.096820458807    -2.179482736561    -0.012976444570
    N           -0.988523727628    -0.591981653749    -2.278861872713
    N            0.990809880608     0.610408517852    -2.321067802992
    H            0.971017835542     0.740670782863    -3.327306052294
    H            1.804590642711     0.964972885710    -1.825628153133
    H           -1.779049487764    -0.937408827836    -1.739012195346
    H           -1.042548639796    -0.670892815531    -3.290282793750

gradient() will perform analytic gradient computation.

*** tstart() called on green.prib.upf.edu
*** at Sat Sep 29 20:43:27 2018

   => Loading Basis Set <=

    Name: 6-31G*
    Role: ORBITAL
    Keyword: BASIS
    atoms 1-7         entry C          line   111 file /shared/joao/test_parameterize/miniconda3/share/psi4/basis/6-31gs.gbs 
    atoms 8-12, 15-18 entry H          line    44 file /shared/joao/test_parameterize/miniconda3/share/psi4/basis/6-31gs.gbs 
    atoms 13-14       entry N          line   128 file /shared/joao/test_parameterize/miniconda3/share/psi4/basis/6-31gs.gbs 


         ---------------------------------------------------------
                                   SCF
            by Justin Turney, Rob Parrish, Andy Simmonett
                             and Daniel Smith
                              RKS Reference
                        4 Threads,   2861 MiB Core
         ---------------------------------------------------------

  ==> Geometry <==

    Molecular point group: c1
    Full point group: C1

    Geometry (in Angstrom), charge = 1, multiplicity = 1:

       Center              X                  Y                   Z               Mass       
    ------------   -----------------  -----------------  -----------------  -----------------
         C            0.061073760829    -0.019856461094    -0.177911593674    12.000000000000
         C            0.095687078613     1.205382774895     0.508654176359    12.000000000000
         C            0.055640340481     1.207831206899     1.901058630871    12.000000000000
         C           -0.018324899509     0.000150128258     2.603260301012    12.000000000000
         C           -0.071987969076    -1.216954426557     1.916585042655    12.000000000000
         C           -0.051912781542    -1.233874689353     0.524053317570    12.000000000000
         C            0.035141202516    -0.028338599198    -1.648129138673    12.000000000000
         H            0.136762574276     2.142926118981    -0.042492678902     1.007825032070
         H            0.080170025408     2.151293727178     2.436944332642     1.007825032070
         H           -0.044290911952     0.007777465378     3.688943579382     1.007825032070
         H           -0.137435464908    -2.152624398134     2.465169345556     1.007825032070
         H           -0.096820458807    -2.179482736561    -0.012976444570     1.007825032070
         N           -0.988523727628    -0.591981653749    -2.278861872713    14.003074004780
         N            0.990809880608     0.610408517852    -2.321067802992    14.003074004780
         H            0.971017835542     0.740670782863    -3.327306052294     1.007825032070
         H            1.804590642711     0.964972885710    -1.825628153133     1.007825032070
         H           -1.779049487764    -0.937408827836    -1.739012195346     1.007825032070
         H           -1.042548639796    -0.670892815531    -3.290282793750     1.007825032070

  Running in c1 symmetry.

  Rotational constants: A =      0.12129  B =      0.03852  C =      0.03226 [cm^-1]
  Rotational constants: A =   3636.25853  B =   1154.72329  C =    967.05521 [MHz]
  Nuclear repulsion =  416.461451179500216

  Charge       = 1
  Multiplicity = 1
  Electrons    = 64
  Nalpha       = 32
  Nbeta        = 32

  ==> Algorithm <==

  SCF Algorithm Type is DF.
  DIIS enabled.
  MOM disabled.
  Fractional occupation disabled.
  Guess Type is READ.
  Energy threshold   = 1.00e-08
  Density threshold  = 1.00e-08
  Integral threshold = 0.00e+00

  ==> Primary Basis <==

  Basis Set: 6-31G*
    Blend: 6-31G*
    Number of shells: 72
    Number of basis function: 153
    Number of Cartesian functions: 153
    Spherical Harmonics?: false
    Max angular momentum: 2

  ==> DFT Potential <==

   => Composite Functional: B3LYP-D3ZERO <= 

    B3LYP-d3zero Hyb-GGA Exchange-Correlation Functional

    P. J. Stephens, F. J. Devlin, C. F. Chabalowski, and M. J. Frisch, J. Phys. Chem. 98, 11623 (1994)

    Deriv               =              1
    GGA                 =           TRUE
    Meta                =          FALSE

    Exchange Hybrid     =           TRUE
    MP2 Hybrid          =          FALSE

   => Exchange Functionals <=

    0.0800   Slater exchange
    0.7200         Becke 88

   => Exact (HF) Exchange <=

    0.2000               HF 

   => Correlation Functionals <=

    0.1900   Vosko, Wilk & Nusair (VWN5_RPA)
    0.8100   Lee, Yang & Parr

   => Molecular Quadrature <=

    Radial Scheme       =       TREUTLER
    Pruning Scheme      =           FLAT
    Nuclear Scheme      =       TREUTLER

    BS radius alpha     =              1
    Pruning alpha       =              1
    Radial Points       =             75
    Spherical Points    =            302
    Total Points        =         397148
    Total Blocks        =           2984
    Max Points          =            256
    Max Functions       =            149

   => -D3ZERO: Empirical Dispersion <=

    Grimme's -D3 (zero-damping) Dispersion Correction
    Grimme S.; Antony J.; Ehrlich S.; Krieg H. (2010), J. Chem. Phys., 132: 154104

        S6 =   1.000000E+00
        S8 =   1.703000E+00
       SR6 =   1.261000E+00
       SR8 =   1.000000E+00
    ALPHA6 =   1.400000E+01

   => Loading Basis Set <=

    Name: (6-31G* AUX)
    Role: JKFIT
    Keyword: DF_BASIS_SCF
    atoms 1-7         entry C          line   121 file /shared/joao/test_parameterize/miniconda3/share/psi4/basis/cc-pvdz-jkfit.gbs 
    atoms 8-12, 15-18 entry H          line    51 file /shared/joao/test_parameterize/miniconda3/share/psi4/basis/cc-pvdz-jkfit.gbs 
    atoms 13-14       entry N          line   171 file /shared/joao/test_parameterize/miniconda3/share/psi4/basis/cc-pvdz-jkfit.gbs 

  Reading orbitals from file 180, no projection.

  ==> Pre-Iterations <==

   -------------------------------------------------------
    Irrep   Nso     Nmo     Nalpha   Nbeta   Ndocc  Nsocc
   -------------------------------------------------------
     A        153     153       0       0       0       0
   -------------------------------------------------------
    Total     153     153      32      32      32       0
   -------------------------------------------------------

  ==> Integral Setup <==

  ==> DiskDFJK: Density-Fitted J/K Matrices <==

    J tasked:                  Yes
    K tasked:                  Yes
    wK tasked:                  No
    OpenMP threads:              4
    Integrals threads:           4
    Memory (MB):              2002
    Algorithm:                Core
    Integral Cache:           NONE
    Schwarz Cutoff:          1E-12
    Fitting Condition:       1E-12

   => Auxiliary Basis Set <=

  Basis Set: (6-31G* AUX)
    Blend: CC-PVDZ-JKFIT
    Number of shells: 297
    Number of basis function: 954
    Number of Cartesian functions: 954
    Spherical Harmonics?: false
    Max angular momentum: 3

  Minimum eigenvalue in the overlap matrix is 4.9011704140E-04.
  Using Symmetric Orthogonalization.

  SCF Guess: Orbitals guess was supplied from a previous computation.

  ==> Iterations <==

                           Total Energy        Delta E     RMS |[F,P]|

   @DF-RKS iter   0:  -381.44446486589663   -3.81444e+02   2.22587e-03 
   @DF-RKS iter   1:  -381.46773335732678   -2.32685e-02   2.27046e-04 
   @DF-RKS iter   2:  -381.46766608316676    6.72742e-05   3.11312e-04 DIIS
   @DF-RKS iter   3:  -381.46796078309853   -2.94700e-04   6.81809e-05 DIIS
   @DF-RKS iter   4:  -381.46797324120041   -1.24581e-05   3.05763e-05 DIIS
   @DF-RKS iter   5:  -381.46797577970733   -2.53851e-06   9.06049e-06 DIIS
   @DF-RKS iter   6:  -381.46797600569340   -2.25986e-07   3.37196e-06 DIIS
   @DF-RKS iter   7:  -381.46797603700583   -3.13124e-08   7.88736e-07 DIIS
   @DF-RKS iter   8:  -381.46797603866992   -1.66409e-09   2.38535e-07 DIIS
   @DF-RKS iter   9:  -381.46797603883442   -1.64505e-10   5.14877e-08 DIIS
   @DF-RKS iter  10:  -381.46797603884164   -7.21911e-12   2.12127e-08 DIIS
   @DF-RKS iter  11:  -381.46797603884283   -1.19371e-12   5.52150e-09 DIIS

  ==> Post-Iterations <==

    Orbital Energies [Eh]
    ---------------------

    Doubly Occupied:                                                      

       1A    -14.572594     2A    -14.571812     3A    -10.499755  
       4A    -10.370363     5A    -10.353125     6A    -10.352396  
       7A    -10.338635     8A    -10.337318     9A    -10.337155  
      10A     -1.184914    11A     -1.093864    12A     -1.011325  
      13A     -0.924331    14A     -0.898441    15A     -0.844111  
      16A     -0.785340    17A     -0.768896    18A     -0.747373  
      19A     -0.729292    20A     -0.688761    21A     -0.667777  
      22A     -0.620656    23A     -0.619907    24A     -0.580234  
      25A     -0.575883    26A     -0.569488    27A     -0.517103  
      28A     -0.501102    29A     -0.494639    30A     -0.475488  
      31A     -0.408385    32A     -0.402073  

    Virtual:                                                              

      33A     -0.208572    34A     -0.153653    35A     -0.145216  
      36A     -0.110466    37A     -0.065953    38A     -0.065178  
      39A     -0.037749    40A     -0.032531    41A      0.007638  
      42A      0.014043    43A      0.022406    44A      0.055551  
      45A      0.061083    46A      0.076968    47A      0.136173  
      48A      0.144412    49A      0.161032    50A      0.166078  
      51A      0.200149    52A      0.233993    53A      0.294812  
      54A      0.345905    55A      0.357252    56A      0.383803  
      57A      0.386020    58A      0.398411    59A      0.413500  
      60A      0.424680    61A      0.446841    62A      0.448500  
      63A      0.449914    64A      0.468812    65A      0.474083  
      66A      0.478639    67A      0.486395    68A      0.505116  
      69A      0.513035    70A      0.537155    71A      0.546850  
      72A      0.580613    73A      0.593784    74A      0.645916  
      75A      0.660790    76A      0.681457    77A      0.682611  
      78A      0.699391    79A      0.704306    80A      0.708395  
      81A      0.728417    82A      0.751429    83A      0.776888  
      84A      0.796978    85A      0.811045    86A      0.832034  
      87A      0.850938    88A      0.938880    89A      0.967224  
      90A      0.993340    91A      1.009464    92A      1.025656  
      93A      1.041507    94A      1.080228    95A      1.151347  
      96A      1.174515    97A      1.216163    98A      1.277310  
      99A      1.301049   100A      1.316790   101A      1.322472  
     102A      1.341802   103A      1.358393   104A      1.374279  
     105A      1.448717   106A      1.453035   107A      1.475692  
     108A      1.596170   109A      1.636989   110A      1.646119  
     111A      1.669933   112A      1.737651   113A      1.759607  
     114A      1.794065   115A      1.826646   116A      1.852730  
     117A      1.895089   118A      1.910749   119A      1.968023  
     120A      1.980343   121A      1.999103   122A      2.006972  
     123A      2.043432   124A      2.069503   125A      2.121719  
     126A      2.133548   127A      2.159380   128A      2.188902  
     129A      2.221959   130A      2.263322   131A      2.370805  
     132A      2.376657   133A      2.419694   134A      2.452481  
     135A      2.495419   136A      2.555519   137A      2.565529  
     138A      2.590614   139A      2.599368   140A      2.630032  
     141A      2.730476   142A      2.882843   143A      2.952027  
     144A      3.257665   145A      3.631836   146A      3.644743  
     147A      3.931854   148A      3.959665   149A      3.969133  
     150A      4.077497   151A      4.182666   152A      4.259535  
     153A      4.548538  

    Final Occupation by Irrep:
              A 
    DOCC [    32 ]

  Energy converged.

  @DF-RKS Final Energy:  -381.46797603884283

   => Energetics <=

    Nuclear Repulsion Energy =            416.4614511795002159
    One-Electron Energy =               -1328.2331511012882856
    Two-Electron Energy =                 574.7111024851329830
    DFT Exchange-Correlation Energy =     -44.3954583621878029
    Empirical Dispersion Energy =          -0.0119202400000000
    VV10 Nonlocal Energy =                  0.0000000000000000
    Total Energy =                       -381.4679760388428349



Properties will be evaluated at   0.000000,   0.000000,   0.000000 [a0]

Properties computed using the SCF density matrix

  Nuclear Dipole Moment: [e a0]
     X:     1.0210      Y:    -0.6004      Z:    -0.1525

  Electronic Dipole Moment: [e a0]
     X:    -1.0554      Y:     0.6251      Z:    -2.2349

  Dipole Moment: [e a0]
     X:    -0.0343      Y:     0.0247      Z:    -2.3875     Total:     2.3878

  Dipole Moment: [D]
     X:    -0.0873      Y:     0.0627      Z:    -6.0683     Total:     6.0693


*** tstop() called on green.prib.upf.edu at Sat Sep 29 20:43:49 2018
Module time:
	user time   =      78.65 seconds =       1.31 minutes
	system time =       0.41 seconds =       0.01 minutes
	total time  =         22 seconds =       0.37 minutes
Total time:
	user time   =     202.02 seconds =       3.37 minutes
	system time =       1.14 seconds =       0.02 minutes
	total time  =         55 seconds =       0.92 minutes

*** tstart() called on green.prib.upf.edu
*** at Sat Sep 29 20:43:49 2018


         ------------------------------------------------------------
                                   SCF GRAD                          
                          Rob Parrish, Justin Turney,                
                       Andy Simmonett, and Alex Sokolov              
         ------------------------------------------------------------

  ==> Geometry <==

    Molecular point group: c1
    Full point group: C1

    Geometry (in Angstrom), charge = 1, multiplicity = 1:

       Center              X                  Y                   Z               Mass       
    ------------   -----------------  -----------------  -----------------  -----------------
         C            0.061073760829    -0.019856461094    -0.177911593674    12.000000000000
         C            0.095687078613     1.205382774895     0.508654176359    12.000000000000
         C            0.055640340481     1.207831206899     1.901058630871    12.000000000000
         C           -0.018324899509     0.000150128258     2.603260301012    12.000000000000
         C           -0.071987969076    -1.216954426557     1.916585042655    12.000000000000
         C           -0.051912781542    -1.233874689353     0.524053317570    12.000000000000
         C            0.035141202516    -0.028338599198    -1.648129138673    12.000000000000
         H            0.136762574276     2.142926118981    -0.042492678902     1.007825032070
         H            0.080170025408     2.151293727178     2.436944332642     1.007825032070
         H           -0.044290911952     0.007777465378     3.688943579382     1.007825032070
         H           -0.137435464908    -2.152624398134     2.465169345556     1.007825032070
         H           -0.096820458807    -2.179482736561    -0.012976444570     1.007825032070
         N           -0.988523727628    -0.591981653749    -2.278861872713    14.003074004780
         N            0.990809880608     0.610408517852    -2.321067802992    14.003074004780
         H            0.971017835542     0.740670782863    -3.327306052294     1.007825032070
         H            1.804590642711     0.964972885710    -1.825628153133     1.007825032070
         H           -1.779049487764    -0.937408827836    -1.739012195346     1.007825032070
         H           -1.042548639796    -0.670892815531    -3.290282793750     1.007825032070

  Nuclear repulsion =  416.461451179500216

  ==> Basis Set <==

  Basis Set: 6-31G*
    Blend: 6-31G*
    Number of shells: 72
    Number of basis function: 153
    Number of Cartesian functions: 153
    Spherical Harmonics?: false
    Max angular momentum: 2

  ==> DFJKGrad: Density-Fitted SCF Gradients <==

    Gradient:                    1
    J tasked:                  Yes
    K tasked:                  Yes
    wK tasked:                  No
    OpenMP threads:              4
    Integrals threads:           4
    Memory (MB):              2002
    Schwarz Cutoff:          0E+00
    Fitting Condition:       1E-12

   => Auxiliary Basis Set <=

  Basis Set: (6-31G* AUX)
    Blend: CC-PVDZ-JKFIT
    Number of shells: 297
    Number of basis function: 954
    Number of Cartesian functions: 954
    Spherical Harmonics?: false
    Max angular momentum: 3

  ==> DFT Potential <==

   => Composite Functional: B3LYP-D3ZERO <= 

    B3LYP-d3zero Hyb-GGA Exchange-Correlation Functional

    P. J. Stephens, F. J. Devlin, C. F. Chabalowski, and M. J. Frisch, J. Phys. Chem. 98, 11623 (1994)

    Deriv               =              1
    GGA                 =           TRUE
    Meta                =          FALSE

    Exchange Hybrid     =           TRUE
    MP2 Hybrid          =          FALSE

   => Exchange Functionals <=

    0.0800   Slater exchange
    0.7200         Becke 88

   => Exact (HF) Exchange <=

    0.2000               HF 

   => Correlation Functionals <=

    0.1900   Vosko, Wilk & Nusair (VWN5_RPA)
    0.8100   Lee, Yang & Parr

   => Molecular Quadrature <=

    Radial Scheme       =       TREUTLER
    Pruning Scheme      =           FLAT
    Nuclear Scheme      =       TREUTLER

    BS radius alpha     =              1
    Pruning alpha       =              1
    Radial Points       =             75
    Spherical Points    =            302
    Total Points        =         397148
    Total Blocks        =           2984
    Max Points          =            256
    Max Functions       =            149


  -Total Gradient:
     Atom            X                  Y                   Z
    ------   -----------------  -----------------  -----------------
       1        0.004776443949     0.004453908010    -0.002054574325
       2       -0.004931501336    -0.001046193114     0.000923625798
       3       -0.000373266610     0.000600063154    -0.000319746139
       4        0.000225049130    -0.000500438691     0.000488079699
       5        0.000644120959     0.000619431260    -0.000209400755
       6        0.000542959302    -0.000034815043     0.000386596832
       7        0.000395934411    -0.011098119685     0.003363266207
       8       -0.000025103230     0.001143435171    -0.000722346707
       9        0.000333007919     0.000079329046    -0.000042049067
      10       -0.000124396524    -0.000095925787     0.000278273826
      11       -0.000319235082    -0.000845219117     0.000381863958
      12       -0.000668236044    -0.001295781246    -0.000370999381
      13        0.000100531106     0.004647654943    -0.000898418368
      14        0.000185849055     0.001651099862    -0.002537470348
      15        0.000133969002     0.000351263218    -0.000598469178
      16        0.003304409732     0.001903106912     0.001089846607
      17       -0.004247543330    -0.000762506078     0.002406411550
      18        0.000070028606     0.000231464605    -0.001565586487


*** tstop() called on green.prib.upf.edu at Sat Sep 29 20:43:56 2018
Module time:
	user time   =      28.80 seconds =       0.48 minutes
	system time =       0.24 seconds =       0.00 minutes
	total time  =          7 seconds =       0.12 minutes
Total time:
	user time   =     230.87 seconds =       3.85 minutes
	system time =       1.39 seconds =       0.02 minutes
	total time  =         62 seconds =       1.03 minutes

			-----------------------------------------
			 OPTKING 2.0: for geometry optimizations 
			  - R.A. King,  Bethel University        
			-----------------------------------------
	At level 1: Red. Int., RFO, no backsteps, dynamic trust

	Previous internal coordinate definitions found.
	---Fragment 1 Geometry and Gradient---
	 C           0.1154126819       -0.0375232734       -0.3362041879
	 C           0.1808223730        2.2778433298        0.9612170897
	 C           0.1051450054        2.2824701958        3.5924801749
	 C          -0.0346290415        0.0002837013        4.9194490215
	 C          -0.1360375464       -2.2997105824        3.6218208410
	 C          -0.0981009399       -2.3316852452        0.9903172492
	 C           0.0664072487       -0.0535521915       -3.1145127037
	 H           0.2584438106        4.0495434879       -0.0802995258
	 H           0.1514993921        4.0653559758        4.6051573898
	 H          -0.0836976938        0.0146972796        6.9710930847
	 H          -0.2597153896       -4.0678705794        4.6584949343
	 H          -0.1829641512       -4.1186254835       -0.0245219264
	 N          -1.8680391211       -1.1186832013       -4.3064248341
	 N           1.8723593241        1.1535049279       -4.3861824835
	 H           1.8349577793        1.3996649342       -6.2876971991
	 H           3.4101820967        1.8235344797       -3.4499372299
	 H          -3.3619163087       -1.7714459592       -3.2862567910
	 H          -1.9701314094       -1.2678036859       -6.2177333799
	             0.0047764439        0.0044539080       -0.0020545743
	            -0.0049315013       -0.0010461931        0.0009236258
	            -0.0003732666        0.0006000632       -0.0003197461
	             0.0002250491       -0.0005004387        0.0004880797
	             0.0006441210        0.0006194313       -0.0002094008
	             0.0005429593       -0.0000348150        0.0003865968
	             0.0003959344       -0.0110981197        0.0033632662
	            -0.0000251032        0.0011434352       -0.0007223467
	             0.0003330079        0.0000793290       -0.0000420491
	            -0.0001243965       -0.0000959258        0.0002782738
	            -0.0003192351       -0.0008452191        0.0003818640
	            -0.0006682360       -0.0012957812       -0.0003709994
	             0.0001005311        0.0046476549       -0.0008984184
	             0.0001858491        0.0016510999       -0.0025374703
	             0.0001339690        0.0003512632       -0.0005984692
	             0.0033044097        0.0019031069        0.0010898466
	            -0.0042475433       -0.0007625061        0.0024064116
	             0.0000700286        0.0002314646       -0.0015655865

	---Fragment 1 Intrafragment Coordinates---
	 - Coordinate -           - BOHR/RAD -       - ANG/DEG -
	 R(1,2)           =         2.654902	       1.404913
	 R(1,6)           =         2.658651	       1.406898
	 R(1,7)           =         2.778787	       1.470471
	 R(2,3)           =         2.632355	       1.392982
	 R(2,8)           =         2.056624	       1.088319
	 R(3,4)           =         2.643626	       1.398947
	 R(3,9)           =         2.050938	       1.085310
	 R(4,5)           =         2.642744	       1.398480
	 R(4,10)          =         2.052281	       1.086021
	 R(5,6)           =         2.631971	       1.392779
	 R(5,11)          =         2.053382	       1.086603
	 R(6,12)          =         2.056759	       1.088390
	 R(7,13)          =         2.509430	       1.327933
	 R(7,14)          =         2.517061	       1.331971
	 R(13,17)         =         1.923151	       1.017688
	 R(13,18)         =         1.919833	       1.015932
	 R(14,15)         =         1.917747	       1.014828
	 R(14,16)         =         1.921040	       1.016570
	 B(1,2,3)         =         2.082096	     119.295297
	 B(1,2,8)         =         2.099872	     120.313828
	 B(1,6,5)         =         2.082348	     119.309768
	 B(1,6,12)        =         2.102299	     120.452837
	 B(1,7,13)        =         2.083958	     119.402021
	 B(1,7,14)        =         2.082558	     119.321770
	 B(2,1,6)         =         2.106792	     120.710283
	 B(2,1,7)         =         2.087561	     119.608442
	 B(2,3,4)         =         2.096411	     120.115495
	 B(2,3,9)         =         2.087983	     119.632591
	 B(3,2,8)         =         2.101084	     120.383225
	 B(3,4,5)         =         2.102357	     120.456211
	 B(3,4,10)        =         2.090929	     119.801427
	 B(4,3,9)         =         2.098790	     120.251805
	 B(4,5,6)         =         2.095490	     120.062744
	 B(4,5,11)        =         2.098827	     120.253918
	 B(5,4,10)        =         2.089849	     119.739530
	 B(5,6,12)        =         2.098197	     120.217853
	 B(6,1,7)         =         2.085717	     119.502765
	 B(6,5,11)        =         2.088837	     119.681558
	 B(7,13,17)       =         2.083934	     119.400597
	 B(7,13,18)       =         2.149365	     123.149528
	 B(7,14,15)       =         2.151372	     123.264549
	 B(7,14,16)       =         2.089082	     119.695577
	 B(13,7,14)       =         2.113750	     121.108980
	 B(15,14,16)      =         2.042137	     117.005848
	 B(17,13,18)      =         2.049286	     117.415466
	 D(1,2,3,4)       =        -0.000067	      -0.003834
	 D(1,2,3,9)       =        -3.139565	    -179.883835
	 D(1,6,5,4)       =         0.031406	       1.799406
	 D(1,6,5,11)      =        -3.118635	    -178.684595
	 D(1,7,13,17)     =         0.092850	       5.319917
	 D(1,7,13,18)     =        -3.086975	    -176.870613
	 D(1,7,14,15)     =        -3.006274	    -172.246831
	 D(1,7,14,16)     =         0.173487	       9.940095
	 D(2,1,6,5)       =        -0.047762	      -2.736578
	 D(2,1,6,12)      =         3.121833	     178.867868
	*D(2,1,7,13)      =        -2.094395	    -119.999989
	 D(2,1,7,14)      =         0.966095	      55.353186
	 D(2,3,4,5)       =        -0.016015	      -0.917593
	 D(2,3,4,10)      =         3.136289	     179.696142
	 D(3,2,1,6)       =         0.032060	       1.836926
	 D(3,2,1,7)       =         3.088488	     176.957325
	 D(3,4,5,6)       =         0.000093	       0.005323
	 D(3,4,5,11)      =        -3.133004	    -179.507880
	 D(4,3,2,8)       =         3.124022	     178.993280
	 D(4,5,6,12)      =        -3.138123	    -179.801194
	 D(5,4,3,9)       =         3.123470	     178.961658
	 D(5,6,1,7)       =        -3.104279	    -177.862090
	 D(6,1,2,8)       =        -3.092041	    -177.160899
	 D(6,1,7,13)      =         0.963070	      55.179820
	 D(6,1,7,14)      =        -2.259626	    -129.467005
	 D(6,5,4,10)      =         3.130980	     179.391967
	 D(7,1,2,8)       =        -0.035613	      -2.040500
	 D(7,1,6,12)      =         0.065316	       3.742356
	 D(8,2,3,9)       =        -0.015476	      -0.886720
	 D(9,3,4,10)      =        -0.007411	      -0.424607
	 D(10,4,5,11)     =        -0.002116	      -0.121237
	 D(11,5,6,12)     =        -0.004978	      -0.285194
	 D(13,7,14,15)    =         0.052791	       3.024694
	 D(13,7,14,16)    =        -3.050633	    -174.788380
	 D(14,7,13,17)    =        -2.966150	    -169.947872
	 D(14,7,13,18)    =         0.137211	       7.861598

	Current energy   :      -381.4679760388

	Energy change for the previous step:
		Projected    :        -0.0030486621
		Actual       :        -0.0008219214

	Performing BFGS update.
	Previous computed or guess Hessian on step 1.
	Steps to be used in Hessian update: 1
	Taking RFO optimization step.
	Going to follow RFO solution 1.
	Using RFO vector 1.
	Norm of target step-size    0.10251
	Projected energy change by RFO approximation:        -0.0005150581

	Back-transformation to cartesian coordinates...
	Could not converge backtransformation.
	Using first guess instead.

	Back-transformation to cartesian coordinates to adjust frozen coordinates...
	Successfully converged to displaced geometry.

	--- Internal Coordinate Step in ANG or DEG, aJ/ANG or AJ/DEG ---
	 ---------------------------------------------------------------------------
	   Coordinate                Previous        Force       Change         New 
	   ----------                --------       ------       ------       ------
	    1 R(1,2)          =      1.404913    -0.000845    -0.000325     1.404589
	    2 R(1,6)          =      1.406898    -0.011063    -0.001650     1.405247
	    3 R(1,7)          =      1.470471     0.010222     0.002082     1.472553
	    4 R(2,3)          =      1.392982    -0.002111    -0.000065     1.392917
	    5 R(2,8)          =      1.088319    -0.011119    -0.001786     1.086533
	    6 R(3,4)          =      1.398947    -0.008047    -0.001003     1.397943
	    7 R(3,9)          =      1.085310    -0.000457    -0.000023     1.085286
	    8 R(4,5)          =      1.398480    -0.001872    -0.000268     1.398212
	    9 R(4,10)         =      1.086021    -0.002311    -0.000343     1.085677
	   10 R(5,6)          =      1.392779    -0.002572    -0.000151     1.392628
	   11 R(5,11)         =      1.086603    -0.007745    -0.001253     1.085350
	   12 R(6,12)         =      1.088390    -0.011012    -0.001737     1.086652
	   13 R(7,13)         =      1.327933    -0.011763    -0.001352     1.326581
	   14 R(7,14)         =      1.331971    -0.045332    -0.004540     1.327431
	   15 R(13,17)        =      1.017688    -0.039850    -0.004161     1.013527
	   16 R(13,18)        =      1.015932    -0.012659    -0.001419     1.014513
	   17 R(14,15)        =      1.014828    -0.005243    -0.000517     1.014310
	   18 R(14,16)        =      1.016570    -0.031620    -0.003803     1.012767
	   19 B(1,2,3)        =    119.295297    -0.000004    -0.034944   119.260353
	   20 B(1,2,8)        =    120.313828     0.000005    -0.007526   120.306302
	   21 B(1,6,5)        =    119.309768     0.000003    -0.022209   119.287559
	   22 B(1,6,12)       =    120.452837    -0.000029    -0.152352   120.300485
	   23 B(1,7,13)       =    119.402021     0.000020     0.031218   119.433239
	   24 B(1,7,14)       =    119.321770     0.000018     0.020703   119.342473
	   25 B(2,1,6)        =    120.710283     0.000008     0.063197   120.773480
	   26 B(2,1,7)        =    119.608442    -0.000064    -0.246343   119.362099
	   27 B(2,3,4)        =    120.115495    -0.000010    -0.017934   120.097561
	   28 B(2,3,9)        =    119.632591     0.000012     0.036700   119.669290
	   29 B(3,2,8)        =    120.383225    -0.000002     0.039791   120.423017
	   30 B(3,4,5)        =    120.456211     0.000009     0.025907   120.482118
	   31 B(3,4,10)       =    119.801427    -0.000013    -0.045695   119.755732
	   32 B(4,3,9)        =    120.251805    -0.000002    -0.020594   120.231211
	   33 B(4,5,6)        =    120.062744    -0.000007    -0.014671   120.048073
	   34 B(4,5,11)       =    120.253918    -0.000005    -0.018533   120.235386
	   35 B(5,4,10)       =    119.739530     0.000003     0.021432   119.760962
	   36 B(5,6,12)       =    120.217853     0.000026     0.166175   120.384027
	   37 B(6,1,7)        =    119.502765     0.000054     0.063226   119.565991
	   38 B(6,5,11)       =    119.681558     0.000011     0.034737   119.716296
	   39 B(7,13,17)      =    119.400597    -0.000023    -0.131826   119.268771
	   40 B(7,13,18)      =    123.149528     0.000034     0.197892   123.347420
	   41 B(7,14,15)      =    123.264549     0.000021     0.114311   123.378860
	   42 B(7,14,16)      =    119.695577    -0.000081    -0.387499   119.308077
	   43 B(13,7,14)      =    121.108980    -0.000034     0.049444   121.158424
	   44 B(15,14,16)     =    117.005848     0.000059     0.250899   117.256748
	   45 B(17,13,18)     =    117.415466    -0.000009    -0.033767   117.381699
	   46 D(1,2,3,4)      =     -0.003834     0.000001     0.023583     0.019749
	   47 D(1,2,3,9)      =   -179.883835     0.000003     0.408783  -179.475052
	   48 D(1,6,5,4)      =      1.799406    -0.000000     0.118746     1.918152
	   49 D(1,6,5,11)     =   -178.684595     0.000003     0.422880  -178.261715
	   50 D(1,7,13,17)    =      5.319917    -0.000008    -1.483621     3.836295
	   51 D(1,7,13,18)    =   -176.870613     0.000010     1.249723  -175.620891
	   52 D(1,7,14,15)    =   -172.246831    -0.000009    -1.300528  -173.547359
	   53 D(1,7,14,16)    =      9.940095    -0.000003    -0.680703     9.259392
	   54 D(2,1,6,5)      =     -2.736578     0.000002    -0.029500    -2.766078
	   55 D(2,1,6,12)     =    178.867868     0.000004     0.280761   179.148629
	   56 *D(2,1,7,13)    =   -119.999989    -0.000000    -0.000000  -119.999989
	   57 D(2,1,7,14)     =     55.353186     0.000012     1.730293    57.083479
	   58 D(2,3,4,5)      =     -0.917593     0.000001     0.067901    -0.849693
	   59 D(2,3,4,10)     =    179.696142    -0.000001    -0.148280   179.547862
	   60 D(3,2,1,6)      =      1.836926    -0.000002    -0.041427     1.795499
	   61 D(3,2,1,7)      =    176.957325    -0.000006    -1.462848   175.494477
	   62 D(3,4,5,6)      =      0.005323    -0.000001    -0.139530    -0.134207
	   63 D(3,4,5,11)     =   -179.507880    -0.000004    -0.445517  -179.953398
	   64 D(4,3,2,8)      =    178.993280    -0.000002    -0.138940   178.854340
	   65 D(4,5,6,12)     =   -179.801194    -0.000003    -0.196997  -179.998191
	   66 D(5,4,3,9)      =    178.961658    -0.000002    -0.319412   178.642245
	   67 D(5,6,1,7)      =   -177.862090     0.000008     1.409766  -176.452324
	   68 D(6,1,2,8)      =   -177.160899     0.000001     0.120417  -177.040483
	   69 D(6,1,7,13)     =     55.179820    -0.000005    -1.403800    53.776020
	   70 D(6,1,7,14)     =   -129.467005     0.000007     0.326493  -129.140512
	   71 D(6,5,4,10)     =    179.391967     0.000001     0.076251   179.468218
	   72 D(7,1,2,8)      =     -2.040500    -0.000004    -1.301004    -3.341505
	   73 D(7,1,6,12)     =      3.742356     0.000010     1.720027     5.462383
	   74 D(8,2,3,9)      =     -0.886720     0.000001     0.246260    -0.640460
	   75 D(9,3,4,10)     =     -0.424607    -0.000004    -0.535594    -0.960201
	   76 D(10,4,5,11)    =     -0.121237    -0.000002    -0.229736    -0.350972
	   77 D(11,5,6,12)    =     -0.285194    -0.000000     0.107137    -0.178058
	   78 D(13,7,14,15)   =      3.024694     0.000004     0.459603     3.484297
	   79 D(13,7,14,16)   =   -174.788380     0.000011     1.079428  -173.708953
	   80 D(14,7,13,17)   =   -169.947872    -0.000022    -3.244836  -173.192708
	   81 D(14,7,13,18)   =      7.861598    -0.000003    -0.511492     7.350106
	 ---------------------------------------------------------------------------
	Successfully symmetrized geometry.

  ==> Convergence Check <==

  Measures of convergence in internal coordinates in au.
  Criteria marked as inactive (o), active & met (*), and active & unmet ( ).
  ---------------------------------------------------------------------------------------------
   Step     Total Energy     Delta E     MAX Force     RMS Force      MAX Disp      RMS Disp   
  ---------------------------------------------------------------------------------------------
    Convergence Criteria    1.00e-06 *    3.00e-04 *             o    1.20e-03 *             o
  ---------------------------------------------------------------------------------------------
      2    -381.46797604   -8.22e-04      5.50e-03      1.06e-03 o    5.66e-02      1.14e-02 o  ~
  ---------------------------------------------------------------------------------------------

	Writing optimization data to binary file.
	Structure for next step:
	Cartesian Geometry (in Angstrom)
	    C     0.0756703641  -0.0142547996  -0.1769797524
	    C     0.1069261510   1.2091298137   0.5123840942
	    C     0.0542071293   1.2078166336   1.9043024552
	    C    -0.0284057547  -0.0010016250   2.6015681761
	    C    -0.0767205169  -1.2160414296   1.9113945844
	    C    -0.0454906926  -1.2289178967   0.5191761818
	    C     0.0304254046  -0.0127019465  -1.6488364768
	    H     0.1524852225   2.1462486412  -0.0355997055
	    H     0.0692984171   2.1496439553   2.4433571710
	    H    -0.0617706627   0.0040849643   3.6867204873
	    H    -0.1415963153  -2.1521728312   2.4567701956
	    H    -0.0827761018  -2.1700613862  -0.0227388722
	    N    -0.9944312560  -0.5814509501  -2.2701348358
	    N     0.9865008097   0.6087833664  -2.3283576330
	    H     0.9669581397   0.7298894397  -3.3352224651
	    H     1.8033934106   0.9493202844  -1.8359975956
	    H    -1.7597997992  -0.9568937061  -1.7219643760
	    H    -1.0548749494  -0.6714215276  -3.2788416332
			--------------------------
			 OPTKING Finished Execution 
			--------------------------

    Structure for next step:
    Molecular point group: c1
    Full point group: C1

    Geometry (in Angstrom), charge = 1, multiplicity = 1:

    C            0.075670364056    -0.014254799646    -0.176979752446
    C            0.106926151038     1.209129813710     0.512384094245
    C            0.054207129286     1.207816633625     1.904302455211
    C           -0.028405754677    -0.001001624964     2.601568176125
    C           -0.076720516946    -1.216041429588     1.911394584389
    C           -0.045490692599    -1.228917896697     0.519176181756
    C            0.030425404614    -0.012701946489    -1.648836476773
    H            0.152485222473     2.146248641176    -0.035599705514
    H            0.069298417144     2.149643955289     2.443357170981
    H           -0.061770662736     0.004084964258     3.686720487334
    H           -0.141596315302    -2.152172831163     2.456770195589
    H           -0.082776101796    -2.170061386222    -0.022738872231
    N           -0.994431255969    -0.581450950066    -2.270134835767
    N            0.986500809674     0.608783366427    -2.328357633015
    H            0.966958139688     0.729889439661    -3.335222465127
    H            1.803393410635     0.949320284404    -1.835997595571
    H           -1.759799799232    -0.956893706128    -1.721964376023
    H           -1.054874949352    -0.671421527586    -3.278841633162

gradient() will perform analytic gradient computation.

*** tstart() called on green.prib.upf.edu
*** at Sat Sep 29 20:43:56 2018

   => Loading Basis Set <=

    Name: 6-31G*
    Role: ORBITAL
    Keyword: BASIS
    atoms 1-7         entry C          line   111 file /shared/joao/test_parameterize/miniconda3/share/psi4/basis/6-31gs.gbs 
    atoms 8-12, 15-18 entry H          line    44 file /shared/joao/test_parameterize/miniconda3/share/psi4/basis/6-31gs.gbs 
    atoms 13-14       entry N          line   128 file /shared/joao/test_parameterize/miniconda3/share/psi4/basis/6-31gs.gbs 


         ---------------------------------------------------------
                                   SCF
            by Justin Turney, Rob Parrish, Andy Simmonett
                             and Daniel Smith
                              RKS Reference
                        4 Threads,   2861 MiB Core
         ---------------------------------------------------------

  ==> Geometry <==

    Molecular point group: c1
    Full point group: C1

    Geometry (in Angstrom), charge = 1, multiplicity = 1:

       Center              X                  Y                   Z               Mass       
[...]
	             0.0000102813        0.0000056831        0.0000208654
	             0.0012304306       -0.0058072601       -0.0000904502
	            -0.0000034364        0.0000053550       -0.0000011550
	             0.0000051732       -0.0000010920        0.0000019843
	             0.0000036041        0.0000005204        0.0000029586
	            -0.0000024985       -0.0000005589        0.0000043648
	             0.0000004663       -0.0000036136       -0.0000077614
	            -0.0022476040        0.0040409355        0.0000882836
	            -0.0000271351        0.0000220384       -0.0000026416
	             0.0000093986       -0.0000098915       -0.0000007362
	             0.0000182906        0.0000003759        0.0000103322
	            -0.0000015006        0.0000070940       -0.0000009632
	            -0.0000002227        0.0000087342       -0.0000086936

	---Fragment 1 Intrafragment Coordinates---
	 - Coordinate -           - BOHR/RAD -       - ANG/DEG -
	 R(1,2)           =         2.654883	       1.404903
	 R(1,6)           =         2.655009	       1.404970
	 R(1,7)           =         2.784344	       1.473411
	 R(2,3)           =         2.632312	       1.392959
	 R(2,8)           =         2.052888	       1.086342
	 R(3,4)           =         2.641414	       1.397776
	 R(3,9)           =         2.050809	       1.085241
	 R(4,5)           =         2.642405	       1.398300
	 R(4,10)          =         2.051578	       1.085648
	 R(5,6)           =         2.631462	       1.392510
	 R(5,11)          =         2.050789	       1.085231
	 R(6,12)          =         2.053289	       1.086554
	 R(7,13)          =         2.507162	       1.326733
	 R(7,14)          =         2.507398	       1.326858
	 R(13,17)         =         1.912817	       1.012219
	 R(13,18)         =         1.916537	       1.014188
	 R(14,15)         =         1.916361	       1.014095
	 R(14,16)         =         1.912915	       1.012271
	 B(1,2,3)         =         2.081453	     119.258466
	 B(1,2,8)         =         2.100858	     120.370309
	 B(1,6,5)         =         2.082260	     119.304687
	 B(1,6,12)        =         2.099955	     120.318538
	 B(1,7,13)        =         2.082679	     119.328744
	 B(1,7,14)        =         2.083679	     119.386021
	 B(2,1,6)         =         2.107934	     120.775730
	 B(2,1,7)         =         2.081062	     119.236051
	 B(2,3,4)         =         2.095863	     120.084098
	 B(2,3,9)         =         2.088934	     119.687102
	 B(3,2,8)         =         2.100673	     120.359696
	 B(3,4,5)         =         2.103219	     120.505561
	 B(3,4,10)        =         2.090013	     119.748909
	 B(4,3,9)         =         2.098353	     120.226766
	 B(4,5,6)         =         2.094976	     120.033256
	 B(4,5,11)        =         2.098248	     120.220758
	 B(5,4,10)        =         2.089940	     119.744713
	 B(5,6,12)        =         2.100333	     120.340213
	 B(6,1,7)         =         2.090215	     119.760503
	 B(6,5,11)        =         2.089961	     119.745935
	 B(7,13,17)       =         2.082108	     119.295982
	 B(7,13,18)       =         2.152449	     123.326237
	 B(7,14,15)       =         2.153300	     123.375016
	 B(7,14,16)       =         2.082122	     119.296812
	 B(13,7,14)       =         2.115171	     121.190351
	 B(15,14,16)      =         2.047192	     117.295477
	 B(17,13,18)      =         2.048224	     117.354603
	 D(1,2,3,4)       =         0.000325	       0.018602
	 D(1,2,3,9)       =        -3.132232	    -179.463697
	 D(1,6,5,4)       =         0.030504	       1.747736
	 D(1,6,5,11)      =        -3.112511	    -178.333761
	 D(1,7,13,17)     =         0.049385	       2.829533
	 D(1,7,13,18)     =        -3.060805	    -175.371195
	 D(1,7,14,15)     =        -3.023077	    -173.209537
	 D(1,7,14,16)     =         0.155833	       8.928575
	 D(2,1,6,5)       =        -0.041949	      -2.403502
	 D(2,1,6,12)      =         3.137894	     179.788077
	*D(2,1,7,13)      =        -2.094395	    -119.999989
	 D(2,1,7,14)      =         0.986132	      56.501175
	 D(2,3,4,5)       =        -0.011492	      -0.658454
	 D(2,3,4,10)      =         3.135852	     179.671068
	 D(3,2,1,6)       =         0.026505	       1.518643
	 D(3,2,1,7)       =         3.072179	     176.022906
	 D(3,4,5,6)       =        -0.004153	      -0.237946
	 D(3,4,5,11)      =         3.138869	     179.843941
	 D(4,3,2,8)       =         3.120441	     178.788091
	 D(4,5,6,12)      =         3.133838	     179.555671
	 D(5,4,3,9)       =         3.121016	     178.821027
	 D(5,6,1,7)       =        -3.087123	    -176.879144
	 D(6,1,2,8)       =        -3.093609	    -177.250712
	 D(6,1,7,13)      =         0.952269	      54.560986
	 D(6,1,7,14)      =        -2.250390	    -128.937850
	 D(6,5,4,10)      =         3.131689	     179.432546
	 D(7,1,2,8)       =        -0.047935	      -2.746449
	 D(7,1,6,12)      =         0.092719	       5.312436
	 D(8,2,3,9)       =        -0.012116	      -0.694208
	 D(9,3,4,10)      =        -0.014826	      -0.849451
	 D(10,4,5,11)     =        -0.008475	      -0.485567
	 D(11,5,6,12)     =        -0.009177	      -0.525826
	 D(13,7,14,15)    =         0.056280	       3.224579
	 D(13,7,14,16)    =        -3.047996	    -174.637310
	 D(14,7,13,17)    =        -3.030007	    -173.606590
	 D(14,7,13,18)    =         0.142989	       8.192682

	Current energy   :      -381.4681732022

	Energy change for the previous step:
		Projected    :        -0.0000008901
		Actual       :        -0.0000002603

	Performing BFGS update.
	Previous computed or guess Hessian on step 1.
	Steps to be used in Hessian update: 5 4
	Taking RFO optimization step.
	Going to follow RFO solution 1.
	Rejecting RFO root 1 because normalization gives large value.
	Rejecting RFO root 2 because normalization gives large value.
	Using RFO vector 3.
	Norm of target step-size    0.00142
	Projected energy change by RFO approximation:        -0.0000000616

	Back-transformation to cartesian coordinates...
	Successfully converged to displaced geometry.

	Back-transformation to cartesian coordinates to adjust frozen coordinates...
	Successfully converged to displaced geometry.

	--- Internal Coordinate Step in ANG or DEG, aJ/ANG or AJ/DEG ---
	 ---------------------------------------------------------------------------
	   Coordinate                Previous        Force       Change         New 
	   ----------                --------       ------       ------       ------
	    1 R(1,2)          =      1.404903    -0.000044    -0.000002     1.404901
	    2 R(1,6)          =      1.404970    -0.000015    -0.000009     1.404961
	    3 R(1,7)          =      1.473411    -0.000228    -0.000042     1.473370
	    4 R(2,3)          =      1.392959    -0.000100    -0.000012     1.392947
	    5 R(2,8)          =      1.086342    -0.000039    -0.000001     1.086341
	    6 R(3,4)          =      1.397776     0.000074     0.000011     1.397788
	    7 R(3,9)          =      1.085241     0.000001     0.000000     1.085242
	    8 R(4,5)          =      1.398300    -0.000081    -0.000013     1.398288
	    9 R(4,10)         =      1.085648    -0.000025    -0.000003     1.085645
	   10 R(5,6)          =      1.392510     0.000042     0.000009     1.392519
	   11 R(5,11)         =      1.085231    -0.000026    -0.000001     1.085229
	   12 R(6,12)         =      1.086554    -0.000059    -0.000004     1.086550
	   13 R(7,13)         =      1.326733     0.000048     0.000011     1.326744
	   14 R(7,14)         =      1.326858     0.000022     0.000005     1.326863
	   15 R(13,17)        =      1.012219    -0.000004     0.000017     1.012236
	   16 R(13,18)        =      1.014188    -0.000060    -0.000001     1.014187
	   17 R(14,15)        =      1.014095     0.000001     0.000003     1.014097
	   18 R(14,16)        =      1.012271    -0.000143    -0.000007     1.012265
	   19 B(1,2,3)        =    119.258466     0.000000     0.001613   119.260079
	   20 B(1,2,8)        =    120.370309    -0.000000    -0.000451   120.369858
	   21 B(1,6,5)        =    119.304687     0.000000     0.000919   119.305607
	   22 B(1,6,12)       =    120.318538     0.000000     0.002148   120.320686
	   23 B(1,7,13)       =    119.328744     0.000001     0.005103   119.333847
	   24 B(1,7,14)       =    119.386021    -0.000000    -0.000152   119.385870
	   25 B(2,1,6)        =    120.775730    -0.000000    -0.002189   120.773542
	   26 B(2,1,7)        =    119.236051     0.000002     0.005424   119.241476
	   27 B(2,3,4)        =    120.084098     0.000000     0.000207   120.084304
	   28 B(2,3,9)        =    119.687102    -0.000000    -0.000837   119.686264
	   29 B(3,2,8)        =    120.359696    -0.000000    -0.000969   120.358727
	   30 B(3,4,5)        =    120.505561    -0.000000    -0.001582   120.503980
	   31 B(3,4,10)       =    119.748909     0.000000     0.001234   119.750144
	   32 B(4,3,9)        =    120.226766     0.000000     0.000662   120.227428
	   33 B(4,5,6)        =    120.033256     0.000000     0.000702   120.033958
	   34 B(4,5,11)       =    120.220758     0.000000     0.001016   120.221774
	   35 B(5,4,10)       =    119.744713     0.000000     0.000263   119.744976
	   36 B(5,6,12)       =    120.340213    -0.000000    -0.003191   120.337022
	   37 B(6,1,7)        =    119.760503    -0.000002    -0.003420   119.757083
	   38 B(6,5,11)       =    119.745935    -0.000000    -0.001703   119.744232
	   39 B(7,13,17)      =    119.295982    -0.000000    -0.000553   119.295429
	   40 B(7,13,18)      =    123.326237     0.000000    -0.000062   123.326175
	   41 B(7,14,15)      =    123.375016    -0.000000    -0.001075   123.373941
	   42 B(7,14,16)      =    119.296812     0.000000     0.002518   119.299330
	   43 B(13,7,14)      =    121.190351    -0.000001    -0.004578   121.185773
	   44 B(15,14,16)     =    117.295477    -0.000000    -0.000038   117.295439
	   45 B(17,13,18)     =    117.354603    -0.000000    -0.000650   117.353953
	   46 D(1,2,3,4)      =      0.018602    -0.000000    -0.000798     0.017804
	   47 D(1,2,3,9)      =   -179.463697     0.000000    -0.004787  -179.468484
	   48 D(1,6,5,4)      =      1.747736     0.000000    -0.004867     1.742868
	   49 D(1,6,5,11)     =   -178.333761     0.000000     0.008161  -178.325600
	   50 D(1,7,13,17)    =      2.829533    -0.000000    -0.018916     2.810617
	   51 D(1,7,13,18)    =   -175.371195     0.000000     0.029497  -175.341698
	   52 D(1,7,14,15)    =   -173.209537     0.000000     0.024481  -173.185055
	   53 D(1,7,14,16)    =      8.928575    -0.000000    -0.021971     8.906603
	   54 D(2,1,6,5)      =     -2.403502    -0.000000    -0.009924    -2.413426
	   55 D(2,1,6,12)     =    179.788077    -0.000000    -0.006138   179.781939
	   56 *D(2,1,7,13)    =   -119.999989    -0.000000    -0.000000  -119.999989
	   57 D(2,1,7,14)     =     56.501175     0.000000     0.006730    56.507906
	   58 D(2,3,4,5)      =     -0.658454    -0.000000    -0.014012    -0.672466
	   59 D(2,3,4,10)     =    179.671068     0.000000     0.002617   179.673685
	   60 D(3,2,1,6)      =      1.518643     0.000000     0.012775     1.531418
	   61 D(3,2,1,7)      =    176.022906     0.000000     0.010372   176.033278
	   62 D(3,4,5,6)      =     -0.237946     0.000000     0.016902    -0.221044
	   63 D(3,4,5,11)     =    179.843941     0.000000     0.003814   179.847755
	   64 D(4,3,2,8)      =    178.788091     0.000000     0.009563   178.797654
	   65 D(4,5,6,12)     =    179.555671    -0.000000    -0.008534   179.547137
	   66 D(5,4,3,9)      =    178.821027    -0.000000    -0.010009   178.811018
	   67 D(5,6,1,7)      =   -176.879144    -0.000000    -0.007991  -176.887135
	   68 D(6,1,2,8)      =   -177.250712     0.000000     0.002420  -177.248293
	   69 D(6,1,7,13)     =     54.560986    -0.000000    -0.002316    54.558669
	   70 D(6,1,7,14)     =   -128.937850     0.000000     0.004414  -128.933436
	   71 D(6,5,4,10)     =    179.432546    -0.000000     0.000277   179.432823
	   72 D(7,1,2,8)      =     -2.746449    -0.000000     0.000016    -2.746433
	   73 D(7,1,6,12)     =      5.312436    -0.000000    -0.004205     5.308230
	   74 D(8,2,3,9)      =     -0.694208     0.000000     0.005574    -0.688634
	   75 D(9,3,4,10)     =     -0.849451     0.000000     0.006620    -0.842831
	   76 D(10,4,5,11)    =     -0.485567    -0.000000    -0.012811    -0.498378
	   77 D(11,5,6,12)    =     -0.525826    -0.000000     0.004494    -0.521332
	   78 D(13,7,14,15)   =      3.224579     0.000000     0.031692     3.256271
	   79 D(13,7,14,16)   =   -174.637310    -0.000000    -0.014761  -174.652071
	   80 D(14,7,13,17)   =   -173.606590    -0.000000    -0.025938  -173.632528
	   81 D(14,7,13,18)   =      8.192682     0.000000     0.022474     8.215156
	 ---------------------------------------------------------------------------
	Successfully symmetrized geometry.

  ==> Convergence Check <==

  Measures of convergence in internal coordinates in au.
  Criteria marked as inactive (o), active & met (*), and active & unmet ( ).
  ---------------------------------------------------------------------------------------------
   Step     Total Energy     Delta E     MAX Force     RMS Force      MAX Disp      RMS Disp   
  ---------------------------------------------------------------------------------------------
    Convergence Criteria    1.00e-06 *    3.00e-04 *             o    1.20e-03 *             o
  ---------------------------------------------------------------------------------------------
      6    -381.46817320   -2.60e-07 *    2.76e-05 *    7.05e-06 o    5.53e-04 *    1.57e-04 o  ~
  ---------------------------------------------------------------------------------------------


  **** Optimization is complete! (in 6 steps) ****

  ==> Optimization Summary <==

  Measures of convergence in internal coordinates in au.
  --------------------------------------------------------------------------------------------------------------- ~
   Step         Total Energy             Delta E       MAX Force       RMS Force        MAX Disp        RMS Disp  ~
  --------------------------------------------------------------------------------------------------------------- ~
      1    -381.467154117456   -381.467154117456      0.00461340      0.00123963      0.16523062      0.03427338  ~
      2    -381.467976038843     -0.000821921387      0.00550233      0.00106016      0.05663307      0.01138766  ~
      3    -381.468151389567     -0.000175350724      0.00115486      0.00021578      0.01462851      0.00476086  ~
      4    -381.468169806824     -0.000018417256      0.00052262      0.00012036      0.00495333      0.00138192  ~
      5    -381.468172941895     -0.000003135071      0.00012897      0.00002417      0.00209669      0.00056864  ~
      6    -381.468173202195     -0.000000260300      0.00002763      0.00000705      0.00055312      0.00015730  ~
  --------------------------------------------------------------------------------------------------------------- ~

	Writing optimization data to binary file.
	Final energy is   -381.4681732021946
	Final (previous) structure:
	Cartesian Geometry (in Angstrom)
	    C     0.0680988988  -0.0179511635  -0.1772417703
	    C     0.1054671552   1.2066595000   0.5102797677
	    C     0.0571851276   1.2076078447   1.9024017815
	    C    -0.0270694969   0.0000905922   2.6013877364
	    C    -0.0774846733  -1.2162462000   1.9134729874
	    C    -0.0488777482  -1.2313114657   0.5213385157
	    C     0.0300193178  -0.0154372072  -1.6501589388
	    H     0.1511756539   2.1432770326  -0.0381696164
	    H     0.0767960876   2.1499936301   2.4402433158
	    H    -0.0589827531   0.0068969250   3.6865456016
	    H    -0.1403152084  -2.1511877396   2.4608872992
	    H    -0.0805313313  -2.1739611010  -0.0181134483
	    N    -0.9972876643  -0.5765877164  -2.2746359644
	    N     0.9870648831   0.6082820603  -2.3251330354
	    H     0.9690311375   0.7339310306  -3.3312519455
	    H     1.7982097661   0.9548346539  -1.8285062888
	    H    -1.7594058018  -0.9592371634  -1.7293447010
	    H    -1.0530943504  -0.6696545127  -3.2830012962
	Saving final (previous) structure.
	Removing binary optimization data file.
			--------------------------
			 OPTKING Finished Execution 
			--------------------------

    Final optimized geometry and variables:
    Molecular point group: c1
    Full point group: C1

    Geometry (in Angstrom), charge = 1, multiplicity = 1:

    C            0.068098898845    -0.017951163458    -0.177241770250
    C            0.105467155178     1.206659499980     0.510279767650
    C            0.057185127629     1.207607844749     1.902401781461
    C           -0.027069496852     0.000090592226     2.601387736381
    C           -0.077484673298    -1.216246200029     1.913472987434
    C           -0.048877748176    -1.231311465717     0.521338515650
    C            0.030019317787    -0.015437207186    -1.650158938778
    H            0.151175653903     2.143277032621    -0.038169616402
    H            0.076796087606     2.149993630087     2.440243315795
    H           -0.058982753053     0.006896925007     3.686545601575
    H           -0.140315208360    -2.151187739638     2.460887299151
    H           -0.080531331304    -2.173961100955    -0.018113448319
    N           -0.997287664314    -0.576587716369    -2.274635964422
    N            0.987064883062     0.608282060269    -2.325133035434
    H            0.969031137537     0.733931030622    -3.331251945542
    H            1.798209766089     0.954834653875    -1.828506288828
    H           -1.759405801840    -0.959237163358    -1.729344700961
    H           -1.053094350438    -0.669654512727    -3.283001296159

	Removing binary optimization data file.
	Cleaning optimization helper files.


Properties will be evaluated at   0.000000,   0.000000,   0.000000 [a0]
OEProp: No title given, name of density matrix used for the following properties is 'SCF density'
  Nuclear Dipole Moment: [e a0]
     X:     0.8983      Y:    -0.2698      Z:    -0.2083

  Electronic Dipole Moment: [e a0]
     X:    -0.9180      Y:     0.2730      Z:    -2.1838

  Dipole Moment: [e a0]
     X:    -0.0197      Y:     0.0032      Z:    -2.3921     Total:     2.3922

  Dipole Moment: [D]
     X:    -0.0500      Y:     0.0082      Z:    -6.0801     Total:     6.0803

  Quadrupole Moment: [D A]
    XX:   -45.1929     YY:   -41.9544     ZZ:   -13.5850
    XY:     6.0576     XZ:    -0.2608     YZ:    -0.2962

  Traceless Quadrupole Moment: [D A]
    XX:   -11.6155     YY:    -8.3769     ZZ:    19.9924
    XY:     6.0576     XZ:    -0.2608     YZ:    -0.2962

  Mulliken Charges: (a.u.)
   Center  Symbol    Alpha    Beta     Spin     Total
       1     C     2.97701  2.97701  0.00000  0.04599
       2     C     3.07383  3.07383  0.00000 -0.14767
       3     C     3.06215  3.06215  0.00000 -0.12430
       4     C     3.05246  3.05246  0.00000 -0.10493
       5     C     3.06310  3.06310  0.00000 -0.12620
       6     C     3.07839  3.07839  0.00000 -0.15678
       7     C     2.73633  2.73633  0.00000  0.52735
       8     H     0.41333  0.41333  0.00000  0.17335
       9     H     0.40627  0.40627  0.00000  0.18746
      10     H     0.40523  0.40523  0.00000  0.18953
      11     H     0.40630  0.40630  0.00000  0.18741
      12     H     0.41349  0.41349  0.00000  0.17302
      13     N     3.85209  3.85209  0.00000 -0.70418
      14     N     3.85413  3.85413  0.00000 -0.70826
      15     H     0.30546  0.30546  0.00000  0.38909
      16     H     0.29747  0.29747  0.00000  0.40506
      17     H     0.29751  0.29751  0.00000  0.40499
      18     H     0.30546  0.30546  0.00000  0.38909

   Total alpha = 32.00000, Total beta = 32.00000, Total charge =  1.00000


    Psi4 stopped on: Saturday, 29 September 2018 08:45PM
    Psi4 wall time for execution: 0:02:43.98

*** Psi4 exiting successfully. Buy a developer a beer!
