
    -----------------------------------------------------------------------
          Psi4: An Open-Source Ab Initio Electronic Structure Package
                               Psi4 1.2.1 release

                         Git: Rev {HEAD} 406f4de 


    R. M. Parrish, L. A. Burns, D. G. A. Smith, A. C. Simmonett,
    A. E. DePrince III, E. G. Hohenstein, U. Bozkaya, A. Yu. Sokolov,
    R. Di Remigio, R. M. Richard, J. F. Gonthier, A. M. James,
    H. R. McAlexander, A. Kumar, M. Saitow, X. Wang, B. P. Pritchard,
    P. Verma, H. F. Schaefer III, K. Patkowski, R. A. King, E. F. Valeev,
    F. A. Evangelista, J. M. Turney, T. D. Crawford, and C. D. Sherrill,
    J. Chem. Theory Comput. 13(7) pp 3185--3197 (2017).
    (doi: 10.1021/acs.jctc.7b00174)


                         Additional Contributions by
    P. Kraus, H. Kruse, M. H. Lechner, M. C. Schieber, and R. A. Shaw

    -----------------------------------------------------------------------


    Psi4 started on: Saturday, 29 September 2018 05:09PM

    Process ID: 13418
    Host:       loro.prib.upf.edu
    PSIDATADIR: /shared/joao/test_parameterize/miniconda3/share/psi4
    Memory:     500.0 MiB
    Threads:    1
    
  ==> Input File <==

--------------------------------------------------------------------------
set_num_threads(1)
set_memory('5348 MB')

set { scf_mem_safety_factor 0.7 }

set { reference rks }
set { basis cc-pVDZ }

molecule MOL {
    0 1
    noreorient
    nocom
    symmetry c1
    O    1.050400   0.042900  -0.048100
    C    2.474100   0.047400  -0.029000
    C    3.002600  -1.068900  -0.932000
    N    4.462700  -1.072400  -1.006800
    H    0.760400   0.728400   0.578000
    H    2.809900  -0.097900   1.003200
    H    2.817400   1.026800  -0.378600
    H    2.581000  -0.963300  -1.938400
    H    2.653800  -2.036400  -0.553400
    H    4.809030  -0.120799  -0.888510
    H    4.742391  -1.356233  -1.945663
}

set optking { frozen_dihedral = (" 2 3 4 10 ") }

energy, wfn = energy('B3LYP-D3', return_wfn=True)

import os
os.chdir(os.environ['HTMD_PSI4_WORKDIR'])

oeprop(wfn, 'DIPOLE', 'QUADRUPOLE', 'MULLIKEN_CHARGES')

with open('psi4out.xyz', 'w') as f:
    f.write('11 ' )
    f.write('%.12f\n' % energy)
    f.write(MOL.save_string_xyz())
--------------------------------------------------------------------------
  Threads set to 1 by Python driver.

  Memory set to   4.981 GiB by Python driver.

*** tstart() called on loro.prib.upf.edu
*** at Sat Sep 29 17:09:47 2018

   => Loading Basis Set <=

    Name: CC-PVDZ
    Role: ORBITAL
    Keyword: BASIS
    atoms 1    entry O          line   198 file /shared/joao/test_parameterize/miniconda3/share/psi4/basis/cc-pvdz.gbs 
    atoms 2-3  entry C          line   138 file /shared/joao/test_parameterize/miniconda3/share/psi4/basis/cc-pvdz.gbs 
    atoms 4    entry N          line   168 file /shared/joao/test_parameterize/miniconda3/share/psi4/basis/cc-pvdz.gbs 
    atoms 5-11 entry H          line    22 file /shared/joao/test_parameterize/miniconda3/share/psi4/basis/cc-pvdz.gbs 


         ---------------------------------------------------------
                                   SCF
            by Justin Turney, Rob Parrish, Andy Simmonett
                             and Daniel Smith
                              RKS Reference
                        1 Threads,   5100 MiB Core
         ---------------------------------------------------------

  ==> Geometry <==

    Molecular point group: c1
    Full point group: C1

    Geometry (in Angstrom), charge = 0, multiplicity = 1:

       Center              X                  Y                   Z               Mass       
    ------------   -----------------  -----------------  -----------------  -----------------
         O            1.050400000000     0.042900000000    -0.048100000000    15.994914619560
         C            2.474100000000     0.047400000000    -0.029000000000    12.000000000000
         C            3.002600000000    -1.068900000000    -0.932000000000    12.000000000000
         N            4.462700000000    -1.072400000000    -1.006800000000    14.003074004780
         H            0.760400000000     0.728400000000     0.578000000000     1.007825032070
         H            2.809900000000    -0.097900000000     1.003200000000     1.007825032070
         H            2.817400000000     1.026800000000    -0.378600000000     1.007825032070
         H            2.581000000000    -0.963300000000    -1.938400000000     1.007825032070
         H            2.653800000000    -2.036400000000    -0.553400000000     1.007825032070
         H            4.809030000000    -0.120799000000    -0.888510000000     1.007825032070
         H            4.742391000000    -1.356233000000    -1.945663000000     1.007825032070

  Running in c1 symmetry.

  Rotational constants: A =      0.72253  B =      0.02772  C =      0.02701 [cm^-1]
  Rotational constants: A =  21661.03777  B =    830.96427  C =    809.73234 [MHz]
  Nuclear repulsion =  130.634817339817062

  Charge       = 0
  Multiplicity = 1
  Electrons    = 34
  Nalpha       = 17
  Nbeta        = 17

  ==> Algorithm <==

  SCF Algorithm Type is DF.
  DIIS enabled.
  MOM disabled.
  Fractional occupation disabled.
  Guess Type is SAD.
  Energy threshold   = 1.00e-06
  Density threshold  = 1.00e-06
  Integral threshold = 0.00e+00

  ==> Primary Basis <==

  Basis Set: CC-PVDZ
    Blend: CC-PVDZ
    Number of shells: 45
    Number of basis function: 91
    Number of Cartesian functions: 95
    Spherical Harmonics?: true
    Max angular momentum: 2

  ==> DFT Potential <==

   => Composite Functional: B3LYP-D3ZERO <= 

    B3LYP-d3zero Hyb-GGA Exchange-Correlation Functional

    P. J. Stephens, F. J. Devlin, C. F. Chabalowski, and M. J. Frisch, J. Phys. Chem. 98, 11623 (1994)

    Deriv               =              1
    GGA                 =           TRUE
    Meta                =          FALSE

    Exchange Hybrid     =           TRUE
    MP2 Hybrid          =          FALSE

   => Exchange Functionals <=

    0.0800   Slater exchange
    0.7200         Becke 88

   => Exact (HF) Exchange <=

    0.2000               HF 

   => Correlation Functionals <=

    0.1900   Vosko, Wilk & Nusair (VWN5_RPA)
    0.8100   Lee, Yang & Parr

   => Molecular Quadrature <=

    Radial Scheme       =       TREUTLER
    Pruning Scheme      =           FLAT
    Nuclear Scheme      =       TREUTLER

    BS radius alpha     =              1
    Pruning alpha       =              1
    Radial Points       =             75
    Spherical Points    =            302
    Total Points        =         245077
    Total Blocks        =           1888
    Max Points          =            256
    Max Functions       =             91

   => -D3ZERO: Empirical Dispersion <=

    Grimme's -D3 (zero-damping) Dispersion Correction
    Grimme S.; Antony J.; Ehrlich S.; Krieg H. (2010), J. Chem. Phys., 132: 154104

        S6 =   1.000000E+00
        S8 =   1.703000E+00
       SR6 =   1.261000E+00
       SR8 =   1.000000E+00
    ALPHA6 =   1.400000E+01

   => Loading Basis Set <=

    Name: (CC-PVDZ AUX)
    Role: JKFIT
    Keyword: DF_BASIS_SCF
    atoms 1    entry O          line   221 file /shared/joao/test_parameterize/miniconda3/share/psi4/basis/cc-pvdz-jkfit.gbs 
    atoms 2-3  entry C          line   121 file /shared/joao/test_parameterize/miniconda3/share/psi4/basis/cc-pvdz-jkfit.gbs 
    atoms 4    entry N          line   171 file /shared/joao/test_parameterize/miniconda3/share/psi4/basis/cc-pvdz-jkfit.gbs 
    atoms 5-11 entry H          line    51 file /shared/joao/test_parameterize/miniconda3/share/psi4/basis/cc-pvdz-jkfit.gbs 

  ==> Pre-Iterations <==

   -------------------------------------------------------
    Irrep   Nso     Nmo     Nalpha   Nbeta   Ndocc  Nsocc
   -------------------------------------------------------
     A         91      91       0       0       0       0
   -------------------------------------------------------
    Total      91      91      17      17      17       0
   -------------------------------------------------------

  ==> Integral Setup <==

  DFHelper Memory: AOs need 0.036 [GiB]; user supplied 3.486 [GiB]. Using in-core AOs.

  ==> MemDFJK: Density-Fitted J/K Matrices <==

    J tasked:                   Yes
    K tasked:                   Yes
    wK tasked:                   No
    OpenMP threads:               1
    Memory (MB):               3570
    Algorithm:                 Core
    Schwarz Cutoff:           1E-12
    Mask sparsity (%):       0.3623
    Fitting Condition:        1E-12

   => Auxiliary Basis Set <=

  Basis Set: (CC-PVDZ AUX)
    Blend: CC-PVDZ-JKFIT
    Number of shells: 159
    Number of basis function: 441
    Number of Cartesian functions: 499
    Spherical Harmonics?: true
    Max angular momentum: 3

  Minimum eigenvalue in the overlap matrix is 4.5540643515E-03.
  Using Symmetric Orthogonalization.

  SCF Guess: Superposition of Atomic Densities via on-the-fly atomic UHF.

  ==> Iterations <==

                           Total Energy        Delta E     RMS |[F,P]|

   @DF-RKS iter   0:  -210.84696079911126   -2.10847e+02   3.67185e-02 
   @DF-RKS iter   1:  -210.21181009118800    6.35151e-01   7.06505e-03 
   @DF-RKS iter   2:  -210.06734821790798    1.44462e-01   9.66997e-03 DIIS
   @DF-RKS iter   3:  -210.38726606093326   -3.19918e-01   5.97125e-04 DIIS
   @DF-RKS iter   4:  -210.38802481097181   -7.58750e-04   3.69660e-04 DIIS
   @DF-RKS iter   5:  -210.38850767563946   -4.82865e-04   4.92192e-05 DIIS
   @DF-RKS iter   6:  -210.38851410856583   -6.43293e-06   2.33597e-05 DIIS
   @DF-RKS iter   7:  -210.38851610369727   -1.99513e-06   2.07416e-06 DIIS
   @DF-RKS iter   8:  -210.38851611945003   -1.57528e-08   6.25766e-07 DIIS

  ==> Post-Iterations <==

    Orbital Energies [Eh]
    ---------------------

    Doubly Occupied:                                                      

       1A    -19.130283     2A    -14.303349     3A    -10.229027  
       4A    -10.201235     5A     -1.012660     6A     -0.876911  
       7A     -0.712880     8A     -0.602152     9A     -0.509351  
      10A     -0.473622    11A     -0.470289    12A     -0.413296  
      13A     -0.379627    14A     -0.375306    15A     -0.325134  
      16A     -0.264195    17A     -0.228985  

    Virtual:                                                              

      18A      0.048580    19A      0.058085    20A      0.100235  
      21A      0.111774    22A      0.124582    23A      0.149656  
      24A      0.177491    25A      0.212100    26A      0.240164  
      27A      0.254038    28A      0.442016    29A      0.444878  
      30A      0.484664    31A      0.514238    32A      0.564075  
      33A      0.590470    34A      0.603402    35A      0.629058  
      36A      0.632916    37A      0.646209    38A      0.659034  
      39A      0.661488    40A      0.687465    41A      0.823195  
      42A      0.835880    43A      0.851232    44A      0.912576  
      45A      0.966887    46A      0.988928    47A      0.994355  
      48A      1.061565    49A      1.147579    50A      1.211423  
      51A      1.225028    52A      1.241031    53A      1.346347  
      54A      1.387407    55A      1.450582    56A      1.457990  
      57A      1.520613    58A      1.592967    59A      1.596716  
      60A      1.625685    61A      1.652212    62A      1.676184  
      63A      1.696373    64A      1.718563    65A      1.754733  
      66A      1.778548    67A      1.818526    68A      1.857251  
      69A      1.908597    70A      1.960752    71A      1.993351  
      72A      2.023341    73A      2.053925    74A      2.122158  
      75A      2.164267    76A      2.220516    77A      2.293213  
      78A      2.377800    79A      2.427883    80A      2.440279  
      81A      2.494728    82A      2.525999    83A      2.598358  
      84A      2.657754    85A      2.819540    86A      2.952481  
      87A      3.007065    88A      3.044528    89A      3.113254  
      90A      3.205657    91A      3.692811  

    Final Occupation by Irrep:
              A 
    DOCC [    17 ]

  Energy converged.

  @DF-RKS Final Energy:  -210.38851611945003

   => Energetics <=

    Nuclear Repulsion Energy =            130.6348173398170616
    One-Electron Energy =                -544.1473492224631627
    Two-Electron Energy =                 226.6163751567947884
    DFT Exchange-Correlation Energy =     -23.4874580135987365
    Empirical Dispersion Energy =          -0.0049013800000000
    VV10 Nonlocal Energy =                  0.0000000000000000
    Total Energy =                       -210.3885161194500597



Properties will be evaluated at   0.000000,   0.000000,   0.000000 [a0]

Properties computed using the SCF density matrix

  Nuclear Dipole Moment: [e a0]
     X:   177.0224      Y:   -30.4473      Z:   -32.7334

  Electronic Dipole Moment: [e a0]
     X:  -176.8680      Y:    31.1391      Z:    32.7047

  Dipole Moment: [e a0]
     X:     0.1544      Y:     0.6918      Z:    -0.0287     Total:     0.7094

  Dipole Moment: [D]
     X:     0.3925      Y:     1.7583      Z:    -0.0730     Total:     1.8031


*** tstop() called on loro.prib.upf.edu at Sat Sep 29 17:10:05 2018
Module time:
	user time   =      15.32 seconds =       0.26 minutes
	system time =       0.20 seconds =       0.00 minutes
	total time  =         18 seconds =       0.30 minutes
Total time:
	user time   =      15.32 seconds =       0.26 minutes
	system time =       0.20 seconds =       0.00 minutes
	total time  =         18 seconds =       0.30 minutes


Properties will be evaluated at   0.000000,   0.000000,   0.000000 [a0]
OEProp: No title given, name of density matrix used for the following properties is 'SCF density'
  Nuclear Dipole Moment: [e a0]
     X:   177.0224      Y:   -30.4473      Z:   -32.7334

  Electronic Dipole Moment: [e a0]
     X:  -176.8680      Y:    31.1391      Z:    32.7047

  Dipole Moment: [e a0]
     X:     0.1544      Y:     0.6918      Z:    -0.0287     Total:     0.7094

  Dipole Moment: [D]
     X:     0.3925      Y:     1.7583      Z:    -0.0730     Total:     1.8031

  Quadrupole Moment: [D A]
    XX:   -25.5672     YY:   -25.7913     ZZ:   -22.3622
    XY:     4.8330     XZ:    -4.5598     YZ:     1.9436

  Traceless Quadrupole Moment: [D A]
    XX:    -0.9936     YY:    -1.2177     ZZ:     2.2114
    XY:     4.8330     XZ:    -4.5598     YZ:     1.9436

  Mulliken Charges: (a.u.)
   Center  Symbol    Alpha    Beta     Spin     Total
       1     O     4.13772  4.13772  0.00000 -0.27545
       2     C     2.93948  2.93948  0.00000  0.12103
       3     C     2.97774  2.97774  0.00000  0.04452
       4     N     3.59341  3.59341  0.00000 -0.18682
       5     H     0.42997  0.42997  0.00000  0.14005
       6     H     0.49671  0.49671  0.00000  0.00659
       7     H     0.50374  0.50374  0.00000 -0.00748
       8     H     0.49906  0.49906  0.00000  0.00187
       9     H     0.49020  0.49020  0.00000  0.01960
      10     H     0.46887  0.46887  0.00000  0.06227
      11     H     0.46309  0.46309  0.00000  0.07382

   Total alpha = 17.00000, Total beta = 17.00000, Total charge = -0.00000


    Psi4 stopped on: Saturday, 29 September 2018 05:10PM
    Psi4 wall time for execution: 0:00:18.34

*** Psi4 exiting successfully. Buy a developer a beer!
