
    -----------------------------------------------------------------------
          Psi4: An Open-Source Ab Initio Electronic Structure Package
                               Psi4 1.2.1 release

                         Git: Rev {HEAD} 406f4de 


    R. M. Parrish, L. A. Burns, D. G. A. Smith, A. C. Simmonett,
    A. E. DePrince III, E. G. Hohenstein, U. Bozkaya, A. Yu. Sokolov,
    R. Di Remigio, R. M. Richard, J. F. Gonthier, A. M. James,
    H. R. McAlexander, A. Kumar, M. Saitow, X. Wang, B. P. Pritchard,
    P. Verma, H. F. Schaefer III, K. Patkowski, R. A. King, E. F. Valeev,
    F. A. Evangelista, J. M. Turney, T. D. Crawford, and C. D. Sherrill,
    J. Chem. Theory Comput. 13(7) pp 3185--3197 (2017).
    (doi: 10.1021/acs.jctc.7b00174)


                         Additional Contributions by
    P. Kraus, H. Kruse, M. H. Lechner, M. C. Schieber, and R. A. Shaw

    -----------------------------------------------------------------------


    Psi4 started on: Saturday, 29 September 2018 04:27PM

    Process ID: 26834
    Host:       loro.prib.upf.edu
    PSIDATADIR: /shared/joao/test_parameterize/miniconda3/share/psi4
    Memory:     500.0 MiB
    Threads:    1
    
  ==> Input File <==

--------------------------------------------------------------------------
set_num_threads(1)
set_memory('5348 MB')

set { scf_mem_safety_factor 0.7 }

set { reference rks }
set { basis cc-pVDZ }

molecule MOL {
    0 1
    noreorient
    nocom
    symmetry c1
    O    1.014300  -0.002300   0.060500
    O    2.462400  -0.107500  -0.002400
    H    0.821200  -0.823600  -0.430600
    H    2.650568   0.833924   0.174094
}

set optking { frozen_dihedral = (" 3 1 2 4 ") }

energy, wfn = energy('B3LYP-D3', return_wfn=True)

import os
os.chdir(os.environ['HTMD_PSI4_WORKDIR'])

oeprop(wfn, 'DIPOLE', 'QUADRUPOLE', 'MULLIKEN_CHARGES')

with open('psi4out.xyz', 'w') as f:
    f.write('4 ' )
    f.write('%.12f\n' % energy)
    f.write(MOL.save_string_xyz())
--------------------------------------------------------------------------
  Threads set to 1 by Python driver.

  Memory set to   4.981 GiB by Python driver.

*** tstart() called on loro.prib.upf.edu
*** at Sat Sep 29 16:27:20 2018

   => Loading Basis Set <=

    Name: CC-PVDZ
    Role: ORBITAL
    Keyword: BASIS
    atoms 1-2 entry O          line   198 file /shared/joao/test_parameterize/miniconda3/share/psi4/basis/cc-pvdz.gbs 
    atoms 3-4 entry H          line    22 file /shared/joao/test_parameterize/miniconda3/share/psi4/basis/cc-pvdz.gbs 


         ---------------------------------------------------------
                                   SCF
            by Justin Turney, Rob Parrish, Andy Simmonett
                             and Daniel Smith
                              RKS Reference
                        1 Threads,   5100 MiB Core
         ---------------------------------------------------------

  ==> Geometry <==

    Molecular point group: c1
    Full point group: C1

    Geometry (in Angstrom), charge = 0, multiplicity = 1:

       Center              X                  Y                   Z               Mass       
    ------------   -----------------  -----------------  -----------------  -----------------
         O            1.014300000000    -0.002300000000     0.060500000000    15.994914619560
         O            2.462400000000    -0.107500000000    -0.002400000000    15.994914619560
         H            0.821200000000    -0.823600000000    -0.430600000000     1.007825032070
         H            2.650568000000     0.833924000000     0.174094000000     1.007825032070

  Running in c1 symmetry.

  Rotational constants: A =      9.49501  B =      0.13893  C =      0.13709 [cm^-1]
  Rotational constants: A = 284653.25783  B =   4164.87569  C =   4109.72395 [MHz]
  Nuclear repulsion =   36.784600075268152

  Charge       = 0
  Multiplicity = 1
  Electrons    = 18
  Nalpha       = 9
  Nbeta        = 9

  ==> Algorithm <==

  SCF Algorithm Type is DF.
  DIIS enabled.
  MOM disabled.
  Fractional occupation disabled.
  Guess Type is SAD.
  Energy threshold   = 1.00e-06
  Density threshold  = 1.00e-06
  Integral threshold = 0.00e+00

  ==> Primary Basis <==

  Basis Set: CC-PVDZ
    Blend: CC-PVDZ
    Number of shells: 18
    Number of basis function: 38
    Number of Cartesian functions: 40
    Spherical Harmonics?: true
    Max angular momentum: 2

  ==> DFT Potential <==

   => Composite Functional: B3LYP-D3ZERO <= 

    B3LYP-d3zero Hyb-GGA Exchange-Correlation Functional

    P. J. Stephens, F. J. Devlin, C. F. Chabalowski, and M. J. Frisch, J. Phys. Chem. 98, 11623 (1994)

    Deriv               =              1
    GGA                 =           TRUE
    Meta                =          FALSE

    Exchange Hybrid     =           TRUE
    MP2 Hybrid          =          FALSE

   => Exchange Functionals <=

    0.0800   Slater exchange
    0.7200         Becke 88

   => Exact (HF) Exchange <=

    0.2000               HF 

   => Correlation Functionals <=

    0.1900   Vosko, Wilk & Nusair (VWN5_RPA)
    0.8100   Lee, Yang & Parr

   => Molecular Quadrature <=

    Radial Scheme       =       TREUTLER
    Pruning Scheme      =           FLAT
    Nuclear Scheme      =       TREUTLER

    BS radius alpha     =              1
    Pruning alpha       =              1
    Radial Points       =             75
    Spherical Points    =            302
    Total Points        =          88340
    Total Blocks        =            722
    Max Points          =            255
    Max Functions       =             38

   => -D3ZERO: Empirical Dispersion <=

    Grimme's -D3 (zero-damping) Dispersion Correction
    Grimme S.; Antony J.; Ehrlich S.; Krieg H. (2010), J. Chem. Phys., 132: 154104

        S6 =   1.000000E+00
        S8 =   1.703000E+00
       SR6 =   1.261000E+00
       SR8 =   1.000000E+00
    ALPHA6 =   1.400000E+01

   => Loading Basis Set <=

    Name: (CC-PVDZ AUX)
    Role: JKFIT
    Keyword: DF_BASIS_SCF
    atoms 1-2 entry O          line   221 file /shared/joao/test_parameterize/miniconda3/share/psi4/basis/cc-pvdz-jkfit.gbs 
    atoms 3-4 entry H          line    51 file /shared/joao/test_parameterize/miniconda3/share/psi4/basis/cc-pvdz-jkfit.gbs 

  ==> Pre-Iterations <==

   -------------------------------------------------------
    Irrep   Nso     Nmo     Nalpha   Nbeta   Ndocc  Nsocc
   -------------------------------------------------------
     A         38      38       0       0       0       0
   -------------------------------------------------------
    Total      38      38       9       9       9       0
   -------------------------------------------------------

  ==> Integral Setup <==

  DFHelper Memory: AOs need 0.003 [GiB]; user supplied 3.486 [GiB]. Using in-core AOs.

  ==> MemDFJK: Density-Fitted J/K Matrices <==

    J tasked:                   Yes
    K tasked:                   Yes
    wK tasked:                   No
    OpenMP threads:               1
    Memory (MB):               3570
    Algorithm:                 Core
    Schwarz Cutoff:           1E-12
    Mask sparsity (%):       0.0000
    Fitting Condition:        1E-12

   => Auxiliary Basis Set <=

  Basis Set: (CC-PVDZ AUX)
    Blend: CC-PVDZ-JKFIT
    Number of shells: 66
    Number of basis function: 186
    Number of Cartesian functions: 212
    Spherical Harmonics?: true
    Max angular momentum: 3

  Minimum eigenvalue in the overlap matrix is 2.4053048750E-02.
  Using Symmetric Orthogonalization.

  SCF Guess: Superposition of Atomic Densities via on-the-fly atomic UHF.

  ==> Iterations <==

                           Total Energy        Delta E     RMS |[F,P]|

   @DF-RKS iter   0:  -151.55691949497262   -1.51557e+02   4.82104e-02 
   @DF-RKS iter   1:  -151.52496329888552    3.19562e-02   6.74025e-03 
   @DF-RKS iter   2:  -151.52704606606753   -2.08277e-03   6.56852e-03 DIIS
   @DF-RKS iter   3:  -151.54954915911117   -2.25031e-02   7.90916e-04 DIIS
   @DF-RKS iter   4:  -151.54985475184105   -3.05593e-04   1.17377e-04 DIIS
   @DF-RKS iter   5:  -151.54985345502212    1.29682e-06   1.33726e-04 DIIS
   @DF-RKS iter   6:  -151.54986283038625   -9.37536e-06   1.11898e-05 DIIS
   @DF-RKS iter   7:  -151.54986291005559   -7.96693e-08   9.86495e-07 DIIS

  ==> Post-Iterations <==

    Orbital Energies [Eh]
    ---------------------

    Doubly Occupied:                                                      

       1A    -19.185622     2A    -19.185582     3A     -1.109613  
       4A     -0.886420     5A     -0.502517     6A     -0.495872  
       7A     -0.394805     8A     -0.350433     9A     -0.244621  

    Virtual:                                                              

      10A      0.026552    11A      0.051598    12A      0.105343  
      13A      0.573294    14A      0.578030    15A      0.844568  
      16A      0.851894    17A      0.870585    18A      0.971367  
      19A      1.001824    20A      1.069914    21A      1.249202  
      22A      1.314213    23A      1.335147    24A      1.471624  
      25A      1.654403    26A      1.787143    27A      2.045719  
      28A      2.103420    29A      2.311010    30A      2.387649  
      31A      2.647397    32A      2.867590    33A      2.925940  
      34A      2.997540    35A      3.164774    36A      3.513440  
      37A      3.513953    38A      3.839374  

    Final Occupation by Irrep:
              A 
    DOCC [     9 ]

  Energy converged.

  @DF-RKS Final Energy:  -151.54986291005559

   => Energetics <=

    Nuclear Repulsion Energy =             36.7846000752681519
    One-Electron Energy =                -281.5729236125829402
    Two-Electron Energy =                 107.7020171669776119
    DFT Exchange-Correlation Energy =     -14.4632351097184060
    Empirical Dispersion Energy =          -0.0003214300000000
    VV10 Nonlocal Energy =                  0.0000000000000000
    Total Energy =                       -151.5498629100555945



Properties will be evaluated at   0.000000,   0.000000,   0.000000 [a0]

Properties computed using the SCF density matrix

  Nuclear Dipole Moment: [e a0]
     X:    59.1208      Y:    -1.6404      Z:     0.3936

  Electronic Dipole Moment: [e a0]
     X:   -59.1242      Y:     1.7229      Z:    -0.6096

  Dipole Moment: [e a0]
     X:    -0.0034      Y:     0.0825      Z:    -0.2160     Total:     0.2313

  Dipole Moment: [D]
     X:    -0.0086      Y:     0.2097      Z:    -0.5491     Total:     0.5878


*** tstop() called on loro.prib.upf.edu at Sat Sep 29 16:27:24 2018
Module time:
	user time   =       2.43 seconds =       0.04 minutes
	system time =       0.07 seconds =       0.00 minutes
	total time  =          4 seconds =       0.07 minutes
Total time:
	user time   =       2.43 seconds =       0.04 minutes
	system time =       0.07 seconds =       0.00 minutes
	total time  =          4 seconds =       0.07 minutes


Properties will be evaluated at   0.000000,   0.000000,   0.000000 [a0]
OEProp: No title given, name of density matrix used for the following properties is 'SCF density'
  Nuclear Dipole Moment: [e a0]
     X:    59.1208      Y:    -1.6404      Z:     0.3936

  Electronic Dipole Moment: [e a0]
     X:   -59.1242      Y:     1.7229      Z:    -0.6096

  Dipole Moment: [e a0]
     X:    -0.0034      Y:     0.0825      Z:    -0.2160     Total:     0.2313

  Dipole Moment: [D]
     X:    -0.0086      Y:     0.2097      Z:    -0.5491     Total:     0.5878

  Quadrupole Moment: [D A]
    XX:   -10.8210     YY:    -8.9621     ZZ:   -11.7996
    XY:     3.5298     XZ:     0.2323     YZ:     1.2355

  Traceless Quadrupole Moment: [D A]
    XX:    -0.2935     YY:     1.5655     ZZ:    -1.2720
    XY:     3.5298     XZ:     0.2323     YZ:     1.2355

  Mulliken Charges: (a.u.)
   Center  Symbol    Alpha    Beta     Spin     Total
       1     O     4.09136  4.09136  0.00000 -0.18272
       2     O     4.09134  4.09134  0.00000 -0.18268
       3     H     0.40864  0.40864  0.00000  0.18272
       4     H     0.40866  0.40866  0.00000  0.18268

   Total alpha =  9.00000, Total beta =  9.00000, Total charge = -0.00000


    Psi4 stopped on: Saturday, 29 September 2018 04:27PM
    Psi4 wall time for execution: 0:00:03.84

*** Psi4 exiting successfully. Buy a developer a beer!
