
    -----------------------------------------------------------------------
          Psi4: An Open-Source Ab Initio Electronic Structure Package
                               Psi4 1.2.1 release

                         Git: Rev {HEAD} 406f4de 


    R. M. Parrish, L. A. Burns, D. G. A. Smith, A. C. Simmonett,
    A. E. DePrince III, E. G. Hohenstein, U. Bozkaya, A. Yu. Sokolov,
    R. Di Remigio, R. M. Richard, J. F. Gonthier, A. M. James,
    H. R. McAlexander, A. Kumar, M. Saitow, X. Wang, B. P. Pritchard,
    P. Verma, H. F. Schaefer III, K. Patkowski, R. A. King, E. F. Valeev,
    F. A. Evangelista, J. M. Turney, T. D. Crawford, and C. D. Sherrill,
    J. Chem. Theory Comput. 13(7) pp 3185--3197 (2017).
    (doi: 10.1021/acs.jctc.7b00174)


                         Additional Contributions by
    P. Kraus, H. Kruse, M. H. Lechner, M. C. Schieber, and R. A. Shaw

    -----------------------------------------------------------------------


    Psi4 started on: Saturday, 29 September 2018 04:49PM

    Process ID: 4466
    Host:       loro.prib.upf.edu
    PSIDATADIR: /shared/joao/test_parameterize/miniconda3/share/psi4
    Memory:     500.0 MiB
    Threads:    1
    
  ==> Input File <==

--------------------------------------------------------------------------
set_num_threads(1)
set_memory('5348 MB')

set { scf_mem_safety_factor 0.7 }

set { reference rks }
set { basis cc-pVDZ }

molecule MOL {
    0 1
    noreorient
    nocom
    symmetry c1
    O    1.141000   0.017000   0.083000
    C    2.558000   0.086000  -0.005000
    C    3.192000  -0.789000   1.067000
    O    2.198994  -1.594456   1.690337
    H    0.789000   0.590000  -0.620000
    H    2.874000   1.128000   0.115000
    H    2.871000  -0.243000  -1.001000
    H    3.680472  -0.170065   1.826112
    H    3.955611  -1.439990   0.626559
    H    2.656313  -2.129527   2.362234
}

set optking { frozen_dihedral = (" 1 2 3 4 ") }

energy, wfn = energy('B3LYP-D3', return_wfn=True)

import os
os.chdir(os.environ['HTMD_PSI4_WORKDIR'])

oeprop(wfn, 'DIPOLE', 'QUADRUPOLE', 'MULLIKEN_CHARGES')

with open('psi4out.xyz', 'w') as f:
    f.write('10 ' )
    f.write('%.12f\n' % energy)
    f.write(MOL.save_string_xyz())
--------------------------------------------------------------------------
  Threads set to 1 by Python driver.

  Memory set to   4.981 GiB by Python driver.

*** tstart() called on loro.prib.upf.edu
*** at Sat Sep 29 16:49:34 2018

   => Loading Basis Set <=

    Name: CC-PVDZ
    Role: ORBITAL
    Keyword: BASIS
    atoms 1, 4 entry O          line   198 file /shared/joao/test_parameterize/miniconda3/share/psi4/basis/cc-pvdz.gbs 
    atoms 2-3  entry C          line   138 file /shared/joao/test_parameterize/miniconda3/share/psi4/basis/cc-pvdz.gbs 
    atoms 5-10 entry H          line    22 file /shared/joao/test_parameterize/miniconda3/share/psi4/basis/cc-pvdz.gbs 


         ---------------------------------------------------------
                                   SCF
            by Justin Turney, Rob Parrish, Andy Simmonett
                             and Daniel Smith
                              RKS Reference
                        1 Threads,   5100 MiB Core
         ---------------------------------------------------------

  ==> Geometry <==

    Molecular point group: c1
    Full point group: C1

    Geometry (in Angstrom), charge = 0, multiplicity = 1:

       Center              X                  Y                   Z               Mass       
    ------------   -----------------  -----------------  -----------------  -----------------
         O            1.141000000000     0.017000000000     0.083000000000    15.994914619560
         C            2.558000000000     0.086000000000    -0.005000000000    12.000000000000
         C            3.192000000000    -0.789000000000     1.067000000000    12.000000000000
         O            2.198994000000    -1.594456000000     1.690337000000    15.994914619560
         H            0.789000000000     0.590000000000    -0.620000000000     1.007825032070
         H            2.874000000000     1.128000000000     0.115000000000     1.007825032070
         H            2.871000000000    -0.243000000000    -1.001000000000     1.007825032070
         H            3.680472000000    -0.170065000000     1.826112000000     1.007825032070
         H            3.955611000000    -1.439990000000     0.626559000000     1.007825032070
         H            2.656313000000    -2.129527000000     2.362234000000     1.007825032070

  Running in c1 symmetry.

  Rotational constants: A =      0.30520  B =      0.03942  C =      0.03539 [cm^-1]
  Rotational constants: A =   9149.79520  B =   1181.73114  C =   1060.94880 [MHz]
  Nuclear repulsion =  133.237428121380674

  Charge       = 0
  Multiplicity = 1
  Electrons    = 34
  Nalpha       = 17
  Nbeta        = 17

  ==> Algorithm <==

  SCF Algorithm Type is DF.
  DIIS enabled.
  MOM disabled.
  Fractional occupation disabled.
  Guess Type is SAD.
  Energy threshold   = 1.00e-06
  Density threshold  = 1.00e-06
  Integral threshold = 0.00e+00

  ==> Primary Basis <==

  Basis Set: CC-PVDZ
    Blend: CC-PVDZ
    Number of shells: 42
    Number of basis function: 86
    Number of Cartesian functions: 90
    Spherical Harmonics?: true
    Max angular momentum: 2

  ==> DFT Potential <==

   => Composite Functional: B3LYP-D3ZERO <= 

    B3LYP-d3zero Hyb-GGA Exchange-Correlation Functional

    P. J. Stephens, F. J. Devlin, C. F. Chabalowski, and M. J. Frisch, J. Phys. Chem. 98, 11623 (1994)

    Deriv               =              1
    GGA                 =           TRUE
    Meta                =          FALSE

    Exchange Hybrid     =           TRUE
    MP2 Hybrid          =          FALSE

   => Exchange Functionals <=

    0.0800   Slater exchange
    0.7200         Becke 88

   => Exact (HF) Exchange <=

    0.2000               HF 

   => Correlation Functionals <=

    0.1900   Vosko, Wilk & Nusair (VWN5_RPA)
    0.8100   Lee, Yang & Parr

   => Molecular Quadrature <=

    Radial Scheme       =       TREUTLER
    Pruning Scheme      =           FLAT
    Nuclear Scheme      =       TREUTLER

    BS radius alpha     =              1
    Pruning alpha       =              1
    Radial Points       =             75
    Spherical Points    =            302
    Total Points        =         222547
    Total Blocks        =           1741
    Max Points          =            256
    Max Functions       =             86

   => -D3ZERO: Empirical Dispersion <=

    Grimme's -D3 (zero-damping) Dispersion Correction
    Grimme S.; Antony J.; Ehrlich S.; Krieg H. (2010), J. Chem. Phys., 132: 154104

        S6 =   1.000000E+00
        S8 =   1.703000E+00
       SR6 =   1.261000E+00
       SR8 =   1.000000E+00
    ALPHA6 =   1.400000E+01

   => Loading Basis Set <=

    Name: (CC-PVDZ AUX)
    Role: JKFIT
    Keyword: DF_BASIS_SCF
    atoms 1, 4 entry O          line   221 file /shared/joao/test_parameterize/miniconda3/share/psi4/basis/cc-pvdz-jkfit.gbs 
    atoms 2-3  entry C          line   121 file /shared/joao/test_parameterize/miniconda3/share/psi4/basis/cc-pvdz-jkfit.gbs 
    atoms 5-10 entry H          line    51 file /shared/joao/test_parameterize/miniconda3/share/psi4/basis/cc-pvdz-jkfit.gbs 

  ==> Pre-Iterations <==

   -------------------------------------------------------
    Irrep   Nso     Nmo     Nalpha   Nbeta   Ndocc  Nsocc
   -------------------------------------------------------
     A         86      86       0       0       0       0
   -------------------------------------------------------
    Total      86      86      17      17      17       0
   -------------------------------------------------------

  ==> Integral Setup <==

  DFHelper Memory: AOs need 0.030 [GiB]; user supplied 3.486 [GiB]. Using in-core AOs.

  ==> MemDFJK: Density-Fitted J/K Matrices <==

    J tasked:                   Yes
    K tasked:                   Yes
    wK tasked:                   No
    OpenMP threads:               1
    Memory (MB):               3570
    Algorithm:                 Core
    Schwarz Cutoff:           1E-12
    Mask sparsity (%):       0.0000
    Fitting Condition:        1E-12

   => Auxiliary Basis Set <=

  Basis Set: (CC-PVDZ AUX)
    Blend: CC-PVDZ-JKFIT
    Number of shells: 150
    Number of basis function: 418
    Number of Cartesian functions: 474
    Spherical Harmonics?: true
    Max angular momentum: 3

  Minimum eigenvalue in the overlap matrix is 4.8434676886E-03.
  Using Symmetric Orthogonalization.

  SCF Guess: Superposition of Atomic Densities via on-the-fly atomic UHF.

  ==> Iterations <==

                           Total Energy        Delta E     RMS |[F,P]|

   @DF-RKS iter   0:  -230.94140286438963   -2.30941e+02   4.02991e-02 
   @DF-RKS iter   1:  -230.15192638438097    7.89476e-01   5.48492e-03 
   @DF-RKS iter   2:  -230.06979176634113    8.21346e-02   7.88489e-03 DIIS
   @DF-RKS iter   3:  -230.24298026232941   -1.73188e-01   6.54033e-04 DIIS
   @DF-RKS iter   4:  -230.24407398993827   -1.09373e-03   2.87593e-04 DIIS
   @DF-RKS iter   5:  -230.24435903056153   -2.85041e-04   5.77976e-05 DIIS
   @DF-RKS iter   6:  -230.24437032267718   -1.12921e-05   5.34287e-06 DIIS
   @DF-RKS iter   7:  -230.24437040186430   -7.91871e-08   2.60916e-06 DIIS
   @DF-RKS iter   8:  -230.24437042109884   -1.92345e-08   8.20115e-07 DIIS

  ==> Post-Iterations <==

    Orbital Energies [Eh]
    ---------------------

    Doubly Occupied:                                                      

       1A    -19.122066     2A    -19.122014     3A    -10.225683  
       4A    -10.225500     5A     -1.016423     6A     -0.993702  
       7A     -0.733964     8A     -0.599131     9A     -0.527164  
      10A     -0.478479    11A     -0.459232    12A     -0.413583  
      13A     -0.393382    14A     -0.326090    15A     -0.323784  
      16A     -0.268012    17A     -0.242777  

    Virtual:                                                              

      18A      0.038983    19A      0.077158    20A      0.089519  
      21A      0.098696    22A      0.139508    23A      0.162802  
      24A      0.179956    25A      0.241498    26A      0.285951  
      27A      0.442622    28A      0.460171    29A      0.493661  
      30A      0.534524    31A      0.549700    32A      0.557128  
      33A      0.621726    34A      0.628631    35A      0.635524  
      36A      0.644576    37A      0.698533    38A      0.712111  
      39A      0.797649    40A      0.852671    41A      0.913604  
      42A      0.986242    43A      1.016052    44A      1.042205  
      45A      1.076525    46A      1.147419    47A      1.234946  
      48A      1.238426    49A      1.317236    50A      1.359156  
      51A      1.373581    52A      1.432963    53A      1.469659  
      54A      1.529837    55A      1.581206    56A      1.602163  
      57A      1.603357    58A      1.617364    59A      1.632084  
      60A      1.737310    61A      1.745256    62A      1.801581  
      63A      1.838257    64A      1.899127    65A      1.933266  
      66A      2.009972    67A      2.018014    68A      2.032549  
      69A      2.084875    70A      2.154977    71A      2.212494  
      72A      2.347660    73A      2.398376    74A      2.405092  
      75A      2.537022    76A      2.543822    77A      2.898114  
      78A      2.971922    79A      2.984734    80A      3.007249  
      81A      3.076344    82A      3.171251    83A      3.182234  
      84A      3.228270    85A      3.699258    86A      3.712667  

    Final Occupation by Irrep:
              A 
    DOCC [    17 ]

  Energy converged.

  @DF-RKS Final Energy:  -230.24437042109884

   => Energetics <=

    Nuclear Repulsion Energy =            133.2374281213806739
    One-Electron Energy =                -578.3882540549295754
    Two-Electron Energy =                 239.4514965780243756
    DFT Exchange-Correlation Energy =     -24.5410533455743121
    Empirical Dispersion Energy =          -0.0039877200000000
    VV10 Nonlocal Energy =                  0.0000000000000000
    Total Energy =                       -230.2443704210988358



Properties will be evaluated at   0.000000,   0.000000,   0.000000 [a0]

Properties computed using the SCF density matrix

  Nuclear Dipole Moment: [e a0]
     X:   147.4862      Y:   -36.0980      Z:    45.1032

  Electronic Dipole Moment: [e a0]
     X:  -146.7081      Y:    36.3808      Z:   -45.3334

  Dipole Moment: [e a0]
     X:     0.7781      Y:     0.2828      Z:    -0.2301     Total:     0.8593

  Dipole Moment: [D]
     X:     1.9779      Y:     0.7189      Z:    -0.5849     Total:     2.1842


*** tstop() called on loro.prib.upf.edu at Sat Sep 29 16:49:51 2018
Module time:
	user time   =      12.83 seconds =       0.21 minutes
	system time =       0.20 seconds =       0.00 minutes
	total time  =         17 seconds =       0.28 minutes
Total time:
	user time   =      12.83 seconds =       0.21 minutes
	system time =       0.20 seconds =       0.00 minutes
	total time  =         17 seconds =       0.28 minutes


Properties will be evaluated at   0.000000,   0.000000,   0.000000 [a0]
OEProp: No title given, name of density matrix used for the following properties is 'SCF density'
  Nuclear Dipole Moment: [e a0]
     X:   147.4862      Y:   -36.0980      Z:    45.1032

  Electronic Dipole Moment: [e a0]
     X:  -146.7081      Y:    36.3808      Z:   -45.3334

  Dipole Moment: [e a0]
     X:     0.7781      Y:     0.2828      Z:    -0.2301     Total:     0.8593

  Dipole Moment: [D]
     X:     1.9779      Y:     0.7189      Z:    -0.5849     Total:     2.1842

  Quadrupole Moment: [D A]
    XX:   -15.4376     YY:   -22.8155     ZZ:   -21.3770
    XY:    -2.1826     XZ:     3.1565     YZ:    -2.9481

  Traceless Quadrupole Moment: [D A]
    XX:     4.4391     YY:    -2.9388     ZZ:    -1.5003
    XY:    -2.1826     XZ:     3.1565     YZ:    -2.9481

  Mulliken Charges: (a.u.)
   Center  Symbol    Alpha    Beta     Spin     Total
       1     O     4.12865  4.12865  0.00000 -0.25729
       2     C     2.93519  2.93519  0.00000  0.12963
       3     C     2.93532  2.93532  0.00000  0.12935
       4     O     4.12887  4.12887  0.00000 -0.25774
       5     H     0.43200  0.43200  0.00000  0.13600
       6     H     0.50232  0.50232  0.00000 -0.00464
       7     H     0.50181  0.50181  0.00000 -0.00363
       8     H     0.50169  0.50169  0.00000 -0.00338
       9     H     0.50220  0.50220  0.00000 -0.00440
      10     H     0.43195  0.43195  0.00000  0.13610

   Total alpha = 17.00000, Total beta = 17.00000, Total charge = -0.00000


    Psi4 stopped on: Saturday, 29 September 2018 04:49PM
    Psi4 wall time for execution: 0:00:17.05

*** Psi4 exiting successfully. Buy a developer a beer!
