
    -----------------------------------------------------------------------
          Psi4: An Open-Source Ab Initio Electronic Structure Package
                               Psi4 1.2.1 release

                         Git: Rev {HEAD} 406f4de 


    R. M. Parrish, L. A. Burns, D. G. A. Smith, A. C. Simmonett,
    A. E. DePrince III, E. G. Hohenstein, U. Bozkaya, A. Yu. Sokolov,
    R. Di Remigio, R. M. Richard, J. F. Gonthier, A. M. James,
    H. R. McAlexander, A. Kumar, M. Saitow, X. Wang, B. P. Pritchard,
    P. Verma, H. F. Schaefer III, K. Patkowski, R. A. King, E. F. Valeev,
    F. A. Evangelista, J. M. Turney, T. D. Crawford, and C. D. Sherrill,
    J. Chem. Theory Comput. 13(7) pp 3185--3197 (2017).
    (doi: 10.1021/acs.jctc.7b00174)


                         Additional Contributions by
    P. Kraus, H. Kruse, M. H. Lechner, M. C. Schieber, and R. A. Shaw

    -----------------------------------------------------------------------


    Psi4 started on: Saturday, 29 September 2018 08:43PM

    Process ID: 3788
    Host:       rosa.prib.upf.edu
    PSIDATADIR: /shared/joao/test_parameterize/miniconda3/share/psi4
    Memory:     500.0 MiB
    Threads:    1
    
  ==> Input File <==

--------------------------------------------------------------------------
set_num_threads(4)
set_memory('3000 MB')

set { scf_mem_safety_factor 0.7 }

set { reference rks }
set { basis 6-31G* }

molecule MOL {
    1 1
    noreorient
    nocom
    symmetry c1
    C   -0.000000  -0.000000  -0.177864
    C    0.036678   1.219374   0.524165
    C    0.031765   1.213120   1.915444
    C    0.000000   0.000000   2.610107
    C   -0.031765  -1.213120   1.915444
    C   -0.036678  -1.219375   0.524165
    C   -0.000000   0.000000  -1.644734
    H    0.018170   2.164705  -0.010854
    H    0.042402   2.152895   2.457886
    H    0.000000   0.000000   3.695756
    H   -0.042402  -2.152895   2.457886
    H   -0.018170  -2.164705  -0.010853
    N   -1.140612  -0.165932  -2.308461
    N    1.140612   0.165932  -2.308461
    H    1.181463   0.265776  -3.315997
    H    2.021932   0.128637  -1.813317
    H   -2.021932  -0.128637  -1.813316
    H   -1.181463  -0.265775  -3.315997
}

set optking { frozen_dihedral = (" 2 1 7 13 ") }

set optking { dynamic_level = 1 
 geom_maxiter = 250
 print_trajectory_xyz_file = True }

energy, wfn = optimize('B3LYP-D3', return_wfn=True)

import os
os.chdir(os.environ['HTMD_PSI4_WORKDIR'])

oeprop(wfn, 'DIPOLE', 'QUADRUPOLE', 'MULLIKEN_CHARGES')

with open('psi4out.xyz', 'w') as f:
    f.write('18 ' )
    f.write('%.12f\n' % energy)
    f.write(MOL.save_string_xyz())
--------------------------------------------------------------------------
  Threads set to 4 by Python driver.

  Memory set to   2.794 GiB by Python driver.
gradient() will perform analytic gradient computation.

*** tstart() called on rosa.prib.upf.edu
*** at Sat Sep 29 20:43:04 2018

   => Loading Basis Set <=

    Name: 6-31G*
    Role: ORBITAL
    Keyword: BASIS
    atoms 1-7         entry C          line   111 file /shared/joao/test_parameterize/miniconda3/share/psi4/basis/6-31gs.gbs 
    atoms 8-12, 15-18 entry H          line    44 file /shared/joao/test_parameterize/miniconda3/share/psi4/basis/6-31gs.gbs 
    atoms 13-14       entry N          line   128 file /shared/joao/test_parameterize/miniconda3/share/psi4/basis/6-31gs.gbs 


         ---------------------------------------------------------
                                   SCF
            by Justin Turney, Rob Parrish, Andy Simmonett
                             and Daniel Smith
                              RKS Reference
                        4 Threads,   2861 MiB Core
         ---------------------------------------------------------

  ==> Geometry <==

    Molecular point group: c1
    Full point group: C1

    Geometry (in Angstrom), charge = 1, multiplicity = 1:

       Center              X                  Y                   Z               Mass       
    ------------   -----------------  -----------------  -----------------  -----------------
         C            0.000000000000     0.000000000000    -0.177864000000    12.000000000000
         C            0.036678000000     1.219374000000     0.524165000000    12.000000000000
         C            0.031765000000     1.213120000000     1.915444000000    12.000000000000
         C            0.000000000000     0.000000000000     2.610107000000    12.000000000000
         C           -0.031765000000    -1.213120000000     1.915444000000    12.000000000000
         C           -0.036678000000    -1.219375000000     0.524165000000    12.000000000000
         C            0.000000000000     0.000000000000    -1.644734000000    12.000000000000
         H            0.018170000000     2.164705000000    -0.010854000000     1.007825032070
         H            0.042402000000     2.152895000000     2.457886000000     1.007825032070
         H            0.000000000000     0.000000000000     3.695756000000     1.007825032070
         H           -0.042402000000    -2.152895000000     2.457886000000     1.007825032070
         H           -0.018170000000    -2.164705000000    -0.010853000000     1.007825032070
         N           -1.140612000000    -0.165932000000    -2.308461000000    14.003074004780
         N            1.140612000000     0.165932000000    -2.308461000000    14.003074004780
         H            1.181463000000     0.265776000000    -3.315997000000     1.007825032070
         H            2.021932000000     0.128637000000    -1.813317000000     1.007825032070
         H           -2.021932000000    -0.128637000000    -1.813316000000     1.007825032070
         H           -1.181463000000    -0.265775000000    -3.315997000000     1.007825032070

  Running in c1 symmetry.

  Rotational constants: A =      0.12190  B =      0.03672  C =      0.03334 [cm^-1]
  Rotational constants: A =   3654.48782  B =   1100.85902  C =    999.45733 [MHz]
  Nuclear repulsion =  415.818804792384071

  Charge       = 1
  Multiplicity = 1
  Electrons    = 64
  Nalpha       = 32
  Nbeta        = 32

  ==> Algorithm <==

  SCF Algorithm Type is DF.
  DIIS enabled.
  MOM disabled.
  Fractional occupation disabled.
  Guess Type is SAD.
  Energy threshold   = 1.00e-08
  Density threshold  = 1.00e-08
  Integral threshold = 0.00e+00

  ==> Primary Basis <==

  Basis Set: 6-31G*
    Blend: 6-31G*
    Number of shells: 72
    Number of basis function: 153
    Number of Cartesian functions: 153
    Spherical Harmonics?: false
    Max angular momentum: 2

  ==> DFT Potential <==

   => Composite Functional: B3LYP-D3ZERO <= 

    B3LYP-d3zero Hyb-GGA Exchange-Correlation Functional

    P. J. Stephens, F. J. Devlin, C. F. Chabalowski, and M. J. Frisch, J. Phys. Chem. 98, 11623 (1994)

    Deriv               =              1
    GGA                 =           TRUE
    Meta                =          FALSE

    Exchange Hybrid     =           TRUE
    MP2 Hybrid          =          FALSE

   => Exchange Functionals <=

    0.0800   Slater exchange
    0.7200         Becke 88

   => Exact (HF) Exchange <=

    0.2000               HF 

   => Correlation Functionals <=

    0.1900   Vosko, Wilk & Nusair (VWN5_RPA)
    0.8100   Lee, Yang & Parr

   => Molecular Quadrature <=

    Radial Scheme       =       TREUTLER
    Pruning Scheme      =           FLAT
    Nuclear Scheme      =       TREUTLER

    BS radius alpha     =              1
    Pruning alpha       =              1
    Radial Points       =             75
    Spherical Points    =            302
    Total Points        =         397358
    Total Blocks        =           2988
    Max Points          =            256
    Max Functions       =            149

   => -D3ZERO: Empirical Dispersion <=

    Grimme's -D3 (zero-damping) Dispersion Correction
    Grimme S.; Antony J.; Ehrlich S.; Krieg H. (2010), J. Chem. Phys., 132: 154104

        S6 =   1.000000E+00
        S8 =   1.703000E+00
       SR6 =   1.261000E+00
       SR8 =   1.000000E+00
    ALPHA6 =   1.400000E+01

   => Loading Basis Set <=

    Name: (6-31G* AUX)
    Role: JKFIT
    Keyword: DF_BASIS_SCF
    atoms 1-7         entry C          line   121 file /shared/joao/test_parameterize/miniconda3/share/psi4/basis/cc-pvdz-jkfit.gbs 
    atoms 8-12, 15-18 entry H          line    51 file /shared/joao/test_parameterize/miniconda3/share/psi4/basis/cc-pvdz-jkfit.gbs 
    atoms 13-14       entry N          line   171 file /shared/joao/test_parameterize/miniconda3/share/psi4/basis/cc-pvdz-jkfit.gbs 

  ==> Pre-Iterations <==

   -------------------------------------------------------
    Irrep   Nso     Nmo     Nalpha   Nbeta   Ndocc  Nsocc
   -------------------------------------------------------
     A        153     153       0       0       0       0
   -------------------------------------------------------
    Total     153     153      32      32      32       0
   -------------------------------------------------------

  ==> Integral Setup <==

  ==> DiskDFJK: Density-Fitted J/K Matrices <==

    J tasked:                  Yes
    K tasked:                  Yes
    wK tasked:                  No
    OpenMP threads:              4
    Integrals threads:           4
    Memory (MB):              2002
    Algorithm:                Core
    Integral Cache:           NONE
    Schwarz Cutoff:          1E-12
    Fitting Condition:       1E-12

   => Auxiliary Basis Set <=

  Basis Set: (6-31G* AUX)
    Blend: CC-PVDZ-JKFIT
    Number of shells: 297
    Number of basis function: 954
    Number of Cartesian functions: 954
    Spherical Harmonics?: false
    Max angular momentum: 3

  Minimum eigenvalue in the overlap matrix is 4.8874587990E-04.
  Using Symmetric Orthogonalization.

  SCF Guess: Superposition of Atomic Densities via on-the-fly atomic UHF.

  ==> Iterations <==

                           Total Energy        Delta E     RMS |[F,P]|

   @DF-RKS iter   0:  -379.69068617927883   -3.79691e+02   4.81231e-02 
   @DF-RKS iter   1:  -381.05609378380683   -1.36541e+00   8.18045e-03 
   @DF-RKS iter   2:  -381.00257375635471    5.35200e-02   8.78725e-03 DIIS
   @DF-RKS iter   3:  -381.45843878935517   -4.55865e-01   9.00940e-04 DIIS
   @DF-RKS iter   4:  -381.46151745353251   -3.07866e-03   5.00106e-04 DIIS
   @DF-RKS iter   5:  -381.46280648561685   -1.28903e-03   1.72345e-04 DIIS
   @DF-RKS iter   6:  -381.46296658247633   -1.60097e-04   5.68979e-05 DIIS
   @DF-RKS iter   7:  -381.46298550226709   -1.89198e-05   1.45713e-05 DIIS
   @DF-RKS iter   8:  -381.46298600806091   -5.05794e-07   3.77437e-06 DIIS
   @DF-RKS iter   9:  -381.46298608551763   -7.74567e-08   1.11798e-06 DIIS
   @DF-RKS iter  10:  -381.46298609166786   -6.15023e-09   4.87217e-07 DIIS
   @DF-RKS iter  11:  -381.46298609309457   -1.42671e-09   6.98476e-08 DIIS
   @DF-RKS iter  12:  -381.46298609311168   -1.71099e-11   4.51002e-08 DIIS
   @DF-RKS iter  13:  -381.46298609312402   -1.23350e-11   1.13661e-08 DIIS
   @DF-RKS iter  14:  -381.46298609312441   -3.97904e-13   6.10636e-09 DIIS

  ==> Post-Iterations <==

    Orbital Energies [Eh]
    ---------------------

    Doubly Occupied:                                                      

       1A    -14.575741     2A    -14.575734     3A    -10.504152  
       4A    -10.367788     5A    -10.349277     6A    -10.349269  
       7A    -10.333758     8A    -10.333136     9A    -10.332902  
      10A     -1.189422    11A     -1.097075    12A     -1.008641  
      13A     -0.923841    14A     -0.894997    15A     -0.845466  
      16A     -0.788283    17A     -0.762644    18A     -0.754746  
      19A     -0.728629    20A     -0.692802    21A     -0.667903  
      22A     -0.621513    23A     -0.617595    24A     -0.574735  
      25A     -0.574030    26A     -0.566403    27A     -0.514973  
      28A     -0.497657    29A     -0.490373    30A     -0.479168  
      31A     -0.404428    32A     -0.398360  

    Virtual:                                                              

      33A     -0.203655    34A     -0.161443    35A     -0.146570  
      36A     -0.114418    37A     -0.067964    38A     -0.063265  
      39A     -0.034633    40A     -0.027816    41A      0.009234  
      42A      0.014151    43A      0.025237    44A      0.055479  
      45A      0.060402    46A      0.073801    47A      0.140798  
      48A      0.148789    49A      0.165639    50A      0.183345  
      51A      0.202882    52A      0.214958    53A      0.292164  
      54A      0.344999    55A      0.356571    56A      0.377478  
      57A      0.394413    58A      0.398643    59A      0.402826  
      60A      0.425247    61A      0.439831    62A      0.452905  
      63A      0.457281    64A      0.466055    65A      0.478667  
      66A      0.481532    67A      0.481894    68A      0.494615  
      69A      0.512998    70A      0.530023    71A      0.566112  
      72A      0.576213    73A      0.601677    74A      0.626566  
      75A      0.667253    76A      0.677256    77A      0.681596  
      78A      0.683447    79A      0.700701    80A      0.711545  
      81A      0.732239    82A      0.749454    83A      0.779789  
      84A      0.785424    85A      0.812250    86A      0.831048  
      87A      0.851947    88A      0.940821    89A      0.967291  
      90A      1.005571    91A      1.023220    92A      1.025990  
      93A      1.030953    94A      1.090345    95A      1.135664  
      96A      1.187247    97A      1.199548    98A      1.293093  
      99A      1.293274   100A      1.330612   101A      1.331720  
     102A      1.360189   103A      1.363629   104A      1.380342  
     105A      1.445419   106A      1.466912   107A      1.503219  
     108A      1.580794   109A      1.603941   110A      1.662264  
     111A      1.677849   112A      1.737879   113A      1.764738  
     114A      1.796445   115A      1.826180   116A      1.843504  
     117A      1.892358   118A      1.910916   119A      1.976203  
     120A      1.990746   121A      1.995865   122A      2.002002  
     123A      2.040750   124A      2.064845   125A      2.116623  
     126A      2.132933   127A      2.164878   128A      2.204492  
     129A      2.213034   130A      2.280072   131A      2.385611  
     132A      2.400311   133A      2.400612   134A      2.432749  
     135A      2.507960   136A      2.574358   137A      2.580440  
     138A      2.589916   139A      2.626698   140A      2.629579  
     141A      2.711569   142A      2.888007   143A      2.913454  
     144A      3.257889   145A      3.627513   146A      3.633181  
     147A      3.944938   148A      3.968769   149A      3.986674  
     150A      4.121754   151A      4.179191   152A      4.263445  
     153A      4.555160  

    Final Occupation by Irrep:
              A 
    DOCC [    32 ]

  Energy converged.

  @DF-RKS Final Energy:  -381.46298609312441

   => Energetics <=

    Nuclear Repulsion Energy =            415.8188047923840713
    One-Electron Energy =               -1326.9880207050634908
    Two-Electron Energy =                 574.1199298256696011
    DFT Exchange-Correlation Energy =     -44.4021284861146057
    Empirical Dispersion Energy =          -0.0115715200000000
    VV10 Nonlocal Energy =                  0.0000000000000000
    Total Energy =                       -381.4629860931244707



Properties will be evaluated at   0.000000,   0.000000,   0.000000 [a0]

Properties computed using the SCF density matrix

  Nuclear Dipole Moment: [e a0]
     X:     0.0000      Y:    -0.0000      Z:     0.0248

  Electronic Dipole Moment: [e a0]
     X:    -0.0000      Y:     0.0000      Z:    -2.5747

  Dipole Moment: [e a0]
     X:    -0.0000      Y:     0.0000      Z:    -2.5499     Total:     2.5499

  Dipole Moment: [D]
     X:    -0.0000      Y:     0.0000      Z:    -6.4813     Total:     6.4813


*** tstop() called on rosa.prib.upf.edu at Sat Sep 29 20:43:41 2018
Module time:
	user time   =     107.76 seconds =       1.80 minutes
	system time =       1.28 seconds =       0.02 minutes
	total time  =         37 seconds =       0.62 minutes
Total time:
	user time   =     107.76 seconds =       1.80 minutes
	system time =       1.28 seconds =       0.02 minutes
	total time  =         37 seconds =       0.62 minutes

*** tstart() called on rosa.prib.upf.edu
*** at Sat Sep 29 20:43:41 2018


         ------------------------------------------------------------
                                   SCF GRAD                          
                          Rob Parrish, Justin Turney,                
                       Andy Simmonett, and Alex Sokolov              
         ------------------------------------------------------------

  ==> Geometry <==

    Molecular point group: c1
    Full point group: C1

    Geometry (in Angstrom), charge = 1, multiplicity = 1:

       Center              X                  Y                   Z               Mass       
    ------------   -----------------  -----------------  -----------------  -----------------
         C            0.000000000000     0.000000000000    -0.177864000000    12.000000000000
         C            0.036678000000     1.219374000000     0.524165000000    12.000000000000
         C            0.031765000000     1.213120000000     1.915444000000    12.000000000000
         C            0.000000000000     0.000000000000     2.610107000000    12.000000000000
         C           -0.031765000000    -1.213120000000     1.915444000000    12.000000000000
         C           -0.036678000000    -1.219375000000     0.524165000000    12.000000000000
         C            0.000000000000     0.000000000000    -1.644734000000    12.000000000000
         H            0.018170000000     2.164705000000    -0.010854000000     1.007825032070
         H            0.042402000000     2.152895000000     2.457886000000     1.007825032070
         H            0.000000000000     0.000000000000     3.695756000000     1.007825032070
         H           -0.042402000000    -2.152895000000     2.457886000000     1.007825032070
         H           -0.018170000000    -2.164705000000    -0.010853000000     1.007825032070
         N           -1.140612000000    -0.165932000000    -2.308461000000    14.003074004780
         N            1.140612000000     0.165932000000    -2.308461000000    14.003074004780
         H            1.181463000000     0.265776000000    -3.315997000000     1.007825032070
         H            2.021932000000     0.128637000000    -1.813317000000     1.007825032070
         H           -2.021932000000    -0.128637000000    -1.813316000000     1.007825032070
         H           -1.181463000000    -0.265775000000    -3.315997000000     1.007825032070

  Nuclear repulsion =  415.818804792384071

  ==> Basis Set <==

  Basis Set: 6-31G*
    Blend: 6-31G*
    Number of shells: 72
    Number of basis function: 153
    Number of Cartesian functions: 153
    Spherical Harmonics?: false
    Max angular momentum: 2

  ==> DFJKGrad: Density-Fitted SCF Gradients <==

    Gradient:                    1
    J tasked:                  Yes
    K tasked:                  Yes
    wK tasked:                  No
    OpenMP threads:              4
    Integrals threads:           4
    Memory (MB):              2002
    Schwarz Cutoff:          0E+00
    Fitting Condition:       1E-12

   => Auxiliary Basis Set <=

  Basis Set: (6-31G* AUX)
    Blend: CC-PVDZ-JKFIT
    Number of shells: 297
    Number of basis function: 954
    Number of Cartesian functions: 954
    Spherical Harmonics?: false
    Max angular momentum: 3

  ==> DFT Potential <==

   => Composite Functional: B3LYP-D3ZERO <= 

    B3LYP-d3zero Hyb-GGA Exchange-Correlation Functional

    P. J. Stephens, F. J. Devlin, C. F. Chabalowski, and M. J. Frisch, J. Phys. Chem. 98, 11623 (1994)

    Deriv               =              1
    GGA                 =           TRUE
    Meta                =          FALSE

    Exchange Hybrid     =           TRUE
    MP2 Hybrid          =          FALSE

   => Exchange Functionals <=

    0.0800   Slater exchange
    0.7200         Becke 88

   => Exact (HF) Exchange <=

    0.2000               HF 

   => Correlation Functionals <=

    0.1900   Vosko, Wilk & Nusair (VWN5_RPA)
    0.8100   Lee, Yang & Parr

   => Molecular Quadrature <=

    Radial Scheme       =       TREUTLER
    Pruning Scheme      =           FLAT
    Nuclear Scheme      =       TREUTLER

    BS radius alpha     =              1
    Pruning alpha       =              1
    Radial Points       =             75
    Spherical Points    =            302
    Total Points        =         397358
    Total Blocks        =           2988
    Max Points          =            256
    Max Functions       =            149


  -Total Gradient:
     Atom            X                  Y                   Z
    ------   -----------------  -----------------  -----------------
       1       -0.000000003221     0.000000369707    -0.014854787117
       2        0.001514952855     0.000022233488     0.004696220803
       3        0.000822208662     0.002380894324    -0.002056381530
       4       -0.000000000759    -0.000000082883     0.000187691262
       5       -0.000822205107    -0.002380648551    -0.002056326999
       6       -0.001514947150    -0.000023646702     0.004695861620
       7       -0.000000005308     0.000000106681     0.015329976786
       8       -0.002098246290     0.000297674826     0.000918100945
       9       -0.000259417214    -0.000148841912     0.000172248299
      10        0.000000000109     0.000000006476    -0.000006717538
      11        0.000259415739     0.000148825704     0.000172199036
      12        0.002098229133    -0.000296869876     0.000918592362
      13       -0.004200748993    -0.001288621362    -0.003732037031
      14        0.004201038155     0.001288554316    -0.003731628796
      15       -0.000440280000     0.001247316554     0.001477546286
      16       -0.000219863155    -0.002331825225    -0.001813939363
      17        0.000219532547     0.002331842749    -0.001813630766
      18        0.000440339941    -0.001247288352     0.001477616372


*** tstop() called on rosa.prib.upf.edu at Sat Sep 29 20:43:50 2018
Module time:
	user time   =      27.79 seconds =       0.46 minutes
	system time =       0.43 seconds =       0.01 minutes
	total time  =          9 seconds =       0.15 minutes
Total time:
	user time   =     135.67 seconds =       2.26 minutes
	system time =       1.72 seconds =       0.03 minutes
	total time  =         46 seconds =       0.77 minutes

			-----------------------------------------
			 OPTKING 2.0: for geometry optimizations 
			  - R.A. King,  Bethel University        
			-----------------------------------------
	At level 1: Red. Int., RFO, no backsteps, dynamic trust

	Internal coordinates to be generated automatically.
	Detected frag 1 with atoms:  1 2 3 4 5 6 7 8 9 10 11 12 13 14 15 16 17 18
	---Fragment 1 Bond Connectivity---
	 1 : 2 6 7
	 2 : 1 3 8
	 3 : 2 4 9
	 4 : 3 5 10
	 5 : 4 6 11
	 6 : 1 5 12
	 7 : 1 13 14
	 8 : 2
	 9 : 3
	 10 : 4
	 11 : 5
	 12 : 6
	 13 : 7 17 18
	 14 : 7 15 16
	 15 : 14
	 16 : 14
	 17 : 13
	 18 : 13

	Assuming in current code that numbering for constraints corresponds to unified fragment.
	Frozen dihedral atom list: 
	     2     1     7    13
	---Fragment 1 Geometry and Gradient---
	 C           0.0000000000        0.0000000000       -0.3361142489
	 C           0.0693113751        2.3042829136        0.9905282984
	 C           0.0600271506        2.2924645663        3.6196645829
	 C           0.0000000000        0.0000000000        4.9323874075
	 C          -0.0600271506       -2.2924645663        3.6196645829
	 C          -0.0693113751       -2.3042848033        0.9905282984
	 C           0.0000000000        0.0000000000       -3.1080968214
	 H           0.0343363238        4.0906996085       -0.0205110874
	 H           0.0801281675        4.0683819429        4.6447314059
	 H           0.0000000000        0.0000000000        6.9839666940
	 H          -0.0801281675       -4.0683819429        4.6447314059
	 H          -0.0343363238       -4.0906996085       -0.0205091977
	 N          -2.1554443039       -0.3135660367       -4.3623590784
	 N           2.1554443039        0.3135660367       -4.3623590784
	 H           2.2326415061        0.5022438527       -6.2663261875
	 H           3.8208977393        0.2430887006       -3.4266725221
	 H          -3.8208977393       -0.2430887006       -3.4266706324
	 H          -2.2326415061       -0.5022419630       -6.2663261875
	            -0.0000000032        0.0000003697       -0.0148547871
	             0.0015149529        0.0000222335        0.0046962208
	             0.0008222087        0.0023808943       -0.0020563815
	            -0.0000000008       -0.0000000829        0.0001876913
	            -0.0008222051       -0.0023806486       -0.0020563270
	            -0.0015149472       -0.0000236467        0.0046958616
	            -0.0000000053        0.0000001067        0.0153299768
	            -0.0020982463        0.0002976748        0.0009181009
	            -0.0002594172       -0.0001488419        0.0001722483
	             0.0000000001        0.0000000065       -0.0000067175
	             0.0002594157        0.0001488257        0.0001721990
	             0.0020982291       -0.0002968699        0.0009185924
	            -0.0042007490       -0.0012886214       -0.0037320370
	             0.0042010382        0.0012885543       -0.0037316288
	            -0.0004402800        0.0012473166        0.0014775463
	            -0.0002198632       -0.0023318252       -0.0018139394
	             0.0002195325        0.0023318427       -0.0018136308
	             0.0004403399       -0.0012472884        0.0014776164

	Previous optimization step data not found.  Starting new optimization.

	---Fragment 1 Intrafragment Coordinates---
	 - Coordinate -           - BOHR/RAD -       - ANG/DEG -
	 R(1,2)           =         2.659794	       1.407502
	 R(1,6)           =         2.659796	       1.407503
	 R(1,7)           =         2.771983	       1.466870
	 R(2,3)           =         2.629179	       1.391302
	 R(2,8)           =         2.052976	       1.086388
	 R(3,4)           =         2.642393	       1.398294
	 R(3,9)           =         2.050622	       1.085142
	 R(4,5)           =         2.642393	       1.398294
	 R(4,10)          =         2.051579	       1.085649
	 R(5,6)           =         2.629179	       1.391302
	 R(5,11)          =         2.050622	       1.085142
	 R(6,12)          =         2.052973	       1.086386
	 R(7,13)          =         2.513451	       1.330061
	 R(7,14)          =         2.513451	       1.330061
	 R(13,17)         =         1.911600	       1.011575
	 R(13,18)         =         1.914850	       1.013295
	 R(14,15)         =         1.914850	       1.013295
	 R(14,16)         =         1.911599	       1.011575
	 B(1,2,3)         =         2.088380	     119.655376
	 B(1,2,8)         =         2.103396	     120.515689
	 B(1,6,5)         =         2.088379	     119.655315
	 B(1,6,12)        =         2.103396	     120.515729
	 B(1,7,13)        =         2.093264	     119.935179
	 B(1,7,14)        =         2.093264	     119.935179
	 B(2,1,6)         =         2.097220	     120.161857
	 B(2,1,7)         =         2.092983	     119.919082
	 B(2,3,4)         =         2.095279	     120.050636
	 B(2,3,9)         =         2.089719	     119.732108
	 B(3,2,8)         =         2.090149	     119.756722
	 B(3,4,5)         =         2.101793	     120.423859
	 B(3,4,10)        =         2.090696	     119.788070
	 B(4,3,9)         =         2.098135	     120.214297
	 B(4,5,6)         =         2.095280	     120.050677
	 B(4,5,11)        =         2.098135	     120.214297
	 B(5,4,10)        =         2.090696	     119.788070
	 B(5,6,12)        =         2.090149	     119.756743
	 B(6,1,7)         =         2.092982	     119.919061
	 B(6,5,11)        =         2.089719	     119.732067
	 B(7,13,17)       =         2.092410	     119.886288
	 B(7,13,18)       =         2.144860	     122.891446
	 B(7,14,15)       =         2.144860	     122.891451
	 B(7,14,16)       =         2.092411	     119.886337
	 B(13,7,14)       =         2.096658	     120.129642
	 B(15,14,16)      =         2.043399	     117.078155
	 B(17,13,18)      =         2.043400	     117.078205
	 D(1,2,3,4)       =         0.007799	       0.446825
	 D(1,2,3,9)       =        -3.122896	    -178.928735
	 D(1,6,5,4)       =         0.007799	       0.446822
	 D(1,6,5,11)      =        -3.122896	    -178.928737
	 D(1,7,13,17)     =         0.187844	      10.762693
	 D(1,7,13,18)     =        -3.032165	    -173.730283
	 D(1,7,14,15)     =        -3.032164	    -173.730216
	 D(1,7,14,16)     =         0.187845	      10.762703
	 D(2,1,6,5)       =        -0.003906	      -0.223802
	 D(2,1,6,12)      =        -3.091437	    -177.126283
	*D(2,1,7,13)      =        -1.745329	    -100.000014
	 D(2,1,7,14)      =         1.396263	      79.999986
	 D(2,3,4,5)       =        -0.003942	      -0.225875
	 D(2,3,4,10)      =         3.137650	     179.774125
	 D(3,2,1,6)       =        -0.003906	      -0.223806
	 D(3,2,1,7)       =         3.137687	     179.776196
	 D(3,4,5,6)       =        -0.003942	      -0.225874
	 D(3,4,5,11)      =         3.126699	     179.146646
	 D(4,3,2,8)       =         3.095744	     177.373058
	 D(4,5,6,12)      =         3.095744	     177.373055
	 D(5,4,3,9)       =         3.126699	     179.146646
	 D(5,6,1,7)       =         3.137687	     179.776197
	 D(6,1,2,8)       =        -3.091437	    -177.126287
	 D(6,1,7,13)      =         1.396263	      79.999987
	 D(6,1,7,14)      =        -1.745329	    -100.000013
	 D(6,5,4,10)      =         3.137650	     179.774126
	 D(7,1,2,8)       =         0.050156	       2.873714
	 D(7,1,6,12)      =         0.050156	       2.873716
	 D(8,2,3,9)       =        -0.034950	      -2.002503
	 D(9,3,4,10)      =        -0.014894	      -0.853354
	 D(10,4,5,11)     =        -0.014894	      -0.853354
	 D(11,5,6,12)     =        -0.034950	      -2.002504
	 D(13,7,14,15)    =         0.109428	       6.269784
	 D(13,7,14,16)    =        -2.953748	    -169.237297
	 D(14,7,13,17)    =        -2.953748	    -169.237307
	 D(14,7,13,18)    =         0.109427	       6.269717

	Current energy   :      -381.4629860931

	Generating empirical Hessian (Schlegel '84) for each fragment.
	Taking RFO optimization step.
	Going to follow RFO solution 1.
	Using RFO vector 1.
	Norm of target step-size    0.30637
	Projected energy change by RFO approximation:        -0.0011220728

	Back-transformation to cartesian coordinates...
	Could not converge backtransformation.
	Using first guess instead.

	Back-transformation to cartesian coordinates to adjust frozen coordinates...
	Successfully converged to displaced geometry.

	--- Internal Coordinate Step in ANG or DEG, aJ/ANG or AJ/DEG ---
	 ---------------------------------------------------------------------------
	   Coordinate                Previous        Force       Change         New 
	   ----------                --------       ------       ------       ------
	    1 R(1,2)          =      1.407502    -0.028676    -0.004145     1.403357
	    2 R(1,6)          =      1.407503    -0.028676    -0.003484     1.404020
	    3 R(1,7)          =      1.466870     0.059331     0.010627     1.477497
	    4 R(2,3)          =      1.391302     0.014796     0.002132     1.393434
	    5 R(2,8)          =      1.086388     0.001301     0.002066     1.088453
	    6 R(3,4)          =      1.398294    -0.005621    -0.000394     1.397900
	    7 R(3,9)          =      1.085142     0.000369     0.000293     1.085435
	    8 R(4,5)          =      1.398294    -0.005617    -0.000564     1.397730
	    9 R(4,10)         =      1.085649     0.000046     0.000127     1.085776
	   10 R(5,6)          =      1.391302     0.014805     0.002136     1.393438
	   11 R(5,11)         =      1.085142     0.000369     0.001035     1.086178
	   12 R(6,12)         =      1.086386     0.001309     0.002218     1.088604
	   13 R(7,13)         =      1.330061    -0.041938    -0.004077     1.325984
	   14 R(7,14)         =      1.330061    -0.041938    -0.002621     1.327440
	   15 R(13,17)        =      1.011575     0.008176     0.007785     1.019360
	   16 R(13,18)        =      1.013295     0.011247     0.003799     1.017093
	   17 R(14,15)        =      1.013295     0.011247     0.001779     1.015074
	   18 R(14,16)        =      1.011575     0.008180     0.007331     1.018906
	   19 B(1,2,3)        =    119.655376    -0.000125    -0.416611   119.238765
	   20 B(1,2,8)        =    120.515689    -0.000006    -0.108487   120.407203
	   21 B(1,6,5)        =    119.655315    -0.000125    -0.411336   119.243979
	   22 B(1,6,12)       =    120.515729    -0.000007    -0.011921   120.503809
	   23 B(1,7,13)       =    119.935179    -0.000183    -0.555014   119.380165
	   24 B(1,7,14)       =    119.935179    -0.000183    -0.594437   119.340741
	   25 B(2,1,6)        =    120.161857     0.000249     0.683605   120.845462
	   26 B(2,1,7)        =    119.919082    -0.000125    -0.360549   119.558532
	   27 B(2,3,4)        =    120.050636     0.000017     0.098129   120.148765
	   28 B(2,3,9)        =    119.732108    -0.000026    -0.149426   119.582682
	   29 B(3,2,8)        =    119.756722     0.000135     0.597278   120.354000
	   30 B(3,4,5)        =    120.423859    -0.000033    -0.048495   120.375365
	   31 B(3,4,10)       =    119.788070     0.000016     0.035737   119.823807
	   32 B(4,3,9)        =    120.214297     0.000010     0.053905   120.268201
	   33 B(4,5,6)        =    120.050677     0.000017     0.076855   120.127532
	   34 B(4,5,11)       =    120.214297     0.000010     0.044873   120.259170
	   35 B(5,4,10)       =    119.788070     0.000016     0.011552   119.799623
	   36 B(5,6,12)       =    119.756743     0.000136     0.493849   120.250592
	   37 B(6,1,7)        =    119.919061    -0.000125    -0.398746   119.520315
	   38 B(6,5,11)       =    119.732067    -0.000026    -0.121586   119.610480
	   39 B(7,13,17)      =    119.886288    -0.000114    -0.576256   119.310032
	   40 B(7,13,18)      =    122.891446     0.000078     0.279523   123.170969
	   41 B(7,14,15)      =    122.891451     0.000078     0.279419   123.170870
	   42 B(7,14,16)      =    119.886337    -0.000114    -0.354841   119.531496
	   43 B(13,7,14)      =    120.129642     0.000366     1.077857   121.207499
	   44 B(15,14,16)     =    117.078155     0.000040     0.184484   117.262640
	   45 B(17,13,18)     =    117.078205     0.000040     0.405648   117.483853
	   46 D(1,2,3,4)      =      0.446825    -0.000002    -0.556182    -0.109357
	   47 D(1,2,3,9)      =   -178.928735    -0.000008    -1.395647  -180.324382
	   48 D(1,6,5,4)      =      0.446822     0.000003     0.621428     1.068250
	   49 D(1,6,5,11)     =   -178.928737    -0.000004    -0.612020  -179.540757
	   50 D(1,7,13,17)    =     10.762693    -0.000045    -6.675627     4.087066
	   51 D(1,7,13,18)    =   -173.730283    -0.000028    -4.395114  -178.125397
	   52 D(1,7,14,15)    =   -173.730216    -0.000012    -1.382313  -175.112529
	   53 D(1,7,14,16)    =     10.762703    -0.000029    -3.662942     7.099762
	   54 D(2,1,6,5)      =     -0.223802    -0.000007    -1.511784    -1.735586
	   55 D(2,1,6,12)     =   -177.126283    -0.000024    -4.147403  -181.273685
	   56 *D(2,1,7,13)    =   -100.000014    -0.000000    -0.000000  -100.000014
	   57 D(2,1,7,14)     =     79.999986    -0.000016    -3.039131    76.960855
	   58 D(2,3,4,5)      =     -0.225875    -0.000002    -0.318203    -0.544078
	   59 D(2,3,4,10)     =    179.774125     0.000000     0.082042   179.856166
	   60 D(3,2,1,6)      =     -0.223806     0.000007     1.479904     1.256098
	   61 D(3,2,1,7)      =    179.776196    -0.000008    -1.698948   178.077248
	   62 D(3,4,5,6)      =     -0.225874     0.000001     0.283051     0.057177
	   63 D(3,4,5,11)     =    179.146646     0.000009     1.523522   180.670168
	   64 D(4,3,2,8)      =    177.373058     0.000016     2.452352   179.825409
	   65 D(4,5,6,12)     =    177.373055     0.000019     3.234489   180.607545
	   66 D(5,4,3,9)      =    179.146646     0.000004     0.525787   179.672433
	   67 D(5,6,1,7)      =    179.776197     0.000007     1.665865   181.442062
	   68 D(6,1,2,8)      =   -177.126287    -0.000012    -1.552346  -178.678633
	   69 D(6,1,7,13)     =     79.999987    -0.000014    -3.136332    76.863655
	   70 D(6,1,7,14)     =   -100.000013    -0.000030    -6.175463  -106.175476
	   71 D(6,5,4,10)     =    179.774126    -0.000001    -0.117097   179.657029
	   72 D(7,1,2,8)      =      2.873714    -0.000027    -4.731197    -1.857483
	   73 D(7,1,6,12)     =      2.873716    -0.000010    -0.969754     1.903962
	   74 D(8,2,3,9)      =     -2.002503     0.000010     1.612887    -0.389616
	   75 D(9,3,4,10)     =     -0.853354     0.000006     0.926031     0.072678
	   76 D(10,4,5,11)    =     -0.853354     0.000007     1.123374     0.270020
	   77 D(11,5,6,12)    =     -2.002504     0.000012     2.001041    -0.001463
	   78 D(13,7,14,15)   =      6.269784    -0.000028    -4.478662     1.791122
	   79 D(13,7,14,16)   =   -169.237297    -0.000045    -6.759291  -175.996587
	   80 D(14,7,13,17)   =   -169.237307    -0.000029    -3.578078  -172.815385
	   81 D(14,7,13,18)   =      6.269717    -0.000012    -1.297565     4.972152
	 ---------------------------------------------------------------------------
	Successfully symmetrized geometry.

  ==> Convergence Check <==

  Measures of convergence in internal coordinates in au.
  Criteria marked as inactive (o), active & met (*), and active & unmet ( ).
  --------------------------------------------------------------------------------------------- ~
   Step     Total Energy     Delta E     MAX Force     RMS Force      MAX Disp      RMS Disp    ~
  --------------------------------------------------------------------------------------------- ~
    Convergence Criteria    1.00e-06 *    3.00e-04 *             o    1.20e-03 *             o  ~
  --------------------------------------------------------------------------------------------- ~
      1    -381.46298609   -3.81e+02      7.20e-03      1.76e-03 o    1.18e-01      3.41e-02 o  ~
  ---------------------------------------------------------------------------------------------

	Writing optimization data to binary file.
	Structure for next step:
	Cartesian Geometry (in Angstrom)
	    C     0.0352500138  -0.0145126765  -0.1751657110
	    C     0.0694633677   1.2093070371   0.5107691347
	    C     0.0470740884   1.2095046303   1.9040228519
	    C    -0.0111573333   0.0017181340   2.6054401366
	    C    -0.0588085016  -1.2138011822   1.9170421173
	    C    -0.0473408889  -1.2294128808   0.5237385891
	    C     0.0155756315  -0.0217228141  -1.6525144633
	    H     0.1119224880   2.1478748765  -0.0387929769
	    H     0.0786664894   2.1526661893   2.4403224529
	    H    -0.0260012074   0.0079321558   3.6910971348
	    H    -0.1149821714  -2.1506421135   2.4638100567
	    H    -0.0943435452  -2.1744600217  -0.0145323331
	    N    -1.1347428011  -0.2021185905  -2.2869109269
	    N     1.1392453325   0.2129614053  -2.3191385872
	    H     1.1787431495   0.2931244538  -3.3302709898
	    H     2.0189369290   0.2868703513  -1.8103660980
	    H    -1.9968600764  -0.2703520413  -1.7472872010
	    H    -1.2106409644  -0.2449369130  -3.3002641867
			--------------------------
			 OPTKING Finished Execution 
			--------------------------

    Structure for next step:
    Molecular point group: c1
    Full point group: C1

    Geometry (in Angstrom), charge = 1, multiplicity = 1:

    C            0.035250013765    -0.014512676481    -0.175165710988
    C            0.069463367722     1.209307037080     0.510769134705
    C            0.047074088400     1.209504630305     1.904022851935
    C           -0.011157333262     0.001718134007     2.605440136588
    C           -0.058808501647    -1.213801182187     1.917042117308
    C           -0.047340888950    -1.229412880835     0.523738589071
    C            0.015575631456    -0.021722814117    -1.652514463268
    H            0.111922487985     2.147874876548    -0.038792976916
    H            0.078666489396     2.152666189331     2.440322452854
    H           -0.026001207406     0.007932155809     3.691097134765
    H           -0.114982171367    -2.150642113486     2.463810056660
    H           -0.094343545180    -2.174460021650    -0.014532333128
    N           -1.134742801099    -0.202118590498    -2.286910926947
    N            1.139245332505     0.212961405347    -2.319138587197
    H            1.178743149500     0.293124453785    -3.330270989816
    H            2.018936928987     0.286870351330    -1.810366097987
    H           -1.996860076408    -0.270352041329    -1.747287200954
    H           -1.210640964397    -0.244936912958    -3.300264186687

gradient() will perform analytic gradient computation.

*** tstart() called on rosa.prib.upf.edu
*** at Sat Sep 29 20:43:50 2018

   => Loading Basis Set <=

    Name: 6-31G*
    Role: ORBITAL
    Keyword: BASIS
    atoms 1-7         entry C          line   111 file /shared/joao/test_parameterize/miniconda3/share/psi4/basis/6-31gs.gbs 
    atoms 8-12, 15-18 entry H          line    44 file /shared/joao/test_parameterize/miniconda3/share/psi4/basis/6-31gs.gbs 
    atoms 13-14       entry N          line   128 file /shared/joao/test_parameterize/miniconda3/share/psi4/basis/6-31gs.gbs 


         ---------------------------------------------------------
                                   SCF
            by Justin Turney, Rob Parrish, Andy Simmonett
                             and Daniel Smith
                              RKS Reference
                        4 Threads,   2861 MiB Core
         ---------------------------------------------------------

  ==> Geometry <==

    Molecular point group: c1
    Full point group: C1

    Geometry (in Angstrom), charge = 1, multiplicity = 1:

       Center              X                  Y                   Z               Mass       
    ------------   -----------------  -----------------  -----------------  -----------------
         C            0.035250013765    -0.014512676481    -0.175165710988    12.000000000000
         C            0.069463367722     1.209307037080     0.510769134705    12.000000000000
         C            0.047074088400     1.209504630305     1.904022851935    12.000000000000
         C           -0.011157333262     0.001718134007     2.605440136588    12.000000000000
         C           -0.058808501647    -1.213801182187     1.917042117308    12.000000000000
         C           -0.047340888950    -1.229412880835     0.523738589071    12.000000000000
         C            0.015575631456    -0.021722814117    -1.652514463268    12.000000000000
         H            0.111922487985     2.147874876548    -0.038792976916     1.007825032070
         H            0.078666489396     2.152666189331     2.440322452854     1.007825032070
         H           -0.026001207406     0.007932155809     3.691097134765     1.007825032070
         H           -0.114982171367    -2.150642113486     2.463810056660     1.007825032070
         H           -0.094343545180    -2.174460021650    -0.014532333128     1.007825032070
         N           -1.134742801099    -0.202118590498    -2.286910926947    14.003074004780
         N            1.139245332505     0.212961405347    -2.319138587197    14.003074004780
         H            1.178743149500     0.293124453785    -3.330270989816     1.007825032070
         H            2.018936928987     0.286870351330    -1.810366097987     1.007825032070
         H           -1.996860076408    -0.270352041329    -1.747287200954     1.007825032070
         H           -1.210640964397    -0.244936912958    -3.300264186687     1.007825032070

  Running in c1 symmetry.

  Rotational constants: A =      0.12163  B =      0.03699  C =      0.03331 [cm^-1]
  Rotational constants: A =   3646.35478  B =   1109.07555  C =    998.64119 [MHz]
  Nuclear repulsion =  415.988008280166980

  Charge       = 1
  Multiplicity = 1
  Electrons    = 64
  Nalpha       = 32
  Nbeta        = 32

  ==> Algorithm <==

  SCF Algorithm Type is DF.
  DIIS enabled.
  MOM disabled.
  Fractional occupation disabled.
  Guess Type is READ.
  Energy threshold   = 1.00e-08
  Density threshold  = 1.00e-08
  Integral threshold = 0.00e+00

  ==> Primary Basis <==

  Basis Set: 6-31G*
    Blend: 6-31G*
    Number of shells: 72
    Number of basis function: 153
    Number of Cartesian functions: 153
    Spherical Harmonics?: false
    Max angular momentum: 2

  ==> DFT Potential <==

   => Composite Functional: B3LYP-D3ZERO <= 

    B3LYP-d3zero Hyb-GGA Exchange-Correlation Functional

    P. J. Stephens, F. J. Devlin, C. F. Chabalowski, and M. J. Frisch, J. Phys. Chem. 98, 11623 (1994)

    Deriv               =              1
    GGA                 =           TRUE
    Meta                =          FALSE

    Exchange Hybrid     =           TRUE
    MP2 Hybrid          =          FALSE

   => Exchange Functionals <=

    0.0800   Slater exchange
    0.7200         Becke 88

   => Exact (HF) Exchange <=

    0.2000               HF 

   => Correlation Functionals <=

    0.1900   Vosko, Wilk & Nusair (VWN5_RPA)
    0.8100   Lee, Yang & Parr

   => Molecular Quadrature <=

    Radial Scheme       =       TREUTLER
    Pruning Scheme      =           FLAT
    Nuclear Scheme      =       TREUTLER

    BS radius alpha     =              1
    Pruning alpha       =              1
    Radial Points       =             75
    Spherical Points    =            302
    Total Points        =         397357
    Total Blocks        =           2981
    Max Points          =            256
    Max Functions       =            151

   => -D3ZERO: Empirical Dispersion <=

    Grimme's -D3 (zero-damping) Dispersion Correction
    Grimme S.; Antony J.; Ehrlich S.; Krieg H. (2010), J. Chem. Phys., 132: 154104

        S6 =   1.000000E+00
        S8 =   1.703000E+00
       SR6 =   1.261000E+00
       SR8 =   1.000000E+00
    ALPHA6 =   1.400000E+01

   => Loading Basis Set <=

    Name: (6-31G* AUX)
    Role: JKFIT
    Keyword: DF_BASIS_SCF
    atoms 1-7         entry C          line   121 file /shared/joao/test_parameterize/miniconda3/share/psi4/basis/cc-pvdz-jkfit.gbs 
    atoms 8-12, 15-18 entry H          line    51 file /shared/joao/test_parameterize/miniconda3/share/psi4/basis/cc-pvdz-jkfit.gbs 
    atoms 13-14       entry N          line   171 file /shared/joao/test_parameterize/miniconda3/share/psi4/basis/cc-pvdz-jkfit.gbs 

  Reading orbitals from file 180, no projection.

  ==> Pre-Iterations <==

   -------------------------------------------------------
    Irrep   Nso     Nmo     Nalpha   Nbeta   Ndocc  Nsocc
   -------------------------------------------------------
     A        153     153       0       0       0       0
   -------------------------------------------------------
    Total     153     153      32      32      32       0
   -------------------------------------------------------

  ==> Integral Setup <==

  ==> DiskDFJK: Density-Fitted J/K Matrices <==

    J tasked:                  Yes
    K tasked:                  Yes
    wK tasked:                  No
    OpenMP threads:              4
    Integrals threads:           4
    Memory (MB):              2002
    Algorithm:                Core
    Integral Cache:           NONE
    Schwarz Cutoff:          1E-12
    Fitting Condition:       1E-12

   => Auxiliary Basis Set <=

  Basis Set: (6-31G* AUX)
    Blend: CC-PVDZ-JKFIT
    Number of shells: 297
    Number of basis function: 954
    Number of Cartesian functions: 954
    Spherical Harmonics?: false
    Max angular momentum: 3

  Minimum eigenvalue in the overlap matrix is 4.8661140601E-04.
  Using Symmetric Orthogonalization.

  SCF Guess: Orbitals guess was supplied from a previous computation.

  ==> Iterations <==

                           Total Energy        Delta E     RMS |[F,P]|

   @DF-RKS iter   0:  -381.44673294041041   -3.81447e+02   1.17501e-03 
   @DF-RKS iter   1:  -381.46423477677206   -1.75018e-02   1.19777e-04 
   @DF-RKS iter   2:  -381.46423872336624   -3.94659e-06   1.48659e-04 DIIS
   @DF-RKS iter   3:  -381.46436828934611   -1.29566e-04   4.54332e-05 DIIS
   @DF-RKS iter   4:  -381.46438071337309   -1.24240e-05   1.40742e-05 DIIS
   @DF-RKS iter   5:  -381.46438175056733   -1.03719e-06   7.51908e-06 DIIS
   @DF-RKS iter   6:  -381.46438190977710   -1.59210e-07   1.31327e-06 DIIS
   @DF-RKS iter   7:  -381.46438191886358   -9.08648e-09   5.19145e-07 DIIS
   @DF-RKS iter   8:  -381.46438191949380   -6.30223e-10   1.64787e-07 DIIS
   @DF-RKS iter   9:  -381.46438191964126   -1.47452e-10   4.52831e-08 DIIS
   @DF-RKS iter  10:  -381.46438191964637   -5.11591e-12   1.26007e-08 DIIS
   @DF-RKS iter  11:  -381.46438191964683   -4.54747e-13   2.96554e-09 DIIS

  ==> Post-Iterations <==

    Orbital Energies [Eh]
    ---------------------

    Doubly Occupied:                                                      

       1A    -14.576599     2A    -14.576225     3A    -10.503083  
       4A    -10.367844     5A    -10.349396     6A    -10.348956  
       7A    -10.333854     8A    -10.333513     9A    -10.333060  
      10A     -1.189021    11A     -1.097185    12A     -1.008696  
      13A     -0.922366    14A     -0.894826    15A     -0.844439  
      16A     -0.786968    17A     -0.764098    18A     -0.754034  
      19A     -0.727718    20A     -0.690403    21A     -0.666786  
      22A     -0.622617    23A     -0.616120    24A     -0.576581  
      25A     -0.573254    26A     -0.566683    27A     -0.515337  
      28A     -0.496937    29A     -0.491019    30A     -0.479208  
      31A     -0.404648    32A     -0.398223  

    Virtual:                                                              

      33A     -0.200341    34A     -0.159600    35A     -0.147583  
      36A     -0.115888    37A     -0.070585    38A     -0.064969  
      39A     -0.035299    40A     -0.030715    41A      0.009109  
      42A      0.014058    43A      0.024535    44A      0.056108  
      45A      0.059378    46A      0.073783    47A      0.138840  
      48A      0.147847    49A      0.164829    50A      0.184959  
      51A      0.200393    52A      0.217595    53A      0.292013  
      54A      0.342306    55A      0.357170    56A      0.381920  
      57A      0.390844    58A      0.399665    59A      0.404547  
      60A      0.426178    61A      0.441935    62A      0.452143  
      63A      0.454790    64A      0.464888    65A      0.477794  
      66A      0.481368    67A      0.481672    68A      0.494751  
      69A      0.513863    70A      0.529148    71A      0.563179  
      72A      0.579501    73A      0.594486    74A      0.631771  
      75A      0.664886    76A      0.677429    77A      0.678176  
      78A      0.679184    79A      0.698846    80A      0.711567  
      81A      0.731881    82A      0.748385    83A      0.779703  
      84A      0.790882    85A      0.812753    86A      0.833612  
      87A      0.851758    88A      0.941140    89A      0.967519  
      90A      1.009487    91A      1.014736    92A      1.028199  
      93A      1.033258    94A      1.089517    95A      1.142184  
      96A      1.189874    97A      1.199943    98A      1.290193  
      99A      1.305654   100A      1.324844   101A      1.332571  
     102A      1.357892   103A      1.362065   104A      1.381363  
     105A      1.445430   106A      1.464995   107A      1.499848  
     108A      1.588022   109A      1.592138   110A      1.664543  
     111A      1.674217   112A      1.740547   113A      1.768466  
     114A      1.796393   115A      1.821725   116A      1.849376  
     117A      1.896995   118A      1.913616   119A      1.975335  
     120A      1.992719   121A      1.995412   122A      2.000974  
     123A      2.041686   124A      2.072028   125A      2.122462  
     126A      2.136089   127A      2.160816   128A      2.181053  
     129A      2.219376   130A      2.281783   131A      2.378723  
     132A      2.399781   133A      2.405262   134A      2.436589  
     135A      2.507597   136A      2.570891   137A      2.577537  
     138A      2.592191   139A      2.623308   140A      2.632658  
     141A      2.711145   142A      2.888505   143A      2.915344  
     144A      3.259580   145A      3.630017   146A      3.635417  
     147A      3.944727   148A      3.968599   149A      3.985737  
     150A      4.117396   151A      4.180388   152A      4.263066  
     153A      4.554522  

    Final Occupation by Irrep:
              A 
    DOCC [    32 ]

  Energy converged.

  @DF-RKS Final Energy:  -381.46438191964683

   => Energetics <=

    Nuclear Repulsion Energy =            415.9880082801669801
    One-Electron Energy =               -1327.3452424994518424
    Two-Electron Energy =                 574.2999807110713846
    DFT Exchange-Correlation Energy =     -44.3954749014332961
    Empirical Dispersion Energy =          -0.0116535100000000
    VV10 Nonlocal Energy =                  0.0000000000000000
    Total Energy =                       -381.4643819196468257



Properties will be evaluated at   0.000000,   0.000000,   0.000000 [a0]

Properties computed using the SCF density matrix

  Nuclear Dipole Moment: [e a0]
     X:     0.5240      Y:    -0.4338      Z:    -0.1675

  Electronic Dipole Moment: [e a0]
     X:    -0.5397      Y:     0.4503      Z:    -2.3801

  Dipole Moment: [e a0]
     X:    -0.0157      Y:     0.0165      Z:    -2.5476     Total:     2.5477

  Dipole Moment: [D]
     X:    -0.0400      Y:     0.0420      Z:    -6.4754     Total:     6.4756


*** tstop() called on rosa.prib.upf.edu at Sat Sep 29 20:44:23 2018
Module time:
	user time   =      94.05 seconds =       1.57 minutes
	system time =       1.29 seconds =       0.02 minutes
	total time  =         33 seconds =       0.55 minutes
Total time:
	user time   =     230.75 seconds =       3.85 minutes
	system time =       3.05 seconds =       0.05 minutes
	total time  =         79 seconds =       1.32 minutes

*** tstart() called on rosa.prib.upf.edu
*** at Sat Sep 29 20:44:23 2018


         ------------------------------------------------------------
                                   SCF GRAD                          
                          Rob Parrish, Justin Turney,                
                       Andy Simmonett, and Alex Sokolov              
         ------------------------------------------------------------

  ==> Geometry <==

    Molecular point group: c1
    Full point group: C1

    Geometry (in Angstrom), charge = 1, multiplicity = 1:

       Center              X                  Y                   Z               Mass       
    ------------   -----------------  -----------------  -----------------  -----------------
         C            0.035250013765    -0.014512676481    -0.175165710988    12.000000000000
         C            0.069463367722     1.209307037080     0.510769134705    12.000000000000
         C            0.047074088400     1.209504630305     1.904022851935    12.000000000000
         C           -0.011157333262     0.001718134007     2.605440136588    12.000000000000
         C           -0.058808501647    -1.213801182187     1.917042117308    12.000000000000
         C           -0.047340888950    -1.229412880835     0.523738589071    12.000000000000
         C            0.015575631456    -0.021722814117    -1.652514463268    12.000000000000
         H            0.111922487985     2.147874876548    -0.038792976916     1.007825032070
         H            0.078666489396     2.152666189331     2.440322452854     1.007825032070
         H           -0.026001207406     0.007932155809     3.691097134765     1.007825032070
         H           -0.114982171367    -2.150642113486     2.463810056660     1.007825032070
         H           -0.094343545180    -2.174460021650    -0.014532333128     1.007825032070
         N           -1.134742801099    -0.202118590498    -2.286910926947    14.003074004780
         N            1.139245332505     0.212961405347    -2.319138587197    14.003074004780
         H            1.178743149500     0.293124453785    -3.330270989816     1.007825032070
         H            2.018936928987     0.286870351330    -1.810366097987     1.007825032070
         H           -1.996860076408    -0.270352041329    -1.747287200954     1.007825032070
         H           -1.210640964397    -0.244936912958    -3.300264186687     1.007825032070

  Nuclear repulsion =  415.988008280166980

  ==> Basis Set <==

  Basis Set: 6-31G*
    Blend: 6-31G*
    Number of shells: 72
    Number of basis function: 153
    Number of Cartesian functions: 153
    Spherical Harmonics?: false
    Max angular momentum: 2

  ==> DFJKGrad: Density-Fitted SCF Gradients <==

    Gradient:                    1
    J tasked:                  Yes
    K tasked:                  Yes
    wK tasked:                  No
    OpenMP threads:              4
    Integrals threads:           4
    Memory (MB):              2002
    Schwarz Cutoff:          0E+00
    Fitting Condition:       1E-12

   => Auxiliary Basis Set <=

  Basis Set: (6-31G* AUX)
    Blend: CC-PVDZ-JKFIT
    Number of shells: 297
    Number of basis function: 954
    Number of Cartesian functions: 954
    Spherical Harmonics?: false
    Max angular momentum: 3

  ==> DFT Potential <==

   => Composite Functional: B3LYP-D3ZERO <= 

    B3LYP-d3zero Hyb-GGA Exchange-Correlation Functional

    P. J. Stephens, F. J. Devlin, C. F. Chabalowski, and M. J. Frisch, J. Phys. Chem. 98, 11623 (1994)

    Deriv               =              1
    GGA                 =           TRUE
    Meta                =          FALSE

    Exchange Hybrid     =           TRUE
    MP2 Hybrid          =          FALSE

   => Exchange Functionals <=

    0.0800   Slater exchange
    0.7200         Becke 88

   => Exact (HF) Exchange <=

    0.2000               HF 

   => Correlation Functionals <=

    0.1900   Vosko, Wilk & Nusair (VWN5_RPA)
    0.8100   Lee, Yang & Parr

   => Molecular Quadrature <=

    Radial Scheme       =       TREUTLER
    Pruning Scheme      =           FLAT
    Nuclear Scheme      =       TREUTLER

    BS radius alpha     =              1
    Pruning alpha       =              1
    Radial Points       =             75
    Spherical Points    =            302
    Total Points        =         397357
    Total Blocks        =           2981
    Max Points          =            256
    Max Functions       =            151


  -Total Gradient:
     Atom            X                  Y                   Z
    ------   -----------------  -----------------  -----------------
       1        0.003647005145     0.002907505854    -0.004488388579
       2       -0.003455538419    -0.001419061112     0.002182645117
       3       -0.000426625777     0.000427090645    -0.000639042801
       4        0.000189396538    -0.000100147485     0.000468976145
       5        0.000481468974     0.000163170322    -0.000788107135
       6        0.000867636723     0.001001107294     0.001648326787
       7       -0.001426608016    -0.007040909493     0.005169535554
       8       -0.000051739261     0.001204992211    -0.000672381834
       9        0.000365970954     0.000074673134     0.000046882461
      10       -0.000070269549    -0.000041419241     0.000134946965
      11       -0.000384499030    -0.000516831034     0.000284629664
      12       -0.000373927311    -0.001402189209    -0.000540418026
      13        0.002661497393     0.002449060407    -0.002186971559
      14       -0.001965340609     0.001131655741    -0.003660347558
      15       -0.000506016447     0.000402485320    -0.000194966453
      16        0.005140551385     0.000013265641     0.002221621187
      17       -0.005211025071     0.000919597300     0.002998870555
      18        0.000519406842    -0.000179753956    -0.001996662623


*** tstop() called on rosa.prib.upf.edu at Sat Sep 29 20:44:32 2018
Module time:
	user time   =      29.51 seconds =       0.49 minutes
	system time =       0.39 seconds =       0.01 minutes
	total time  =          9 seconds =       0.15 minutes
Total time:
	user time   =     260.33 seconds =       4.34 minutes
	system time =       3.45 seconds =       0.06 minutes
	total time  =         88 seconds =       1.47 minutes

			-----------------------------------------
			 OPTKING 2.0: for geometry optimizations 
			  - R.A. King,  Bethel University        
			-----------------------------------------
	At level 1: Red. Int., RFO, no backsteps, dynamic trust

	Previous internal coordinate definitions found.
	---Fragment 1 Geometry and Gradient---
	 C           0.0666128722       -0.0274249840       -0.3310152216
	 C           0.1312667413        2.2852591107        0.9652137817
	 C           0.0889571350        2.2856325077        3.5980817409
	 C          -0.0210843042        0.0032468027        4.9235683138
	 C          -0.1111319624       -2.2937518141        3.6226845869
	 C          -0.0894613150       -2.3232536490        0.9897224986
	 C           0.0294336778       -0.0410501695       -3.1227997662
	 H           0.2115028504        4.0588952844       -0.0733081022
	 H           0.1486581208        4.0679495534        4.6115411118
	 H          -0.0491351611        0.0149896021        6.9751627146
	 H          -0.2172848140       -4.0641246043        4.6559262505
	 H          -0.1782834628       -4.1091339278       -0.0274621297
	 N          -2.1443531253       -0.3819487824       -4.3216353422
	 N           2.1528616766        0.4024387330       -4.3825367940
	 H           2.2275017336        0.5539249405       -6.2933001190
	 H           3.8152378754        0.5421063997       -3.4210961255
	 H          -3.7735186701       -0.5108913176       -3.3018942853
	 H          -2.2877798680       -0.4628636853       -6.2365954790
	             0.0036470051        0.0029075059       -0.0044883886
	            -0.0034555384       -0.0014190611        0.0021826451
	            -0.0004266258        0.0004270906       -0.0006390428
	             0.0001893965       -0.0001001475        0.0004689761
	             0.0004814690        0.0001631703       -0.0007881071
	             0.0008676367        0.0010011073        0.0016483268
	            -0.0014266080       -0.0070409095        0.0051695356
	            -0.0000517393        0.0012049922       -0.0006723818
	             0.0003659710        0.0000746731        0.0000468825
	            -0.0000702695       -0.0000414192        0.0001349470
	            -0.0003844990       -0.0005168310        0.0002846297
	            -0.0003739273       -0.0014021892       -0.0005404180
	             0.0026614974        0.0024490604       -0.0021869716
	            -0.0019653406        0.0011316557       -0.0036603476
	            -0.0005060164        0.0004024853       -0.0001949665
	             0.0051405514        0.0000132656        0.0022216212
	            -0.0052110251        0.0009195973        0.0029988706
	             0.0005194068       -0.0001797540       -0.0019966626

	---Fragment 1 Intrafragment Coordinates---
	 - Coordinate -           - BOHR/RAD -       - ANG/DEG -
	 R(1,2)           =         2.651961	       1.403357
	 R(1,6)           =         2.653212	       1.404020
	 R(1,7)           =         2.792065	       1.477497
	 R(2,3)           =         2.633208	       1.393434
	 R(2,8)           =         2.056879	       1.088453
	 R(3,4)           =         2.641649	       1.397900
	 R(3,9)           =         2.051175	       1.085435
	 R(4,5)           =         2.641327	       1.397730
	 R(4,10)          =         2.051820	       1.085776
	 R(5,6)           =         2.633217	       1.393438
	 R(5,11)          =         2.052578	       1.086178
	 R(6,12)          =         2.057164	       1.088604
	 R(7,13)          =         2.505747	       1.325984
	 R(7,14)          =         2.508499	       1.327440
	 R(13,17)         =         1.926312	       1.019360
	 R(13,18)         =         1.922028	       1.017093
	 R(14,15)         =         1.918212	       1.015074
	 R(14,16)         =         1.925453	       1.018906
	 B(1,2,3)         =         2.081109	     119.238765
	 B(1,2,8)         =         2.101502	     120.407203
	 B(1,6,5)         =         2.081200	     119.243979
	 B(1,6,12)        =         2.103188	     120.503809
	 B(1,7,13)        =         2.083577	     119.380165
	 B(1,7,14)        =         2.082889	     119.340741
	 B(2,1,6)         =         2.109151	     120.845462
	 B(2,1,7)         =         2.086690	     119.558532
	 B(2,3,4)         =         2.096992	     120.148765
	 B(2,3,9)         =         2.087112	     119.582682
	 B(3,2,8)         =         2.100574	     120.354000
	 B(3,4,5)         =         2.100946	     120.375365
	 B(3,4,10)        =         2.091320	     119.823807
	 B(4,3,9)         =         2.099076	     120.268201
	 B(4,5,6)         =         2.096621	     120.127532
	 B(4,5,11)        =         2.098918	     120.259170
	 B(5,4,10)        =         2.090898	     119.799623
	 B(5,6,12)        =         2.098769	     120.250592
	 B(6,1,7)         =         2.086023	     119.520315
	 B(6,5,11)        =         2.087597	     119.610480
	 B(7,13,17)       =         2.082353	     119.310032
	 B(7,13,18)       =         2.149739	     123.170969
	 B(7,14,15)       =         2.149737	     123.170870
	 B(7,14,16)       =         2.086218	     119.531496
	 B(13,7,14)       =         2.115470	     121.207499
	 B(15,14,16)      =         2.046619	     117.262640
	 B(17,13,18)      =         2.050480	     117.483853
	 D(1,2,3,4)       =        -0.001909	      -0.109357
	 D(1,2,3,9)       =         3.135931	     179.675618
	 D(1,6,5,4)       =         0.018644	       1.068250
	 D(1,6,5,11)      =        -3.133577	    -179.540757
	 D(1,7,13,17)     =         0.071333	       4.087066
	 D(1,7,13,18)     =        -3.108875	    -178.125397
	 D(1,7,14,15)     =        -3.056290	    -175.112529
	 D(1,7,14,16)     =         0.123914	       7.099762
	 D(2,1,6,5)       =        -0.030292	      -1.735586
	 D(2,1,6,12)      =         3.119363	     178.726315
	*D(2,1,7,13)      =        -1.745329	    -100.000014
	 D(2,1,7,14)      =         1.343220	      76.960855
	 D(2,3,4,5)       =        -0.009496	      -0.544078
	 D(2,3,4,10)      =         3.139082	     179.856166
	 D(3,2,1,6)       =         0.021923	       1.256098
	 D(3,2,1,7)       =         3.108034	     178.077248
	 D(3,4,5,6)       =         0.000998	       0.057177
	 D(3,4,5,11)      =        -3.129896	    -179.329832
	 D(4,3,2,8)       =         3.138545	     179.825409
	 D(4,5,6,12)      =        -3.130989	    -179.392455
	 D(5,4,3,9)       =         3.135876	     179.672433
	 D(5,6,1,7)       =        -3.116424	    -178.557938
	 D(6,1,2,8)       =        -3.118530	    -178.678633
	 D(6,1,7,13)      =         1.341524	      76.863655
	 D(6,1,7,14)      =        -1.853112	    -106.175476
	 D(6,5,4,10)      =         3.135607	     179.657029
	 D(7,1,2,8)       =        -0.032419	      -1.857483
	 D(7,1,6,12)      =         0.033230	       1.903962
	 D(8,2,3,9)       =        -0.006800	      -0.389616
	 D(9,3,4,10)      =         0.001268	       0.072678
	 D(10,4,5,11)     =         0.004713	       0.270020
	 D(11,5,6,12)     =        -0.000026	      -0.001463
	 D(13,7,14,15)    =         0.031261	       1.791122
	 D(13,7,14,16)    =        -3.071720	    -175.996587
	 D(14,7,13,17)    =        -3.016197	    -172.815385
	 D(14,7,13,18)    =         0.086780	       4.972152

	Current energy   :      -381.4643819196

	Energy change for the previous step:
		Projected    :        -0.0011220728
		Actual       :        -0.0013958265
	Energy ratio indicates good step: Trust radius increased to 1.000e+00.


	Performing BFGS update.
	Previous computed or guess Hessian on step 1.
	Steps to be used in Hessian update: 1
	Taking RFO optimization step.
	Going to follow RFO solution 1.
	Using RFO vector 1.
	Norm of target step-size    0.13578
	Projected energy change by RFO approximation:        -0.0004086282

	Back-transformation to cartesian coordinates...
	Could not converge backtransformation.
	Using first guess instead.

	Back-transformation to cartesian coordinates to adjust frozen coordinates...
	Successfully converged to displaced geometry.

	--- Internal Coordinate Step in ANG or DEG, aJ/ANG or AJ/DEG ---
	 ---------------------------------------------------------------------------
	   Coordinate                Previous        Force       Change         New 
	   ----------                --------       ------       ------       ------
	    1 R(1,2)          =      1.403357    -0.004827    -0.001220     1.402137
	    2 R(1,6)          =      1.404020    -0.008004    -0.001442     1.402577
	    3 R(1,7)          =      1.477497     0.019224     0.005144     1.482641
	    4 R(2,3)          =      1.393434     0.001999     0.000662     1.394096
	    5 R(2,8)          =      1.088453    -0.011339    -0.001803     1.086650
	    6 R(3,4)          =      1.397900    -0.003048    -0.000423     1.397477
	    7 R(3,9)          =      1.085435    -0.000816    -0.000068     1.085367
	    8 R(4,5)          =      1.397730    -0.001675    -0.000328     1.397402
	    9 R(4,10)         =      1.085776    -0.001123    -0.000160     1.085616
	   10 R(5,6)          =      1.393438     0.002065     0.000606     1.394044
	   11 R(5,11)         =      1.086178    -0.005019    -0.000781     1.085397
	   12 R(6,12)         =      1.088604    -0.012361    -0.002018     1.086586
	   13 R(7,13)         =      1.325984    -0.015597    -0.002165     1.323820
	   14 R(7,14)         =      1.327440    -0.027623    -0.003372     1.324068
	   15 R(13,17)        =      1.019360    -0.048884    -0.003896     1.015465
	   16 R(13,18)        =      1.017093    -0.016128    -0.001594     1.015499
	   17 R(14,15)        =      1.015074    -0.001695     0.000191     1.015265
	   18 R(14,16)        =      1.018906    -0.045715    -0.005384     1.013522
	   19 B(1,2,3)        =    119.238765    -0.000041    -0.193560   119.045205
	   20 B(1,2,8)        =    120.407203     0.000018     0.039564   120.446767
	   21 B(1,6,5)        =    119.243979    -0.000033    -0.162901   119.081078
	   22 B(1,6,12)       =    120.503809    -0.000002    -0.037263   120.466546
	   23 B(1,7,13)       =    119.380165    -0.000065    -0.269020   119.111145
	   24 B(1,7,14)       =    119.340741    -0.000039    -0.186803   119.153939
	   25 B(2,1,6)        =    120.845462     0.000072     0.299072   121.144534
	   26 B(2,1,7)        =    119.558532    -0.000088    -0.362742   119.195790
	   27 B(2,3,4)        =    120.148765    -0.000006     0.003596   120.152361
	   28 B(2,3,9)        =    119.582682     0.000003    -0.007124   119.575558
	   29 B(3,2,8)        =    120.354000     0.000023     0.154014   120.508014
	   30 B(3,4,5)        =    120.375365     0.000018     0.067201   120.442566
	   31 B(3,4,10)       =    119.823807    -0.000012    -0.047079   119.776728
	   32 B(4,3,9)        =    120.268201     0.000002     0.003481   120.271682
	   33 B(4,5,6)        =    120.127532    -0.000010    -0.026016   120.101516
	   34 B(4,5,11)       =    120.259170     0.000003     0.014950   120.274120
	   35 B(5,4,10)       =    119.799623    -0.000005    -0.019471   119.780151
	   36 B(5,6,12)       =    120.250592     0.000035     0.196742   120.447334
	   37 B(6,1,7)        =    119.520315     0.000015    -0.037919   119.482396
	   38 B(6,5,11)       =    119.610480     0.000007     0.013184   119.623664
	   39 B(7,13,17)      =    119.310032    -0.000037    -0.294084   119.015948
	   40 B(7,13,18)      =    123.170969     0.000067     0.392382   123.563351
	   41 B(7,14,15)      =    123.170870     0.000072     0.392319   123.563189
	   42 B(7,14,16)      =    119.531496    -0.000078    -0.450748   119.080748
	   43 B(13,7,14)      =    121.207499     0.000105     0.493731   121.701230
	   44 B(15,14,16)     =    117.262640     0.000007     0.067330   117.329969
	   45 B(17,13,18)     =    117.483853    -0.000028    -0.069519   117.414334
	   46 D(1,2,3,4)      =     -0.109357     0.000001    -0.002102    -0.111459
	   47 D(1,2,3,9)      =    179.675618     0.000003     0.442172   180.117790
	   48 D(1,6,5,4)      =      1.068250     0.000002     0.439089     1.507340
	   49 D(1,6,5,11)     =   -179.540757     0.000004     0.744549  -178.796208
	   50 D(1,7,13,17)    =      4.087066    -0.000017    -3.401321     0.685744
	   51 D(1,7,13,18)    =   -178.125397     0.000000    -0.246048  -178.371445
	   52 D(1,7,14,15)    =   -175.112529    -0.000009    -1.907402  -177.019931
	   53 D(1,7,14,16)    =      7.099762    -0.000010    -2.209833     4.889929
	   54 D(2,1,6,5)      =     -1.735586    -0.000002    -0.501707    -2.237293
	   55 D(2,1,6,12)     =    178.726315     0.000001    -0.150407   178.575908
	   56 *D(2,1,7,13)    =   -100.000014     0.000000     0.000000  -100.000014
	   57 D(2,1,7,14)     =     76.960855     0.000006     0.964505    77.925360
	   58 D(2,3,4,5)      =     -0.544078    -0.000000    -0.048819    -0.592898
	   59 D(2,3,4,10)     =    179.856166    -0.000001    -0.177541   179.678625
	   60 D(3,2,1,6)      =      1.256098     0.000001     0.282986     1.539084
	   61 D(3,2,1,7)      =    178.077248    -0.000006    -1.402597   176.674651
	   62 D(3,4,5,6)      =      0.057177    -0.000001    -0.174193    -0.117016
	   63 D(3,4,5,11)     =   -179.329832    -0.000003    -0.481644  -179.811476
	   64 D(4,3,2,8)      =    179.825409    -0.000001     0.019693   179.845102
	   65 D(4,5,6,12)     =   -179.392455    -0.000001     0.086755  -179.305701
	   66 D(5,4,3,9)      =    179.672433    -0.000003    -0.496188   179.176245
	   67 D(5,6,1,7)      =   -178.557938     0.000005     1.198808  -177.359130
	   68 D(6,1,2,8)      =   -178.678633     0.000002     0.261129  -178.417504
	   69 D(6,1,7,13)     =     76.863655    -0.000006    -1.646093    75.217563
	   70 D(6,1,7,14)     =   -106.175476     0.000001    -0.681588  -106.857063
	   71 D(6,5,4,10)     =    179.657029    -0.000000    -0.045577   179.611452
	   72 D(7,1,2,8)      =     -1.857483    -0.000004    -1.424454    -3.281937
	   73 D(7,1,6,12)     =      1.903962     0.000008     1.550108     3.454070
	   74 D(8,2,3,9)      =     -0.389616     0.000002     0.463966     0.074350
	   75 D(9,3,4,10)     =      0.072678    -0.000004    -0.624910    -0.552232
	   76 D(10,4,5,11)    =      0.270020    -0.000002    -0.353028    -0.083008
	   77 D(11,5,6,12)    =     -0.001463     0.000001     0.392214     0.390751
	   78 D(13,7,14,15)   =      1.791122    -0.000004    -0.941490     0.849631
	   79 D(13,7,14,16)   =   -175.996587    -0.000005    -1.243922  -177.240509
	   80 D(14,7,13,17)   =   -172.815385    -0.000022    -4.369320  -177.184705
	   81 D(14,7,13,18)   =      4.972152    -0.000005    -1.214047     3.758106
	 ---------------------------------------------------------------------------
	Successfully symmetrized geometry.

  ==> Convergence Check <==

  Measures of convergence in internal coordinates in au.
  Criteria marked as inactive (o), active & met (*), and active & unmet ( ).
  ---------------------------------------------------------------------------------------------
   Step     Total Energy     Delta E     MAX Force     RMS Force      MAX Disp      RMS Disp   
  ---------------------------------------------------------------------------------------------
    Convergence Criteria    1.00e-06 *    3.00e-04 *             o    1.20e-03 *             o
  ---------------------------------------------------------------------------------------------
      2    -381.46438192   -1.40e-03      5.93e-03      1.16e-03 o    7.63e-02      1.51e-02 o  ~
  ---------------------------------------------------------------------------------------------

	Writing optimization data to binary file.
	Structure for next step:
	Cartesian Geometry (in Angstrom)
	    C     0.0548655472  -0.0114807003  -0.1739031021
	    C     0.0874200039   1.2121059943   0.5100296623
	    C     0.0493047669   1.2097711955   1.9036021276
	    C    -0.0226740195   0.0013659332   2.6018266520
	    C    -0.0695455141  -1.2131154665   1.9122104974
	    C    -0.0471786075  -1.2270079218   0.5184148426
	    C     0.0201603121  -0.0108128410  -1.6561381363
	    H     0.1408718424   2.1484520921  -0.0387943944
	    H     0.0721214853   2.1520765349   2.4417116397
	    H    -0.0467654723   0.0064196446   3.6871638674
	    H    -0.1285023019  -2.1499107475   2.4572100469
	    H    -0.0947080002  -2.1675006332  -0.0236950720
	    N    -1.1362341254  -0.1959565990  -2.2733674879
	    N     1.1386626516   0.2160665571  -2.3274315943
	    H     1.1834415289   0.2750557953  -3.3399918600
	    H     2.0091093909   0.3103369493  -1.8168799400
	    H    -1.9763241530  -0.3239622285  -1.7174609515
	    H    -1.2340253354  -0.2319035585  -3.2835077974
			--------------------------
			 OPTKING Finished Execution 
			--------------------------

    Structure for next step:
    Molecular point group: c1
    Full point group: C1

    Geometry (in Angstrom), charge = 1, multiplicity = 1:

    C            0.054865547228    -0.011480700252    -0.173903102138
    C            0.087420003942     1.212105994329     0.510029662286
    C            0.049304766866     1.209771195459     1.903602127593
    C           -0.022674019507     0.001365933181     2.601826651981
    C           -0.069545514101    -1.213115466545     1.912210497363
    C           -0.047178607451    -1.227007921803     0.518414842630
    C            0.020160312057    -0.010812841012    -1.656138136296
    H            0.140871842429     2.148452092149    -0.038794394400
    H            0.072121485307     2.152076534926     2.441711639654
    H           -0.046765472308     0.006419644556     3.687163867436
    H           -0.128502301868    -2.149910747490     2.457210046903
    H           -0.094708000215    -2.167500633181    -0.023695071983
    N           -1.136234125363    -0.195956598980    -2.273367487868
    N            1.138662651640     0.216066557071    -2.327431594257
    H            1.183441528873     0.275055795290    -3.339991860026
    H            2.009109390869     0.310336949339    -1.816879939998
    H           -1.976324152989    -0.323962228496    -1.717460951460
    H           -1.234025335406    -0.231903558542    -3.283507797419

gradient() will perform analytic gradient computation.

*** tstart() called on rosa.prib.upf.edu
*** at Sat Sep 29 20:44:32 2018

   => Loading Basis Set <=

    Name: 6-31G*
    Role: ORBITAL
    Keyword: BASIS
    atoms 1-7         entry C          line   111 file /shared/joao/test_parameterize/miniconda3/share/psi4/basis/6-31gs.gbs 
    atoms 8-12, 15-18 entry H          line    44 file /shared/joao/test_parameterize/miniconda3/share/psi4/basis/6-31gs.gbs 
    atoms 13-14       entry N          line   128 file /shared/joao/test_parameterize/miniconda3/share/psi4/basis/6-31gs.gbs 


         ---------------------------------------------------------
                                   SCF
            by Justin Turney, Rob Parrish, Andy Simmonett
                             and Daniel Smith
                              RKS Reference
                        4 Threads,   2861 MiB Core
         ---------------------------------------------------------

  ==> Geometry <==

    Molecular point group: c1
    Full point group: C1

    Geometry (in Angstrom), charge = 1, multiplicity = 1:

[...]
	            -0.0000078531       -0.0000010972        0.0000047357
	            -0.0007168390       -0.0047683120       -0.0000275125
	            -0.0000035856       -0.0000003348        0.0000007264
	             0.0000033164       -0.0000011328       -0.0000002596
	             0.0000053358        0.0000006286        0.0000006440
	             0.0000001779        0.0000018537        0.0000023893
	             0.0000046452        0.0000003646       -0.0000023889
	            -0.0005370105        0.0033280468        0.0000442904
	            -0.0000245731        0.0000258979        0.0000016431
	             0.0000028260       -0.0000135824        0.0000052001
	            -0.0000001669       -0.0000109145       -0.0000011797
	             0.0000316526        0.0000107635       -0.0000226792
	            -0.0000017676        0.0000050718        0.0000013308

	---Fragment 1 Intrafragment Coordinates---
	 - Coordinate -           - BOHR/RAD -       - ANG/DEG -
	 R(1,2)           =         2.650430	       1.402547
	 R(1,6)           =         2.650128	       1.402387
	 R(1,7)           =         2.802581	       1.483062
	 R(2,3)           =         2.634432	       1.394082
	 R(2,8)           =         2.052883	       1.086339
	 R(3,4)           =         2.640671	       1.397383
	 R(3,9)           =         2.050933	       1.085307
	 R(4,5)           =         2.640784	       1.397443
	 R(4,10)          =         2.051510	       1.085612
	 R(5,6)           =         2.634383	       1.394055
	 R(5,11)          =         2.050905	       1.085292
	 R(6,12)          =         2.052961	       1.086380
	 R(7,13)          =         2.501827	       1.323910
	 R(7,14)          =         2.501695	       1.323840
	 R(13,17)         =         1.913446	       1.012552
	 R(13,18)         =         1.917862	       1.014889
	 R(14,15)         =         1.917797	       1.014854
	 R(14,16)         =         1.913533	       1.012598
	 B(1,2,3)         =         2.077697	     119.043294
	 B(1,2,8)         =         2.103333	     120.512121
	 B(1,6,5)         =         2.078211	     119.072717
	 B(1,6,12)        =         2.103127	     120.500308
	 B(1,7,13)        =         2.077528	     119.033560
	 B(1,7,14)        =         2.080349	     119.195221
	 B(2,1,6)         =         2.114667	     121.161515
	 B(2,1,7)         =         2.079170	     119.127694
	 B(2,3,4)         =         2.096641	     120.128704
	 B(2,3,9)         =         2.087672	     119.614807
	 B(3,2,8)         =         2.102150	     120.444295
	 B(3,4,5)         =         2.102680	     120.474665
	 B(3,4,10)        =         2.090196	     119.759398
	 B(4,3,9)         =         2.098865	     120.256083
	 B(4,5,6)         =         2.096079	     120.096502
	 B(4,5,11)        =         2.098831	     120.254135
	 B(5,4,10)        =         2.090303	     119.765524
	 B(5,6,12)        =         2.101709	     120.419077
	 B(6,1,7)         =         2.087126	     119.583525
	 B(6,5,11)        =         2.088269	     119.648984
	 B(7,13,17)       =         2.078369	     119.081754
	 B(7,13,18)       =         2.156493	     123.557922
	 B(7,14,15)       =         2.157093	     123.592314
	 B(7,14,16)       =         2.078816	     119.107398
	 B(13,7,14)       =         2.124400	     121.719166
	 B(15,14,16)      =         2.047184	     117.295003
	 B(17,13,18)      =         2.047834	     117.332269
	 D(1,2,3,4)       =        -0.002400	      -0.137525
	 D(1,2,3,9)       =        -3.139957	    -179.906295
	 D(1,6,5,4)       =         0.022142	       1.268643
	 D(1,6,5,11)      =        -3.123351	    -178.954806
	 D(1,7,13,17)     =        -0.002392	      -0.137074
	 D(1,7,13,18)     =        -3.109423	    -178.156813
	 D(1,7,14,15)     =        -3.081639	    -176.564898
	 D(1,7,14,16)     =         0.074963	       4.295065
	 D(2,1,6,5)       =        -0.032553	      -1.865156
	 D(2,1,6,12)      =         3.126808	     179.152875
	*D(2,1,7,13)      =        -1.745329	    -100.000014
	 D(2,1,7,14)      =         1.351265	      77.421805
	 D(2,3,4,5)       =        -0.007624	      -0.436824
	 D(2,3,4,10)      =         3.138059	     179.797520
	 D(3,2,1,6)       =         0.022680	       1.299490
	 D(3,2,1,7)       =         3.092389	     177.180853
	 D(3,4,5,6)       =        -0.002414	      -0.138339
	 D(3,4,5,11)      =        -3.140083	    -179.913526
	 D(4,3,2,8)       =         3.135790	     179.667513
	 D(4,5,6,12)      =        -3.137204	    -179.748540
	 D(5,4,3,9)       =         3.129907	     179.330451
	 D(5,6,1,7)       =        -3.101939	    -177.728015
	 D(6,1,2,8)       =        -3.115507	    -178.505412
	 D(6,1,7,13)      =         1.325532	      75.947408
	 D(6,1,7,14)      =        -1.861058	    -106.630772
	 D(6,5,4,10)      =         3.135088	     179.627303
	 D(7,1,2,8)       =        -0.045798	      -2.624050
	 D(7,1,6,12)      =         0.057422	       3.290016
	 D(8,2,3,9)       =        -0.001767	      -0.101257
	 D(9,3,4,10)      =        -0.007596	      -0.435205
	 D(10,4,5,11)     =        -0.002581	      -0.147884
	 D(11,5,6,12)     =         0.000489	       0.028012
	 D(13,7,14,15)    =         0.013701	       0.785038
	 D(13,7,14,16)    =        -3.112882	    -178.354999
	 D(14,7,13,17)    =        -3.097805	    -177.491174
	 D(14,7,13,18)    =         0.078349	       4.489087

	Current energy   :      -381.4646677236

	Energy change for the previous step:
		Projected    :        -0.0000010057
		Actual       :        -0.0000002838

	Performing BFGS update.
	Previous computed or guess Hessian on step 1.
	Steps to be used in Hessian update: 5 4
	Taking RFO optimization step.
	Going to follow RFO solution 1.
	Rejecting RFO root 1 because normalization gives large value.
	Rejecting RFO root 2 because normalization gives large value.
	Using RFO vector 3.
	Norm of target step-size    0.00087
	Projected energy change by RFO approximation:        -0.0000000178

	Back-transformation to cartesian coordinates...
	Successfully converged to displaced geometry.

	Back-transformation to cartesian coordinates to adjust frozen coordinates...
	Successfully converged to displaced geometry.

	--- Internal Coordinate Step in ANG or DEG, aJ/ANG or AJ/DEG ---
	 ---------------------------------------------------------------------------
	   Coordinate                Previous        Force       Change         New 
	   ----------                --------       ------       ------       ------
	    1 R(1,2)          =      1.402547     0.000045     0.000005     1.402552
	    2 R(1,6)          =      1.402387     0.000001    -0.000004     1.402383
	    3 R(1,7)          =      1.483062    -0.000148    -0.000036     1.483026
	    4 R(2,3)          =      1.394082    -0.000062    -0.000010     1.394072
	    5 R(2,8)          =      1.086339     0.000009     0.000007     1.086346
	    6 R(3,4)          =      1.397383     0.000077     0.000013     1.397396
	    7 R(3,9)          =      1.085307     0.000005     0.000001     1.085308
	    8 R(4,5)          =      1.397443    -0.000037    -0.000005     1.397438
	    9 R(4,10)         =      1.085612    -0.000010    -0.000001     1.085611
	   10 R(5,6)          =      1.394055     0.000030     0.000004     1.394059
	   11 R(5,11)         =      1.085292     0.000001     0.000002     1.085294
	   12 R(6,12)         =      1.086380    -0.000002     0.000004     1.086384
	   13 R(7,13)         =      1.323910     0.000153     0.000019     1.323929
	   14 R(7,14)         =      1.323840     0.000173     0.000019     1.323858
	   15 R(13,17)        =      1.012552     0.000330     0.000060     1.012612
	   16 R(13,18)        =      1.014889     0.000016     0.000009     1.014898
	   17 R(14,15)        =      1.014854     0.000055     0.000008     1.014863
	   18 R(14,16)        =      1.012598     0.000009     0.000014     1.012613
	   19 B(1,2,3)        =    119.043294     0.000000     0.000223   119.043517
	   20 B(1,2,8)        =    120.512121    -0.000000    -0.000644   120.511477
	   21 B(1,6,5)        =    119.072717     0.000000     0.000019   119.072735
	   22 B(1,6,12)       =    120.500308     0.000000     0.001197   120.501504
	   23 B(1,7,13)       =    119.033560     0.000001     0.003005   119.036565
	   24 B(1,7,14)       =    119.195221    -0.000001    -0.001764   119.193457
	   25 B(2,1,6)        =    121.161515    -0.000000    -0.000230   121.161285
	   26 B(2,1,7)        =    119.127694     0.000000     0.000379   119.128073
	   27 B(2,3,4)        =    120.128704     0.000000     0.000187   120.128890
	   28 B(2,3,9)        =    119.614807    -0.000000    -0.000532   119.614276
	   29 B(3,2,8)        =    120.444295     0.000000     0.000443   120.444738
	   30 B(3,4,5)        =    120.474665    -0.000000    -0.000660   120.474005
	   31 B(3,4,10)       =    119.759398     0.000000     0.000556   119.759954
	   32 B(4,3,9)        =    120.256083     0.000000     0.000335   120.256417
	   33 B(4,5,6)        =    120.096502     0.000000     0.000411   120.096913
	   34 B(4,5,11)       =    120.254135     0.000000     0.000840   120.254975
	   35 B(5,4,10)       =    119.765524     0.000000     0.000068   119.765592
	   36 B(5,6,12)       =    120.419077    -0.000000    -0.001174   120.417903
	   37 B(6,1,7)        =    119.583525    -0.000000     0.000139   119.583663
	   38 B(6,5,11)       =    119.648984    -0.000000    -0.001262   119.647722
	   39 B(7,13,17)      =    119.081754    -0.000000     0.000700   119.082454
	   40 B(7,13,18)      =    123.557922    -0.000000    -0.001050   123.556872
	   41 B(7,14,15)      =    123.592314    -0.000000    -0.001850   123.590464
	   42 B(7,14,16)      =    119.107398     0.000000     0.001627   119.109025
	   43 B(13,7,14)      =    121.719166    -0.000000    -0.000685   121.718481
	   44 B(15,14,16)     =    117.295003     0.000000     0.000387   117.295389
	   45 B(17,13,18)     =    117.332269     0.000000     0.000541   117.332810
	   46 D(1,2,3,4)      =     -0.137525    -0.000000    -0.002162    -0.139688
	   47 D(1,2,3,9)      =   -179.906295    -0.000000     0.000696  -179.905599
	   48 D(1,6,5,4)      =      1.268643    -0.000000    -0.001497     1.267146
	   49 D(1,6,5,11)     =   -178.954806    -0.000000    -0.004732  -178.959538
	   50 D(1,7,13,17)    =     -0.137074    -0.000000     0.016579    -0.120494
	   51 D(1,7,13,18)    =   -178.156813     0.000000     0.009823  -178.146990
	   52 D(1,7,14,15)    =   -176.564898     0.000000     0.010125  -176.554773
	   53 D(1,7,14,16)    =      4.295065    -0.000000    -0.003311     4.291754
	   54 D(2,1,6,5)      =     -1.865156    -0.000000    -0.001995    -1.867151
	   55 D(2,1,6,12)     =    179.152875    -0.000000    -0.004616   179.148259
	   56 *D(2,1,7,13)    =   -100.000014     0.000000    -0.000000  -100.000014
	   57 D(2,1,7,14)     =     77.421805     0.000000     0.013772    77.435577
	   58 D(2,3,4,5)      =     -0.436824    -0.000000    -0.001283    -0.438107
	   59 D(2,3,4,10)     =    179.797520     0.000000     0.008538   179.806058
	   60 D(3,2,1,6)      =      1.299490     0.000000     0.003829     1.303320
	   61 D(3,2,1,7)      =    177.180853     0.000000     0.008496   177.189348
	   62 D(3,4,5,6)      =     -0.138339     0.000000     0.003146    -0.135193
	   63 D(3,4,5,11)     =   -179.913526     0.000000     0.006406  -179.907120
	   64 D(4,3,2,8)      =    179.667513     0.000000     0.005335   179.672848
	   65 D(4,5,6,12)     =   -179.748540     0.000000     0.001146  -179.747393
	   66 D(5,4,3,9)      =    179.330451    -0.000000    -0.004162   179.326289
	   67 D(5,6,1,7)      =   -177.728015    -0.000000    -0.006692  -177.734706
	   68 D(6,1,2,8)      =   -178.505412    -0.000000    -0.003675  -178.509087
	   69 D(6,1,7,13)     =     75.947408    -0.000000     0.004576    75.951984
	   70 D(6,1,7,14)     =   -106.630772     0.000000     0.018348  -106.612425
	   71 D(6,5,4,10)     =    179.627303    -0.000000    -0.006674   179.620628
	   72 D(7,1,2,8)      =     -2.624050    -0.000000     0.000991    -2.623059
	   73 D(7,1,6,12)     =      3.290016    -0.000000    -0.009313     3.280703
	   74 D(8,2,3,9)      =     -0.101257     0.000000     0.008193    -0.093064
	   75 D(9,3,4,10)     =     -0.435205     0.000000     0.005660    -0.429546
	   76 D(10,4,5,11)    =     -0.147884    -0.000000    -0.003415    -0.151299
	   77 D(11,5,6,12)    =      0.028012     0.000000    -0.002089     0.025923
	   78 D(13,7,14,15)   =      0.785038     0.000000     0.024378     0.809416
	   79 D(13,7,14,16)   =   -178.354999    -0.000000     0.010941  -178.344058
	   80 D(14,7,13,17)   =   -177.491174    -0.000000     0.002471  -177.488702
	   81 D(14,7,13,18)   =      4.489087     0.000000    -0.004285     4.484802
	 ---------------------------------------------------------------------------
	Successfully symmetrized geometry.

  ==> Convergence Check <==

  Measures of convergence in internal coordinates in au.
  Criteria marked as inactive (o), active & met (*), and active & unmet ( ).
  ---------------------------------------------------------------------------------------------
   Step     Total Energy     Delta E     MAX Force     RMS Force      MAX Disp      RMS Disp   
  ---------------------------------------------------------------------------------------------
    Convergence Criteria    1.00e-06 *    3.00e-04 *             o    1.20e-03 *             o
  ---------------------------------------------------------------------------------------------
      6    -381.46466772   -2.84e-07 *    4.01e-05 *    6.84e-06 o    4.25e-04 *    9.69e-05 o  ~
  ---------------------------------------------------------------------------------------------


  **** Optimization is complete! (in 6 steps) ****

  ==> Optimization Summary <==

  Measures of convergence in internal coordinates in au.
  --------------------------------------------------------------------------------------------------------------- ~
   Step         Total Energy             Delta E       MAX Force       RMS Force        MAX Disp        RMS Disp  ~
  --------------------------------------------------------------------------------------------------------------- ~
      1    -381.462986093124   -381.462986093124      0.00720145      0.00175756      0.11797188      0.03408206  ~
      2    -381.464381919647     -0.001395826522      0.00593341      0.00116445      0.07625901      0.01507199  ~
      3    -381.464642172623     -0.000260252976      0.00252150      0.00033008      0.02143944      0.00514888  ~
      4    -381.464663047549     -0.000020874926      0.00053339      0.00010913      0.00712834      0.00183117  ~
      5    -381.464667439861     -0.000004392312      0.00017875      0.00002645      0.00182734      0.00053658  ~
      6    -381.464667723618     -0.000000283757      0.00004011      0.00000684      0.00042548      0.00009685  ~
  --------------------------------------------------------------------------------------------------------------- ~

	Writing optimization data to binary file.
	Final energy is   -381.4646677236184
	Final (previous) structure:
	Cartesian Geometry (in Angstrom)
	    C     0.0472843313  -0.0147754188  -0.1739841394
	    C     0.0854529646   1.2099696287   0.5084238733
	    C     0.0525026204   1.2094913373   1.9021159159
	    C    -0.0204569314   0.0019713063   2.6015806477
	    C    -0.0702107673  -1.2135321278   1.9138875126
	    C    -0.0502100160  -1.2294683275   0.5200667781
	    C     0.0185374814  -0.0143889717  -1.6567676078
	    H     0.1367256889   2.1459328619  -0.0406450561
	    H     0.0800389933   2.1519795739   2.4395627553
	    H    -0.0424634234   0.0084302095   3.6869504671
	    H    -0.1282437711  -2.1491948058   2.4607208065
	    H    -0.0927663692  -2.1711786700  -0.0199265330
	    N    -1.1375130809  -0.1919854578  -2.2770444503
	    N     1.1386237254   0.2144430778  -2.3242961461
	    H     1.1859966132   0.2798995732  -3.3359288367
	    H     2.0051773729   0.3195865750  -1.8110858029
	    H    -1.9762327718  -0.3262517405  -1.7258794141
	    H    -1.2322426603  -0.2309286234  -3.2867517700
	Saving final (previous) structure.
	Removing binary optimization data file.
			--------------------------
			 OPTKING Finished Execution 
			--------------------------

    Final optimized geometry and variables:
    Molecular point group: c1
    Full point group: C1

    Geometry (in Angstrom), charge = 1, multiplicity = 1:

    C            0.047284331312    -0.014775418834    -0.173984139442
    C            0.085452964592     1.209969628654     0.508423873263
    C            0.052502620365     1.209491337296     1.902115915942
    C           -0.020456931353     0.001971306287     2.601580647692
    C           -0.070210767300    -1.213532127843     1.913887512625
    C           -0.050210015966    -1.229468327518     0.520066778102
    C            0.018537481419    -0.014388971719    -1.656767607792
    H            0.136725688864     2.145932861937    -0.040645056150
    H            0.080038993320     2.151979573851     2.439562755251
    H           -0.042463423411     0.008430209452     3.686950467082
    H           -0.128243771075    -2.149194805843     2.460720806512
    H           -0.092766369228    -2.171178669983    -0.019926532964
    N           -1.137513080893    -0.191985457834    -2.277044450287
    N            1.138623725379     0.214443077798    -2.324296146115
    H            1.185996613246     0.279899573171    -3.335928836655
    H            2.005177372893     0.319586575044    -1.811085802923
    H           -1.976232771836    -0.326251740519    -1.725879414134
    H           -1.232242660328    -0.230928623397    -3.286751770008

	Removing binary optimization data file.
	Cleaning optimization helper files.


Properties will be evaluated at   0.000000,   0.000000,   0.000000 [a0]
OEProp: No title given, name of density matrix used for the following properties is 'SCF density'
  Nuclear Dipole Moment: [e a0]
     X:     0.6069      Y:    -0.2247      Z:    -0.2843

  Electronic Dipole Moment: [e a0]
     X:    -0.6217      Y:     0.2239      Z:    -2.2669

  Dipole Moment: [e a0]
     X:    -0.0147      Y:    -0.0009      Z:    -2.5512     Total:     2.5513

  Dipole Moment: [D]
     X:    -0.0375      Y:    -0.0022      Z:    -6.4845     Total:     6.4846

  Quadrupole Moment: [D A]
    XX:   -42.2132     YY:   -44.8103     ZZ:   -13.5516
    XY:     2.7062     XZ:    -0.2964     YZ:    -0.1520

  Traceless Quadrupole Moment: [D A]
    XX:    -8.6882     YY:   -11.2853     ZZ:    19.9734
    XY:     2.7062     XZ:    -0.2964     YZ:    -0.1520

  Mulliken Charges: (a.u.)
   Center  Symbol    Alpha    Beta     Spin     Total
       1     C     2.99247  2.99247  0.00000  0.01507
       2     C     3.06989  3.06989  0.00000 -0.13978
       3     C     3.06267  3.06267  0.00000 -0.12534
       4     C     3.05358  3.05358  0.00000 -0.10717
       5     C     3.06290  3.06290  0.00000 -0.12581
       6     C     3.07238  3.07238  0.00000 -0.14476
       7     C     2.74672  2.74672  0.00000  0.50655
       8     H     0.41353  0.41353  0.00000  0.17295
       9     H     0.40729  0.40729  0.00000  0.18543
      10     H     0.40667  0.40667  0.00000  0.18665
      11     H     0.40731  0.40731  0.00000  0.18538
      12     H     0.41368  0.41368  0.00000  0.17264
      13     N     3.84448  3.84448  0.00000 -0.68897
      14     N     3.84538  3.84538  0.00000 -0.69076
      15     H     0.30506  0.30506  0.00000  0.38989
      16     H     0.29542  0.29542  0.00000  0.40916
      17     H     0.29554  0.29554  0.00000  0.40893
      18     H     0.30504  0.30504  0.00000  0.38993

   Total alpha = 32.00000, Total beta = 32.00000, Total charge =  1.00000


    Psi4 stopped on: Saturday, 29 September 2018 08:46PM
    Psi4 wall time for execution: 0:03:46.82

*** Psi4 exiting successfully. Buy a developer a beer!
