
    -----------------------------------------------------------------------
          Psi4: An Open-Source Ab Initio Electronic Structure Package
                               Psi4 1.2.1 release

                         Git: Rev {HEAD} 406f4de 


    R. M. Parrish, L. A. Burns, D. G. A. Smith, A. C. Simmonett,
    A. E. DePrince III, E. G. Hohenstein, U. Bozkaya, A. Yu. Sokolov,
    R. Di Remigio, R. M. Richard, J. F. Gonthier, A. M. James,
    H. R. McAlexander, A. Kumar, M. Saitow, X. Wang, B. P. Pritchard,
    P. Verma, H. F. Schaefer III, K. Patkowski, R. A. King, E. F. Valeev,
    F. A. Evangelista, J. M. Turney, T. D. Crawford, and C. D. Sherrill,
    J. Chem. Theory Comput. 13(7) pp 3185--3197 (2017).
    (doi: 10.1021/acs.jctc.7b00174)


                         Additional Contributions by
    P. Kraus, H. Kruse, M. H. Lechner, M. C. Schieber, and R. A. Shaw

    -----------------------------------------------------------------------


    Psi4 started on: Saturday, 29 September 2018 05:09PM

    Process ID: 13524
    Host:       loro.prib.upf.edu
    PSIDATADIR: /shared/joao/test_parameterize/miniconda3/share/psi4
    Memory:     500.0 MiB
    Threads:    1
    
  ==> Input File <==

--------------------------------------------------------------------------
set_num_threads(1)
set_memory('5348 MB')

set { scf_mem_safety_factor 0.7 }

set { reference rks }
set { basis cc-pVDZ }

molecule MOL {
    0 1
    noreorient
    nocom
    symmetry c1
    O    1.050400   0.042900  -0.048100
    C    2.474100   0.047400  -0.029000
    C    3.002600  -1.068900  -0.932000
    N    4.462700  -1.072400  -1.006800
    H    0.760400   0.728400   0.578000
    H    2.809900  -0.097900   1.003200
    H    2.817400   1.026800  -0.378600
    H    2.581000  -0.963300  -1.938400
    H    2.653800  -2.036400  -0.553400
    H    4.849072  -1.041614  -0.063799
    H    4.769899  -0.213042  -1.462195
}

set optking { frozen_dihedral = (" 2 3 4 10 ") }

energy, wfn = energy('B3LYP-D3', return_wfn=True)

import os
os.chdir(os.environ['HTMD_PSI4_WORKDIR'])

oeprop(wfn, 'DIPOLE', 'QUADRUPOLE', 'MULLIKEN_CHARGES')

with open('psi4out.xyz', 'w') as f:
    f.write('11 ' )
    f.write('%.12f\n' % energy)
    f.write(MOL.save_string_xyz())
--------------------------------------------------------------------------
  Threads set to 1 by Python driver.

  Memory set to   4.981 GiB by Python driver.

*** tstart() called on loro.prib.upf.edu
*** at Sat Sep 29 17:09:49 2018

   => Loading Basis Set <=

    Name: CC-PVDZ
    Role: ORBITAL
    Keyword: BASIS
    atoms 1    entry O          line   198 file /shared/joao/test_parameterize/miniconda3/share/psi4/basis/cc-pvdz.gbs 
    atoms 2-3  entry C          line   138 file /shared/joao/test_parameterize/miniconda3/share/psi4/basis/cc-pvdz.gbs 
    atoms 4    entry N          line   168 file /shared/joao/test_parameterize/miniconda3/share/psi4/basis/cc-pvdz.gbs 
    atoms 5-11 entry H          line    22 file /shared/joao/test_parameterize/miniconda3/share/psi4/basis/cc-pvdz.gbs 


         ---------------------------------------------------------
                                   SCF
            by Justin Turney, Rob Parrish, Andy Simmonett
                             and Daniel Smith
                              RKS Reference
                        1 Threads,   5100 MiB Core
         ---------------------------------------------------------

  ==> Geometry <==

    Molecular point group: c1
    Full point group: C1

    Geometry (in Angstrom), charge = 0, multiplicity = 1:

       Center              X                  Y                   Z               Mass       
    ------------   -----------------  -----------------  -----------------  -----------------
         O            1.050400000000     0.042900000000    -0.048100000000    15.994914619560
         C            2.474100000000     0.047400000000    -0.029000000000    12.000000000000
         C            3.002600000000    -1.068900000000    -0.932000000000    12.000000000000
         N            4.462700000000    -1.072400000000    -1.006800000000    14.003074004780
         H            0.760400000000     0.728400000000     0.578000000000     1.007825032070
         H            2.809900000000    -0.097900000000     1.003200000000     1.007825032070
         H            2.817400000000     1.026800000000    -0.378600000000     1.007825032070
         H            2.581000000000    -0.963300000000    -1.938400000000     1.007825032070
         H            2.653800000000    -2.036400000000    -0.553400000000     1.007825032070
         H            4.849072000000    -1.041614000000    -0.063799000000     1.007825032070
         H            4.769899000000    -0.213042000000    -1.462195000000     1.007825032070

  Running in c1 symmetry.

  Rotational constants: A =      0.72279  B =      0.02780  C =      0.02715 [cm^-1]
  Rotational constants: A =  21668.66077  B =    833.31151  C =    814.08143 [MHz]
  Nuclear repulsion =  130.882298820444532

  Charge       = 0
  Multiplicity = 1
  Electrons    = 34
  Nalpha       = 17
  Nbeta        = 17

  ==> Algorithm <==

  SCF Algorithm Type is DF.
  DIIS enabled.
  MOM disabled.
  Fractional occupation disabled.
  Guess Type is SAD.
  Energy threshold   = 1.00e-06
  Density threshold  = 1.00e-06
  Integral threshold = 0.00e+00

  ==> Primary Basis <==

  Basis Set: CC-PVDZ
    Blend: CC-PVDZ
    Number of shells: 45
    Number of basis function: 91
    Number of Cartesian functions: 95
    Spherical Harmonics?: true
    Max angular momentum: 2

  ==> DFT Potential <==

   => Composite Functional: B3LYP-D3ZERO <= 

    B3LYP-d3zero Hyb-GGA Exchange-Correlation Functional

    P. J. Stephens, F. J. Devlin, C. F. Chabalowski, and M. J. Frisch, J. Phys. Chem. 98, 11623 (1994)

    Deriv               =              1
    GGA                 =           TRUE
    Meta                =          FALSE

    Exchange Hybrid     =           TRUE
    MP2 Hybrid          =          FALSE

   => Exchange Functionals <=

    0.0800   Slater exchange
    0.7200         Becke 88

   => Exact (HF) Exchange <=

    0.2000               HF 

   => Correlation Functionals <=

    0.1900   Vosko, Wilk & Nusair (VWN5_RPA)
    0.8100   Lee, Yang & Parr

   => Molecular Quadrature <=

    Radial Scheme       =       TREUTLER
    Pruning Scheme      =           FLAT
    Nuclear Scheme      =       TREUTLER

    BS radius alpha     =              1
    Pruning alpha       =              1
    Radial Points       =             75
    Spherical Points    =            302
    Total Points        =         245073
    Total Blocks        =           1889
    Max Points          =            256
    Max Functions       =             91

   => -D3ZERO: Empirical Dispersion <=

    Grimme's -D3 (zero-damping) Dispersion Correction
    Grimme S.; Antony J.; Ehrlich S.; Krieg H. (2010), J. Chem. Phys., 132: 154104

        S6 =   1.000000E+00
        S8 =   1.703000E+00
       SR6 =   1.261000E+00
       SR8 =   1.000000E+00
    ALPHA6 =   1.400000E+01

   => Loading Basis Set <=

    Name: (CC-PVDZ AUX)
    Role: JKFIT
    Keyword: DF_BASIS_SCF
    atoms 1    entry O          line   221 file /shared/joao/test_parameterize/miniconda3/share/psi4/basis/cc-pvdz-jkfit.gbs 
    atoms 2-3  entry C          line   121 file /shared/joao/test_parameterize/miniconda3/share/psi4/basis/cc-pvdz-jkfit.gbs 
    atoms 4    entry N          line   171 file /shared/joao/test_parameterize/miniconda3/share/psi4/basis/cc-pvdz-jkfit.gbs 
    atoms 5-11 entry H          line    51 file /shared/joao/test_parameterize/miniconda3/share/psi4/basis/cc-pvdz-jkfit.gbs 

  ==> Pre-Iterations <==

   -------------------------------------------------------
    Irrep   Nso     Nmo     Nalpha   Nbeta   Ndocc  Nsocc
   -------------------------------------------------------
     A         91      91       0       0       0       0
   -------------------------------------------------------
    Total      91      91      17      17      17       0
   -------------------------------------------------------

  ==> Integral Setup <==

  DFHelper Memory: AOs need 0.036 [GiB]; user supplied 3.486 [GiB]. Using in-core AOs.

  ==> MemDFJK: Density-Fitted J/K Matrices <==

    J tasked:                   Yes
    K tasked:                   Yes
    wK tasked:                   No
    OpenMP threads:               1
    Memory (MB):               3570
    Algorithm:                 Core
    Schwarz Cutoff:           1E-12
    Mask sparsity (%):       0.1208
    Fitting Condition:        1E-12

   => Auxiliary Basis Set <=

  Basis Set: (CC-PVDZ AUX)
    Blend: CC-PVDZ-JKFIT
    Number of shells: 159
    Number of basis function: 441
    Number of Cartesian functions: 499
    Spherical Harmonics?: true
    Max angular momentum: 3

  Minimum eigenvalue in the overlap matrix is 4.6866043987E-03.
  Using Symmetric Orthogonalization.

  SCF Guess: Superposition of Atomic Densities via on-the-fly atomic UHF.

  ==> Iterations <==

                           Total Energy        Delta E     RMS |[F,P]|

   @DF-RKS iter   0:  -210.84197231705207   -2.10842e+02   3.66322e-02 
   @DF-RKS iter   1:  -210.22168390774971    6.20288e-01   6.96454e-03 
   @DF-RKS iter   2:  -210.07529257708921    1.46391e-01   9.62550e-03 DIIS
   @DF-RKS iter   3:  -210.39197897740962   -3.16686e-01   6.30792e-04 DIIS
   @DF-RKS iter   4:  -210.39295041012713   -9.71433e-04   3.58650e-04 DIIS
   @DF-RKS iter   5:  -210.39341743760593   -4.67027e-04   4.77650e-05 DIIS
   @DF-RKS iter   6:  -210.39342328099275   -5.84339e-06   2.45807e-05 DIIS
   @DF-RKS iter   7:  -210.39342543815457   -2.15716e-06   2.24758e-06 DIIS
   @DF-RKS iter   8:  -210.39342545614946   -1.79949e-08   8.92853e-07 DIIS

  ==> Post-Iterations <==

    Orbital Energies [Eh]
    ---------------------

    Doubly Occupied:                                                      

       1A    -19.128445     2A    -14.308255     3A    -10.224611  
       4A    -10.202904     5A     -1.011153     6A     -0.880096  
       7A     -0.710727     8A     -0.605290     9A     -0.505837  
      10A     -0.498590    11A     -0.439073    12A     -0.420519  
      13A     -0.402377    14A     -0.351065    15A     -0.331932  
      16A     -0.263535    17A     -0.236624  

    Virtual:                                                              

      18A      0.050732    19A      0.054928    20A      0.094804  
      21A      0.110747    22A      0.130771    23A      0.160232  
      24A      0.164782    25A      0.205181    26A      0.250157  
      27A      0.254650    28A      0.432435    29A      0.448662  
      30A      0.494150    31A      0.508548    32A      0.511120  
      33A      0.562418    34A      0.596932    35A      0.634689  
      36A      0.638865    37A      0.650691    38A      0.657161  
      39A      0.679075    40A      0.720775    41A      0.825475  
      42A      0.838212    43A      0.850893    44A      0.918336  
      45A      0.938721    46A      0.990217    47A      0.994486  
      48A      1.062044    49A      1.192810    50A      1.210188  
      51A      1.228020    52A      1.266760    53A      1.296227  
      54A      1.343597    55A      1.362411    56A      1.506064  
      57A      1.582777    58A      1.588445    59A      1.626862  
      60A      1.638002    61A      1.652041    62A      1.656669  
      63A      1.670261    64A      1.721874    65A      1.732525  
      66A      1.791374    67A      1.802926    68A      1.886070  
      69A      1.917495    70A      1.937731    71A      1.955691  
      72A      1.986717    73A      2.090652    74A      2.096653  
      75A      2.172312    76A      2.216331    77A      2.292738  
      78A      2.396227    79A      2.405568    80A      2.433094  
      81A      2.467125    82A      2.503430    83A      2.645631  
      84A      2.676797    85A      2.810844    86A      2.949714  
      87A      3.027595    88A      3.051003    89A      3.095954  
      90A      3.206349    91A      3.692104  

    Final Occupation by Irrep:
              A 
    DOCC [    17 ]

  Energy converged.

  @DF-RKS Final Energy:  -210.39342545614946

   => Energetics <=

    Nuclear Repulsion Energy =            130.8822988204445323
    One-Electron Energy =                -544.6273113756460589
    Two-Electron Energy =                 226.8425354880583882
    DFT Exchange-Correlation Energy =     -23.4857640490063133
    Empirical Dispersion Energy =          -0.0051843400000000
    VV10 Nonlocal Energy =                  0.0000000000000000
    Total Energy =                       -210.3934254561494583



Properties will be evaluated at   0.000000,   0.000000,   0.000000 [a0]

Properties computed using the SCF density matrix

  Nuclear Dipole Moment: [e a0]
     X:   177.1501      Y:   -30.0271      Z:   -30.2613

  Electronic Dipole Moment: [e a0]
     X:  -176.9490      Y:    30.7916      Z:    30.8348

  Dipole Moment: [e a0]
     X:     0.2010      Y:     0.7645      Z:     0.5735     Total:     0.9766

  Dipole Moment: [D]
     X:     0.5110      Y:     1.9433      Z:     1.4577     Total:     2.4824


*** tstop() called on loro.prib.upf.edu at Sat Sep 29 17:10:06 2018
Module time:
	user time   =      15.13 seconds =       0.25 minutes
	system time =       0.24 seconds =       0.00 minutes
	total time  =         17 seconds =       0.28 minutes
Total time:
	user time   =      15.13 seconds =       0.25 minutes
	system time =       0.24 seconds =       0.00 minutes
	total time  =         17 seconds =       0.28 minutes


Properties will be evaluated at   0.000000,   0.000000,   0.000000 [a0]
OEProp: No title given, name of density matrix used for the following properties is 'SCF density'
  Nuclear Dipole Moment: [e a0]
     X:   177.1501      Y:   -30.0271      Z:   -30.2613

  Electronic Dipole Moment: [e a0]
     X:  -176.9490      Y:    30.7916      Z:    30.8348

  Dipole Moment: [e a0]
     X:     0.2010      Y:     0.7645      Z:     0.5735     Total:     0.9766

  Dipole Moment: [D]
     X:     0.5110      Y:     1.9433      Z:     1.4577     Total:     2.4824

  Quadrupole Moment: [D A]
    XX:   -24.4880     YY:   -26.8556     ZZ:   -25.2770
    XY:     5.8717     XZ:     3.6762     YZ:    -1.6740

  Traceless Quadrupole Moment: [D A]
    XX:     1.0522     YY:    -1.3154     ZZ:     0.2632
    XY:     5.8717     XZ:     3.6762     YZ:    -1.6740

  Mulliken Charges: (a.u.)
   Center  Symbol    Alpha    Beta     Spin     Total
       1     O     4.13877  4.13877  0.00000 -0.27754
       2     C     2.94204  2.94204  0.00000  0.11593
       3     C     2.97756  2.97756  0.00000  0.04487
       4     N     3.59037  3.59037  0.00000 -0.18075
       5     H     0.43098  0.43098  0.00000  0.13804
       6     H     0.50467  0.50467  0.00000 -0.00935
       7     H     0.50662  0.50662  0.00000 -0.01323
       8     H     0.48856  0.48856  0.00000  0.02287
       9     H     0.48916  0.48916  0.00000  0.02169
      10     H     0.46611  0.46611  0.00000  0.06779
      11     H     0.46516  0.46516  0.00000  0.06967

   Total alpha = 17.00000, Total beta = 17.00000, Total charge =  0.00000


    Psi4 stopped on: Saturday, 29 September 2018 05:10PM
    Psi4 wall time for execution: 0:00:17.76

*** Psi4 exiting successfully. Buy a developer a beer!
