
    -----------------------------------------------------------------------
          Psi4: An Open-Source Ab Initio Electronic Structure Package
                               Psi4 1.2.1 release

                         Git: Rev {HEAD} 406f4de 


    R. M. Parrish, L. A. Burns, D. G. A. Smith, A. C. Simmonett,
    A. E. DePrince III, E. G. Hohenstein, U. Bozkaya, A. Yu. Sokolov,
    R. Di Remigio, R. M. Richard, J. F. Gonthier, A. M. James,
    H. R. McAlexander, A. Kumar, M. Saitow, X. Wang, B. P. Pritchard,
    P. Verma, H. F. Schaefer III, K. Patkowski, R. A. King, E. F. Valeev,
    F. A. Evangelista, J. M. Turney, T. D. Crawford, and C. D. Sherrill,
    J. Chem. Theory Comput. 13(7) pp 3185--3197 (2017).
    (doi: 10.1021/acs.jctc.7b00174)


                         Additional Contributions by
    P. Kraus, H. Kruse, M. H. Lechner, M. C. Schieber, and R. A. Shaw

    -----------------------------------------------------------------------


    Psi4 started on: Saturday, 29 September 2018 04:50PM

    Process ID: 5361
    Host:       loro.prib.upf.edu
    PSIDATADIR: /shared/joao/test_parameterize/miniconda3/share/psi4
    Memory:     500.0 MiB
    Threads:    1
    
  ==> Input File <==

--------------------------------------------------------------------------
set_num_threads(1)
set_memory('5348 MB')

set { scf_mem_safety_factor 0.7 }

set { reference rks }
set { basis cc-pVDZ }

molecule MOL {
    0 1
    noreorient
    nocom
    symmetry c1
    O    1.141000   0.017000   0.083000
    C    2.558000   0.086000  -0.005000
    C    3.192000  -0.789000   1.067000
    O    4.610000  -0.719000   0.979000
    H    0.789000   0.590000  -0.620000
    H    2.874000   1.128000   0.115000
    H    2.871000  -0.243000  -1.001000
    H    2.876000  -1.830000   0.947000
    H    2.879000  -0.459000   2.064000
    H    4.814862  -0.001224   0.354728
}

set optking { frozen_dihedral = (" 2 3 4 10 ") }

energy, wfn = energy('B3LYP-D3', return_wfn=True)

import os
os.chdir(os.environ['HTMD_PSI4_WORKDIR'])

oeprop(wfn, 'DIPOLE', 'QUADRUPOLE', 'MULLIKEN_CHARGES')

with open('psi4out.xyz', 'w') as f:
    f.write('10 ' )
    f.write('%.12f\n' % energy)
    f.write(MOL.save_string_xyz())
--------------------------------------------------------------------------
  Threads set to 1 by Python driver.

  Memory set to   4.981 GiB by Python driver.

*** tstart() called on loro.prib.upf.edu
*** at Sat Sep 29 16:50:24 2018

   => Loading Basis Set <=

    Name: CC-PVDZ
    Role: ORBITAL
    Keyword: BASIS
    atoms 1, 4 entry O          line   198 file /shared/joao/test_parameterize/miniconda3/share/psi4/basis/cc-pvdz.gbs 
    atoms 2-3  entry C          line   138 file /shared/joao/test_parameterize/miniconda3/share/psi4/basis/cc-pvdz.gbs 
    atoms 5-10 entry H          line    22 file /shared/joao/test_parameterize/miniconda3/share/psi4/basis/cc-pvdz.gbs 


         ---------------------------------------------------------
                                   SCF
            by Justin Turney, Rob Parrish, Andy Simmonett
                             and Daniel Smith
                              RKS Reference
                        1 Threads,   5100 MiB Core
         ---------------------------------------------------------

  ==> Geometry <==

    Molecular point group: c1
    Full point group: C1

    Geometry (in Angstrom), charge = 0, multiplicity = 1:

       Center              X                  Y                   Z               Mass       
    ------------   -----------------  -----------------  -----------------  -----------------
         O            1.141000000000     0.017000000000     0.083000000000    15.994914619560
         C            2.558000000000     0.086000000000    -0.005000000000    12.000000000000
         C            3.192000000000    -0.789000000000     1.067000000000    12.000000000000
         O            4.610000000000    -0.719000000000     0.979000000000    15.994914619560
         H            0.789000000000     0.590000000000    -0.620000000000     1.007825032070
         H            2.874000000000     1.128000000000     0.115000000000     1.007825032070
         H            2.871000000000    -0.243000000000    -1.001000000000     1.007825032070
         H            2.876000000000    -1.830000000000     0.947000000000     1.007825032070
         H            2.879000000000    -0.459000000000     2.064000000000     1.007825032070
         H            4.814862000000    -0.001224000000     0.354728000000     1.007825032070

  Running in c1 symmetry.

  Rotational constants: A =      0.81890  B =      0.02560  C =      0.02506 [cm^-1]
  Rotational constants: A =  24550.12420  B =    767.57399  C =    751.38086 [MHz]
  Nuclear repulsion =  130.137747676767674

  Charge       = 0
  Multiplicity = 1
  Electrons    = 34
  Nalpha       = 17
  Nbeta        = 17

  ==> Algorithm <==

  SCF Algorithm Type is DF.
  DIIS enabled.
  MOM disabled.
  Fractional occupation disabled.
  Guess Type is SAD.
  Energy threshold   = 1.00e-06
  Density threshold  = 1.00e-06
  Integral threshold = 0.00e+00

  ==> Primary Basis <==

  Basis Set: CC-PVDZ
    Blend: CC-PVDZ
    Number of shells: 42
    Number of basis function: 86
    Number of Cartesian functions: 90
    Spherical Harmonics?: true
    Max angular momentum: 2

  ==> DFT Potential <==

   => Composite Functional: B3LYP-D3ZERO <= 

    B3LYP-d3zero Hyb-GGA Exchange-Correlation Functional

    P. J. Stephens, F. J. Devlin, C. F. Chabalowski, and M. J. Frisch, J. Phys. Chem. 98, 11623 (1994)

    Deriv               =              1
    GGA                 =           TRUE
    Meta                =          FALSE

    Exchange Hybrid     =           TRUE
    MP2 Hybrid          =          FALSE

   => Exchange Functionals <=

    0.0800   Slater exchange
    0.7200         Becke 88

   => Exact (HF) Exchange <=

    0.2000               HF 

   => Correlation Functionals <=

    0.1900   Vosko, Wilk & Nusair (VWN5_RPA)
    0.8100   Lee, Yang & Parr

   => Molecular Quadrature <=

    Radial Scheme       =       TREUTLER
    Pruning Scheme      =           FLAT
    Nuclear Scheme      =       TREUTLER

    BS radius alpha     =              1
    Pruning alpha       =              1
    Radial Points       =             75
    Spherical Points    =            302
    Total Points        =         222528
    Total Blocks        =           1745
    Max Points          =            256
    Max Functions       =             86

   => -D3ZERO: Empirical Dispersion <=

    Grimme's -D3 (zero-damping) Dispersion Correction
    Grimme S.; Antony J.; Ehrlich S.; Krieg H. (2010), J. Chem. Phys., 132: 154104

        S6 =   1.000000E+00
        S8 =   1.703000E+00
       SR6 =   1.261000E+00
       SR8 =   1.000000E+00
    ALPHA6 =   1.400000E+01

   => Loading Basis Set <=

    Name: (CC-PVDZ AUX)
    Role: JKFIT
    Keyword: DF_BASIS_SCF
    atoms 1, 4 entry O          line   221 file /shared/joao/test_parameterize/miniconda3/share/psi4/basis/cc-pvdz-jkfit.gbs 
    atoms 2-3  entry C          line   121 file /shared/joao/test_parameterize/miniconda3/share/psi4/basis/cc-pvdz-jkfit.gbs 
    atoms 5-10 entry H          line    51 file /shared/joao/test_parameterize/miniconda3/share/psi4/basis/cc-pvdz-jkfit.gbs 

  ==> Pre-Iterations <==

   -------------------------------------------------------
    Irrep   Nso     Nmo     Nalpha   Nbeta   Ndocc  Nsocc
   -------------------------------------------------------
     A         86      86       0       0       0       0
   -------------------------------------------------------
    Total      86      86      17      17      17       0
   -------------------------------------------------------

  ==> Integral Setup <==

  DFHelper Memory: AOs need 0.030 [GiB]; user supplied 3.486 [GiB]. Using in-core AOs.

  ==> MemDFJK: Density-Fitted J/K Matrices <==

    J tasked:                   Yes
    K tasked:                   Yes
    wK tasked:                   No
    OpenMP threads:               1
    Memory (MB):               3570
    Algorithm:                 Core
    Schwarz Cutoff:           1E-12
    Mask sparsity (%):       0.2704
    Fitting Condition:        1E-12

   => Auxiliary Basis Set <=

  Basis Set: (CC-PVDZ AUX)
    Blend: CC-PVDZ-JKFIT
    Number of shells: 150
    Number of basis function: 418
    Number of Cartesian functions: 474
    Spherical Harmonics?: true
    Max angular momentum: 3

  Minimum eigenvalue in the overlap matrix is 4.9464656808E-03.
  Using Symmetric Orthogonalization.

  SCF Guess: Superposition of Atomic Densities via on-the-fly atomic UHF.

  ==> Iterations <==

                           Total Energy        Delta E     RMS |[F,P]|

   @DF-RKS iter   0:  -231.05570938540899   -2.31056e+02   4.14893e-02 
   @DF-RKS iter   1:  -230.18908764066524    8.66622e-01   4.71327e-03 
   @DF-RKS iter   2:  -230.15625424662892    3.28334e-02   6.08167e-03 DIIS
   @DF-RKS iter   3:  -230.25430155836875   -9.80473e-02   6.95528e-04 DIIS
   @DF-RKS iter   4:  -230.25561063757974   -1.30908e-03   2.10184e-04 DIIS
   @DF-RKS iter   5:  -230.25576540820853   -1.54771e-04   4.82274e-05 DIIS
   @DF-RKS iter   6:  -230.25577350412399   -8.09592e-06   5.62832e-06 DIIS
   @DF-RKS iter   7:  -230.25577356466019   -6.05362e-08   3.62881e-06 DIIS
   @DF-RKS iter   8:  -230.25577359872824   -3.40681e-08   5.48387e-07 DIIS

  ==> Post-Iterations <==

    Orbital Energies [Eh]
    ---------------------

    Doubly Occupied:                                                      

       1A    -19.139661     2A    -19.133267     3A    -10.237479  
       4A    -10.226773     5A     -1.025866     6A     -1.012446  
       7A     -0.733689     8A     -0.626085     9A     -0.518552  
      10A     -0.486575    11A     -0.476933    12A     -0.423432  
      13A     -0.399205    14A     -0.355262    15A     -0.323781  
      16A     -0.273429    17A     -0.265708  

    Virtual:                                                              

      18A      0.039036    19A      0.053709    20A      0.099949  
      21A      0.107501    22A      0.123656    23A      0.164799  
      24A      0.200797    25A      0.231246    26A      0.241992  
      27A      0.432401    28A      0.437410    29A      0.494928  
      30A      0.527878    31A      0.554733    32A      0.583779  
      33A      0.604723    34A      0.619337    35A      0.629131  
      36A      0.648961    37A      0.652681    38A      0.672227  
      39A      0.873600    40A      0.883454    41A      0.912796  
      42A      0.973202    43A      1.026694    44A      1.049981  
      45A      1.054009    46A      1.129829    47A      1.186449  
      48A      1.206909    49A      1.264116    50A      1.297361  
      51A      1.333801    52A      1.363802    53A      1.499335  
      54A      1.563132    55A      1.586923    56A      1.605252  
      57A      1.640878    58A      1.644022    59A      1.662801  
      60A      1.680219    61A      1.716593    62A      1.777313  
      63A      1.787691    64A      1.872870    65A      1.902033  
      66A      1.969076    67A      2.048633    68A      2.054074  
      69A      2.141401    70A      2.149391    71A      2.264038  
      72A      2.281238    73A      2.408285    74A      2.421247  
      75A      2.484822    76A      2.507962    77A      2.921261  
      78A      2.934420    79A      3.020154    80A      3.021867  
      81A      3.056701    82A      3.086783    83A      3.185268  
      84A      3.266222    85A      3.667466    86A      3.693098  

    Final Occupation by Irrep:
              A 
    DOCC [    17 ]

  Energy converged.

  @DF-RKS Final Energy:  -230.25577359872824

   => Energetics <=

    Nuclear Repulsion Energy =            130.1377476767676740
    One-Electron Energy =                -571.8379389626966258
    Two-Electron Energy =                 235.9875633045111272
    DFT Exchange-Correlation Energy =     -24.5385126373104328
    Empirical Dispersion Energy =          -0.0046329800000000
    VV10 Nonlocal Energy =                  0.0000000000000000
    Total Energy =                       -230.2557735987282399



Properties will be evaluated at   0.000000,   0.000000,   0.000000 [a0]

Properties computed using the SCF density matrix

  Nuclear Dipole Moment: [e a0]
     X:   184.4597      Y:   -20.1241      Z:    31.6108

  Electronic Dipole Moment: [e a0]
     X:  -184.6209      Y:    20.8497      Z:   -32.3766

  Dipole Moment: [e a0]
     X:    -0.1612      Y:     0.7256      Z:    -0.7657     Total:     1.0672

  Dipole Moment: [D]
     X:    -0.4097      Y:     1.8443      Z:    -1.9463     Total:     2.7124


*** tstop() called on loro.prib.upf.edu at Sat Sep 29 16:50:40 2018
Module time:
	user time   =      13.01 seconds =       0.22 minutes
	system time =       0.21 seconds =       0.00 minutes
	total time  =         16 seconds =       0.27 minutes
Total time:
	user time   =      13.01 seconds =       0.22 minutes
	system time =       0.21 seconds =       0.00 minutes
	total time  =         16 seconds =       0.27 minutes


Properties will be evaluated at   0.000000,   0.000000,   0.000000 [a0]
OEProp: No title given, name of density matrix used for the following properties is 'SCF density'
  Nuclear Dipole Moment: [e a0]
     X:   184.4597      Y:   -20.1241      Z:    31.6108

  Electronic Dipole Moment: [e a0]
     X:  -184.6209      Y:    20.8497      Z:   -32.3766

  Dipole Moment: [e a0]
     X:    -0.1612      Y:     0.7256      Z:    -0.7657     Total:     1.0672

  Dipole Moment: [D]
     X:    -0.4097      Y:     1.8443      Z:    -1.9463     Total:     2.7124

  Quadrupole Moment: [D A]
    XX:   -29.8938     YY:   -24.6334     ZZ:   -25.1019
    XY:     6.1508     XZ:    -5.8170     YZ:    -0.1038

  Traceless Quadrupole Moment: [D A]
    XX:    -3.3507     YY:     1.9096     ZZ:     1.4411
    XY:     6.1508     XZ:    -5.8170     YZ:    -0.1038

  Mulliken Charges: (a.u.)
   Center  Symbol    Alpha    Beta     Spin     Total
       1     O     4.13651  4.13651  0.00000 -0.27302
       2     C     2.96138  2.96138  0.00000  0.07724
       3     C     2.91981  2.91981  0.00000  0.16037
       4     O     4.13648  4.13648  0.00000 -0.27295
       5     H     0.42796  0.42796  0.00000  0.14409
       6     H     0.50114  0.50114  0.00000 -0.00228
       7     H     0.49904  0.49904  0.00000  0.00193
       8     H     0.49073  0.49073  0.00000  0.01854
       9     H     0.49378  0.49378  0.00000  0.01243
      10     H     0.43317  0.43317  0.00000  0.13366

   Total alpha = 17.00000, Total beta = 17.00000, Total charge =  0.00000


    Psi4 stopped on: Saturday, 29 September 2018 04:50PM
    Psi4 wall time for execution: 0:00:16.26

*** Psi4 exiting successfully. Buy a developer a beer!
