
    -----------------------------------------------------------------------
          Psi4: An Open-Source Ab Initio Electronic Structure Package
                               Psi4 1.2.1 release

                         Git: Rev {HEAD} 406f4de 


    R. M. Parrish, L. A. Burns, D. G. A. Smith, A. C. Simmonett,
    A. E. DePrince III, E. G. Hohenstein, U. Bozkaya, A. Yu. Sokolov,
    R. Di Remigio, R. M. Richard, J. F. Gonthier, A. M. James,
    H. R. McAlexander, A. Kumar, M. Saitow, X. Wang, B. P. Pritchard,
    P. Verma, H. F. Schaefer III, K. Patkowski, R. A. King, E. F. Valeev,
    F. A. Evangelista, J. M. Turney, T. D. Crawford, and C. D. Sherrill,
    J. Chem. Theory Comput. 13(7) pp 3185--3197 (2017).
    (doi: 10.1021/acs.jctc.7b00174)


                         Additional Contributions by
    P. Kraus, H. Kruse, M. H. Lechner, M. C. Schieber, and R. A. Shaw

    -----------------------------------------------------------------------


    Psi4 started on: Saturday, 29 September 2018 05:10PM

    Process ID: 13962
    Host:       loro.prib.upf.edu
    PSIDATADIR: /shared/joao/test_parameterize/miniconda3/share/psi4
    Memory:     500.0 MiB
    Threads:    1
    
  ==> Input File <==

--------------------------------------------------------------------------
set_num_threads(1)
set_memory('5348 MB')

set { scf_mem_safety_factor 0.7 }

set { reference rks }
set { basis cc-pVDZ }

molecule MOL {
    0 1
    noreorient
    nocom
    symmetry c1
    O    1.050400   0.042900  -0.048100
    C    2.474100   0.047400  -0.029000
    C    3.002600  -1.068900  -0.932000
    N    4.462700  -1.072400  -1.006800
    H    0.781860   0.347571  -0.931884
    H    2.809900  -0.097900   1.003200
    H    2.817400   1.026800  -0.378600
    H    2.581000  -0.963300  -1.938400
    H    2.653800  -2.036400  -0.553400
    H    4.779000  -0.221000  -1.470000
    H    4.758600  -1.842500  -1.606500
}

set optking { frozen_dihedral = (" 3 2 1 5 ") }

energy, wfn = energy('B3LYP-D3', return_wfn=True)

import os
os.chdir(os.environ['HTMD_PSI4_WORKDIR'])

oeprop(wfn, 'DIPOLE', 'QUADRUPOLE', 'MULLIKEN_CHARGES')

with open('psi4out.xyz', 'w') as f:
    f.write('11 ' )
    f.write('%.12f\n' % energy)
    f.write(MOL.save_string_xyz())
--------------------------------------------------------------------------
  Threads set to 1 by Python driver.

  Memory set to   4.981 GiB by Python driver.

*** tstart() called on loro.prib.upf.edu
*** at Sat Sep 29 17:10:25 2018

   => Loading Basis Set <=

    Name: CC-PVDZ
    Role: ORBITAL
    Keyword: BASIS
    atoms 1    entry O          line   198 file /shared/joao/test_parameterize/miniconda3/share/psi4/basis/cc-pvdz.gbs 
    atoms 2-3  entry C          line   138 file /shared/joao/test_parameterize/miniconda3/share/psi4/basis/cc-pvdz.gbs 
    atoms 4    entry N          line   168 file /shared/joao/test_parameterize/miniconda3/share/psi4/basis/cc-pvdz.gbs 
    atoms 5-11 entry H          line    22 file /shared/joao/test_parameterize/miniconda3/share/psi4/basis/cc-pvdz.gbs 


         ---------------------------------------------------------
                                   SCF
            by Justin Turney, Rob Parrish, Andy Simmonett
                             and Daniel Smith
                              RKS Reference
                        1 Threads,   5100 MiB Core
         ---------------------------------------------------------

  ==> Geometry <==

    Molecular point group: c1
    Full point group: C1

    Geometry (in Angstrom), charge = 0, multiplicity = 1:

       Center              X                  Y                   Z               Mass       
    ------------   -----------------  -----------------  -----------------  -----------------
         O            1.050400000000     0.042900000000    -0.048100000000    15.994914619560
         C            2.474100000000     0.047400000000    -0.029000000000    12.000000000000
         C            3.002600000000    -1.068900000000    -0.932000000000    12.000000000000
         N            4.462700000000    -1.072400000000    -1.006800000000    14.003074004780
         H            0.781860000000     0.347571000000    -0.931884000000     1.007825032070
         H            2.809900000000    -0.097900000000     1.003200000000     1.007825032070
         H            2.817400000000     1.026800000000    -0.378600000000     1.007825032070
         H            2.581000000000    -0.963300000000    -1.938400000000     1.007825032070
         H            2.653800000000    -2.036400000000    -0.553400000000     1.007825032070
         H            4.779000000000    -0.221000000000    -1.470000000000     1.007825032070
         H            4.758600000000    -1.842500000000    -1.606500000000     1.007825032070

  Running in c1 symmetry.

  Rotational constants: A =      0.73389  B =      0.02757  C =      0.02698 [cm^-1]
  Rotational constants: A =  22001.39914  B =    826.55560  C =    808.81861 [MHz]
  Nuclear repulsion =  130.816583253923000

  Charge       = 0
  Multiplicity = 1
  Electrons    = 34
  Nalpha       = 17
  Nbeta        = 17

  ==> Algorithm <==

  SCF Algorithm Type is DF.
  DIIS enabled.
  MOM disabled.
  Fractional occupation disabled.
  Guess Type is SAD.
  Energy threshold   = 1.00e-06
  Density threshold  = 1.00e-06
  Integral threshold = 0.00e+00

  ==> Primary Basis <==

  Basis Set: CC-PVDZ
    Blend: CC-PVDZ
    Number of shells: 45
    Number of basis function: 91
    Number of Cartesian functions: 95
    Spherical Harmonics?: true
    Max angular momentum: 2

  ==> DFT Potential <==

   => Composite Functional: B3LYP-D3ZERO <= 

    B3LYP-d3zero Hyb-GGA Exchange-Correlation Functional

    P. J. Stephens, F. J. Devlin, C. F. Chabalowski, and M. J. Frisch, J. Phys. Chem. 98, 11623 (1994)

    Deriv               =              1
    GGA                 =           TRUE
    Meta                =          FALSE

    Exchange Hybrid     =           TRUE
    MP2 Hybrid          =          FALSE

   => Exchange Functionals <=

    0.0800   Slater exchange
    0.7200         Becke 88

   => Exact (HF) Exchange <=

    0.2000               HF 

   => Correlation Functionals <=

    0.1900   Vosko, Wilk & Nusair (VWN5_RPA)
    0.8100   Lee, Yang & Parr

   => Molecular Quadrature <=

    Radial Scheme       =       TREUTLER
    Pruning Scheme      =           FLAT
    Nuclear Scheme      =       TREUTLER

    BS radius alpha     =              1
    Pruning alpha       =              1
    Radial Points       =             75
    Spherical Points    =            302
    Total Points        =         245077
    Total Blocks        =           1902
    Max Points          =            256
    Max Functions       =             91

   => -D3ZERO: Empirical Dispersion <=

    Grimme's -D3 (zero-damping) Dispersion Correction
    Grimme S.; Antony J.; Ehrlich S.; Krieg H. (2010), J. Chem. Phys., 132: 154104

        S6 =   1.000000E+00
        S8 =   1.703000E+00
       SR6 =   1.261000E+00
       SR8 =   1.000000E+00
    ALPHA6 =   1.400000E+01

   => Loading Basis Set <=

    Name: (CC-PVDZ AUX)
    Role: JKFIT
    Keyword: DF_BASIS_SCF
    atoms 1    entry O          line   221 file /shared/joao/test_parameterize/miniconda3/share/psi4/basis/cc-pvdz-jkfit.gbs 
    atoms 2-3  entry C          line   121 file /shared/joao/test_parameterize/miniconda3/share/psi4/basis/cc-pvdz-jkfit.gbs 
    atoms 4    entry N          line   171 file /shared/joao/test_parameterize/miniconda3/share/psi4/basis/cc-pvdz-jkfit.gbs 
    atoms 5-11 entry H          line    51 file /shared/joao/test_parameterize/miniconda3/share/psi4/basis/cc-pvdz-jkfit.gbs 

  ==> Pre-Iterations <==

   -------------------------------------------------------
    Irrep   Nso     Nmo     Nalpha   Nbeta   Ndocc  Nsocc
   -------------------------------------------------------
     A         91      91       0       0       0       0
   -------------------------------------------------------
    Total      91      91      17      17      17       0
   -------------------------------------------------------

  ==> Integral Setup <==

  DFHelper Memory: AOs need 0.036 [GiB]; user supplied 3.486 [GiB]. Using in-core AOs.

  ==> MemDFJK: Density-Fitted J/K Matrices <==

    J tasked:                   Yes
    K tasked:                   Yes
    wK tasked:                   No
    OpenMP threads:               1
    Memory (MB):               3570
    Algorithm:                 Core
    Schwarz Cutoff:           1E-12
    Mask sparsity (%):       0.2415
    Fitting Condition:        1E-12

   => Auxiliary Basis Set <=

  Basis Set: (CC-PVDZ AUX)
    Blend: CC-PVDZ-JKFIT
    Number of shells: 159
    Number of basis function: 441
    Number of Cartesian functions: 499
    Spherical Harmonics?: true
    Max angular momentum: 3

  Minimum eigenvalue in the overlap matrix is 4.4447647646E-03.
  Using Symmetric Orthogonalization.

  SCF Guess: Superposition of Atomic Densities via on-the-fly atomic UHF.

  ==> Iterations <==

                           Total Energy        Delta E     RMS |[F,P]|

   @DF-RKS iter   0:  -210.88532060372034   -2.10885e+02   3.66312e-02 
   @DF-RKS iter   1:  -210.21389074453367    6.71430e-01   7.09108e-03 
   @DF-RKS iter   2:  -210.07015729285493    1.43733e-01   9.67642e-03 DIIS
   @DF-RKS iter   3:  -210.39118314551138   -3.21026e-01   6.03112e-04 DIIS
   @DF-RKS iter   4:  -210.39195423381813   -7.71088e-04   3.82202e-04 DIIS
   @DF-RKS iter   5:  -210.39248405871325   -5.29825e-04   5.30434e-05 DIIS
   @DF-RKS iter   6:  -210.39249164647379   -7.58776e-06   2.59457e-05 DIIS
   @DF-RKS iter   7:  -210.39249405821084   -2.41174e-06   1.80814e-06 DIIS
   @DF-RKS iter   8:  -210.39249407052935   -1.23185e-08   5.16427e-07 DIIS

  ==> Post-Iterations <==

    Orbital Energies [Eh]
    ---------------------

    Doubly Occupied:                                                      

       1A    -19.129577     2A    -14.306840     3A    -10.224967  
       4A    -10.203338     5A     -1.012006     6A     -0.878885  
       7A     -0.711277     8A     -0.608315     9A     -0.512547  
      10A     -0.466514    11A     -0.461789    12A     -0.424083  
      13A     -0.394743    14A     -0.365294    15A     -0.322965  
      16A     -0.264951    17A     -0.234101  

    Virtual:                                                              

      18A      0.049051    19A      0.056212    20A      0.097702  
      21A      0.105698    22A      0.136148    23A      0.153643  
      24A      0.164715    25A      0.206277    26A      0.243172  
      27A      0.257981    28A      0.435635    29A      0.447174  
      30A      0.488572    31A      0.500297    32A      0.530341  
      33A      0.584327    34A      0.592151    35A      0.620080  
      36A      0.647032    37A      0.652680    38A      0.665953  
      39A      0.671137    40A      0.699032    41A      0.810759  
      42A      0.830808    43A      0.841950    44A      0.913741  
      45A      0.956551    46A      1.006572    47A      1.022739  
      48A      1.068269    49A      1.118581    50A      1.210617  
      51A      1.239057    52A      1.251548    53A      1.339691  
      54A      1.368467    55A      1.434662    56A      1.465313  
      57A      1.505143    58A      1.598404    59A      1.630614  
      60A      1.646337    61A      1.662949    62A      1.684266  
      63A      1.699011    64A      1.722938    65A      1.730945  
      66A      1.791303    67A      1.831550    68A      1.838789  
      69A      1.870027    70A      1.957730    71A      1.988064  
      72A      2.009999    73A      2.070845    74A      2.118573  
      75A      2.161182    76A      2.244731    77A      2.260175  
      78A      2.367993    79A      2.395476    80A      2.438231  
      81A      2.475926    82A      2.538323    83A      2.596070  
      84A      2.679795    85A      2.819762    86A      2.951187  
      87A      3.001864    88A      3.059947    89A      3.088157  
      90A      3.236714    91A      3.677771  

    Final Occupation by Irrep:
              A 
    DOCC [    17 ]

  Energy converged.

  @DF-RKS Final Energy:  -210.39249407052935

   => Energetics <=

    Nuclear Repulsion Energy =            130.8165832539229996
    One-Electron Energy =                -544.4917835231238996
    Two-Electron Energy =                 226.7737585705673382
    DFT Exchange-Correlation Energy =     -23.4858925518958159
    Empirical Dispersion Energy =          -0.0051598200000000
    VV10 Nonlocal Energy =                  0.0000000000000000
    Total Energy =                       -210.3924940705293523



Properties will be evaluated at   0.000000,   0.000000,   0.000000 [a0]

Properties computed using the SCF density matrix

  Nuclear Dipole Moment: [e a0]
     X:   177.0368      Y:   -32.2753      Z:   -36.0446

  Electronic Dipole Moment: [e a0]
     X:  -176.8185      Y:    32.4491      Z:    35.0888

  Dipole Moment: [e a0]
     X:     0.2183      Y:     0.1738      Z:    -0.9558     Total:     0.9957

  Dipole Moment: [D]
     X:     0.5548      Y:     0.4418      Z:    -2.4294     Total:     2.5308


*** tstop() called on loro.prib.upf.edu at Sat Sep 29 17:10:43 2018
Module time:
	user time   =      14.83 seconds =       0.25 minutes
	system time =       0.22 seconds =       0.00 minutes
	total time  =         18 seconds =       0.30 minutes
Total time:
	user time   =      14.83 seconds =       0.25 minutes
	system time =       0.22 seconds =       0.00 minutes
	total time  =         18 seconds =       0.30 minutes


Properties will be evaluated at   0.000000,   0.000000,   0.000000 [a0]
OEProp: No title given, name of density matrix used for the following properties is 'SCF density'
  Nuclear Dipole Moment: [e a0]
     X:   177.0368      Y:   -32.2753      Z:   -36.0446

  Electronic Dipole Moment: [e a0]
     X:  -176.8185      Y:    32.4491      Z:    35.0888

  Dipole Moment: [e a0]
     X:     0.2183      Y:     0.1738      Z:    -0.9558     Total:     0.9957

  Dipole Moment: [D]
     X:     0.5548      Y:     0.4418      Z:    -2.4294     Total:     2.5308

  Quadrupole Moment: [D A]
    XX:   -24.9229     YY:   -24.2745     ZZ:   -21.7047
    XY:     0.7636     XZ:    -6.6663     YZ:     0.5780

  Traceless Quadrupole Moment: [D A]
    XX:    -1.2889     YY:    -0.6405     ZZ:     1.9293
    XY:     0.7636     XZ:    -6.6663     YZ:     0.5780

  Mulliken Charges: (a.u.)
   Center  Symbol    Alpha    Beta     Spin     Total
       1     O     4.13935  4.13935  0.00000 -0.27870
       2     C     2.92215  2.92215  0.00000  0.15570
       3     C     2.99218  2.99218  0.00000  0.01563
       4     N     3.59252  3.59252  0.00000 -0.18503
       5     H     0.43203  0.43203  0.00000  0.13595
       6     H     0.48596  0.48596  0.00000  0.02808
       7     H     0.50391  0.50391  0.00000 -0.00782
       8     H     0.51192  0.51192  0.00000 -0.02384
       9     H     0.48948  0.48948  0.00000  0.02105
      10     H     0.46639  0.46639  0.00000  0.06722
      11     H     0.46411  0.46411  0.00000  0.07178

   Total alpha = 17.00000, Total beta = 17.00000, Total charge =  0.00000


    Psi4 stopped on: Saturday, 29 September 2018 05:10PM
    Psi4 wall time for execution: 0:00:18.07

*** Psi4 exiting successfully. Buy a developer a beer!
