
    -----------------------------------------------------------------------
          Psi4: An Open-Source Ab Initio Electronic Structure Package
                               Psi4 1.2.1 release

                         Git: Rev {HEAD} 406f4de 


    R. M. Parrish, L. A. Burns, D. G. A. Smith, A. C. Simmonett,
    A. E. DePrince III, E. G. Hohenstein, U. Bozkaya, A. Yu. Sokolov,
    R. Di Remigio, R. M. Richard, J. F. Gonthier, A. M. James,
    H. R. McAlexander, A. Kumar, M. Saitow, X. Wang, B. P. Pritchard,
    P. Verma, H. F. Schaefer III, K. Patkowski, R. A. King, E. F. Valeev,
    F. A. Evangelista, J. M. Turney, T. D. Crawford, and C. D. Sherrill,
    J. Chem. Theory Comput. 13(7) pp 3185--3197 (2017).
    (doi: 10.1021/acs.jctc.7b00174)


                         Additional Contributions by
    P. Kraus, H. Kruse, M. H. Lechner, M. C. Schieber, and R. A. Shaw

    -----------------------------------------------------------------------


    Psi4 started on: Saturday, 29 September 2018 05:10PM

    Process ID: 13741
    Host:       loro.prib.upf.edu
    PSIDATADIR: /shared/joao/test_parameterize/miniconda3/share/psi4
    Memory:     500.0 MiB
    Threads:    1
    
  ==> Input File <==

--------------------------------------------------------------------------
set_num_threads(1)
set_memory('5348 MB')

set { scf_mem_safety_factor 0.7 }

set { reference rks }
set { basis cc-pVDZ }

molecule MOL {
    0 1
    noreorient
    nocom
    symmetry c1
    O    1.050400   0.042900  -0.048100
    C    2.474100   0.047400  -0.029000
    C    3.002600  -1.068900  -0.932000
    N    4.462700  -1.072400  -1.006800
    H    0.760400   0.728400   0.578000
    H    2.809900  -0.097900   1.003200
    H    2.817400   1.026800  -0.378600
    H    2.581000  -0.963300  -1.938400
    H    2.653800  -2.036400  -0.553400
    H    4.774576  -1.921715  -1.476777
    H    4.839531  -1.123002  -0.060392
}

set optking { frozen_dihedral = (" 2 3 4 10 ") }

energy, wfn = energy('B3LYP-D3', return_wfn=True)

import os
os.chdir(os.environ['HTMD_PSI4_WORKDIR'])

oeprop(wfn, 'DIPOLE', 'QUADRUPOLE', 'MULLIKEN_CHARGES')

with open('psi4out.xyz', 'w') as f:
    f.write('11 ' )
    f.write('%.12f\n' % energy)
    f.write(MOL.save_string_xyz())
--------------------------------------------------------------------------
  Threads set to 1 by Python driver.

  Memory set to   4.981 GiB by Python driver.

*** tstart() called on loro.prib.upf.edu
*** at Sat Sep 29 17:10:07 2018

   => Loading Basis Set <=

    Name: CC-PVDZ
    Role: ORBITAL
    Keyword: BASIS
    atoms 1    entry O          line   198 file /shared/joao/test_parameterize/miniconda3/share/psi4/basis/cc-pvdz.gbs 
    atoms 2-3  entry C          line   138 file /shared/joao/test_parameterize/miniconda3/share/psi4/basis/cc-pvdz.gbs 
    atoms 4    entry N          line   168 file /shared/joao/test_parameterize/miniconda3/share/psi4/basis/cc-pvdz.gbs 
    atoms 5-11 entry H          line    22 file /shared/joao/test_parameterize/miniconda3/share/psi4/basis/cc-pvdz.gbs 


         ---------------------------------------------------------
                                   SCF
            by Justin Turney, Rob Parrish, Andy Simmonett
                             and Daniel Smith
                              RKS Reference
                        1 Threads,   5100 MiB Core
         ---------------------------------------------------------

  ==> Geometry <==

    Molecular point group: c1
    Full point group: C1

    Geometry (in Angstrom), charge = 0, multiplicity = 1:

       Center              X                  Y                   Z               Mass       
    ------------   -----------------  -----------------  -----------------  -----------------
         O            1.050400000000     0.042900000000    -0.048100000000    15.994914619560
         C            2.474100000000     0.047400000000    -0.029000000000    12.000000000000
         C            3.002600000000    -1.068900000000    -0.932000000000    12.000000000000
         N            4.462700000000    -1.072400000000    -1.006800000000    14.003074004780
         H            0.760400000000     0.728400000000     0.578000000000     1.007825032070
         H            2.809900000000    -0.097900000000     1.003200000000     1.007825032070
         H            2.817400000000     1.026800000000    -0.378600000000     1.007825032070
         H            2.581000000000    -0.963300000000    -1.938400000000     1.007825032070
         H            2.653800000000    -2.036400000000    -0.553400000000     1.007825032070
         H            4.774576000000    -1.921715000000    -1.476777000000     1.007825032070
         H            4.839531000000    -1.123002000000    -0.060392000000     1.007825032070

  Running in c1 symmetry.

  Rotational constants: A =      0.72325  B =      0.02765  C =      0.02696 [cm^-1]
  Rotational constants: A =  21682.50577  B =    829.02687  C =    808.12323 [MHz]
  Nuclear repulsion =  130.472993533515279

  Charge       = 0
  Multiplicity = 1
  Electrons    = 34
  Nalpha       = 17
  Nbeta        = 17

  ==> Algorithm <==

  SCF Algorithm Type is DF.
  DIIS enabled.
  MOM disabled.
  Fractional occupation disabled.
  Guess Type is SAD.
  Energy threshold   = 1.00e-06
  Density threshold  = 1.00e-06
  Integral threshold = 0.00e+00

  ==> Primary Basis <==

  Basis Set: CC-PVDZ
    Blend: CC-PVDZ
    Number of shells: 45
    Number of basis function: 91
    Number of Cartesian functions: 95
    Spherical Harmonics?: true
    Max angular momentum: 2

  ==> DFT Potential <==

   => Composite Functional: B3LYP-D3ZERO <= 

    B3LYP-d3zero Hyb-GGA Exchange-Correlation Functional

    P. J. Stephens, F. J. Devlin, C. F. Chabalowski, and M. J. Frisch, J. Phys. Chem. 98, 11623 (1994)

    Deriv               =              1
    GGA                 =           TRUE
    Meta                =          FALSE

    Exchange Hybrid     =           TRUE
    MP2 Hybrid          =          FALSE

   => Exchange Functionals <=

    0.0800   Slater exchange
    0.7200         Becke 88

   => Exact (HF) Exchange <=

    0.2000               HF 

   => Correlation Functionals <=

    0.1900   Vosko, Wilk & Nusair (VWN5_RPA)
    0.8100   Lee, Yang & Parr

   => Molecular Quadrature <=

    Radial Scheme       =       TREUTLER
    Pruning Scheme      =           FLAT
    Nuclear Scheme      =       TREUTLER

    BS radius alpha     =              1
    Pruning alpha       =              1
    Radial Points       =             75
    Spherical Points    =            302
    Total Points        =         245095
    Total Blocks        =           1887
    Max Points          =            256
    Max Functions       =             91

   => -D3ZERO: Empirical Dispersion <=

    Grimme's -D3 (zero-damping) Dispersion Correction
    Grimme S.; Antony J.; Ehrlich S.; Krieg H. (2010), J. Chem. Phys., 132: 154104

        S6 =   1.000000E+00
        S8 =   1.703000E+00
       SR6 =   1.261000E+00
       SR8 =   1.000000E+00
    ALPHA6 =   1.400000E+01

   => Loading Basis Set <=

    Name: (CC-PVDZ AUX)
    Role: JKFIT
    Keyword: DF_BASIS_SCF
    atoms 1    entry O          line   221 file /shared/joao/test_parameterize/miniconda3/share/psi4/basis/cc-pvdz-jkfit.gbs 
    atoms 2-3  entry C          line   121 file /shared/joao/test_parameterize/miniconda3/share/psi4/basis/cc-pvdz-jkfit.gbs 
    atoms 4    entry N          line   171 file /shared/joao/test_parameterize/miniconda3/share/psi4/basis/cc-pvdz-jkfit.gbs 
    atoms 5-11 entry H          line    51 file /shared/joao/test_parameterize/miniconda3/share/psi4/basis/cc-pvdz-jkfit.gbs 

  ==> Pre-Iterations <==

   -------------------------------------------------------
    Irrep   Nso     Nmo     Nalpha   Nbeta   Ndocc  Nsocc
   -------------------------------------------------------
     A         91      91       0       0       0       0
   -------------------------------------------------------
    Total      91      91      17      17      17       0
   -------------------------------------------------------

  ==> Integral Setup <==

  DFHelper Memory: AOs need 0.036 [GiB]; user supplied 3.486 [GiB]. Using in-core AOs.

  ==> MemDFJK: Density-Fitted J/K Matrices <==

    J tasked:                   Yes
    K tasked:                   Yes
    wK tasked:                   No
    OpenMP threads:               1
    Memory (MB):               3570
    Algorithm:                 Core
    Schwarz Cutoff:           1E-12
    Mask sparsity (%):       0.5555
    Fitting Condition:        1E-12

   => Auxiliary Basis Set <=

  Basis Set: (CC-PVDZ AUX)
    Blend: CC-PVDZ-JKFIT
    Number of shells: 159
    Number of basis function: 441
    Number of Cartesian functions: 499
    Spherical Harmonics?: true
    Max angular momentum: 3

  Minimum eigenvalue in the overlap matrix is 4.5310324572E-03.
  Using Symmetric Orthogonalization.

  SCF Guess: Superposition of Atomic Densities via on-the-fly atomic UHF.

  ==> Iterations <==

                           Total Energy        Delta E     RMS |[F,P]|

   @DF-RKS iter   0:  -210.83925947935802   -2.10839e+02   3.66112e-02 
   @DF-RKS iter   1:  -210.21842229401679    6.20837e-01   6.97963e-03 
   @DF-RKS iter   2:  -210.07651014174903    1.41912e-01   9.57261e-03 DIIS
   @DF-RKS iter   3:  -210.38953510000613   -3.13025e-01   5.63047e-04 DIIS
   @DF-RKS iter   4:  -210.39017746685505   -6.42367e-04   3.63487e-04 DIIS
   @DF-RKS iter   5:  -210.39064655700057   -4.69090e-04   4.53306e-05 DIIS
   @DF-RKS iter   6:  -210.39065189567276   -5.33867e-06   2.25749e-05 DIIS
   @DF-RKS iter   7:  -210.39065375388449   -1.85821e-06   1.93598e-06 DIIS
   @DF-RKS iter   8:  -210.39065376742974   -1.35452e-08   6.35611e-07 DIIS

  ==> Post-Iterations <==

    Orbital Energies [Eh]
    ---------------------

    Doubly Occupied:                                                      

       1A    -19.128231     2A    -14.304479     3A    -10.225742  
       4A    -10.201692     5A     -1.010586     6A     -0.876867  
       7A     -0.712555     8A     -0.598581     9A     -0.507328  
      10A     -0.480661    11A     -0.463024    12A     -0.411026  
      13A     -0.386201    14A     -0.369348    15A     -0.323765  
      16A     -0.261735    17A     -0.229966  

    Virtual:                                                              

      18A      0.050185    19A      0.057651    20A      0.103049  
      21A      0.117585    22A      0.123726    23A      0.154377  
      24A      0.169096    25A      0.205800    26A      0.240902  
      27A      0.253731    28A      0.443122    29A      0.450592  
      30A      0.482403    31A      0.498320    32A      0.564545  
      33A      0.580183    34A      0.612341    35A      0.617246  
      36A      0.638015    37A      0.651170    38A      0.659133  
      39A      0.678025    40A      0.697197    41A      0.821313  
      42A      0.828842    43A      0.846349    44A      0.910859  
      45A      0.970345    46A      0.995914    47A      1.017962  
      48A      1.063457    49A      1.166383    50A      1.214896  
      51A      1.224100    52A      1.238872    53A      1.348581  
      54A      1.366254    55A      1.429728    56A      1.474826  
      57A      1.515746    58A      1.598319    59A      1.605381  
      60A      1.627801    61A      1.651458    62A      1.665270  
      63A      1.715281    64A      1.732345    65A      1.756282  
      66A      1.768628    67A      1.819600    68A      1.861284  
      69A      1.921430    70A      1.951607    71A      1.972534  
      72A      2.022297    73A      2.041752    74A      2.141708  
      75A      2.153048    76A      2.243818    77A      2.301387  
      78A      2.369669    79A      2.406481    80A      2.450746  
      81A      2.464659    82A      2.531372    83A      2.608417  
      84A      2.676686    85A      2.821723    86A      2.957567  
      87A      3.020773    88A      3.031964    89A      3.124290  
      90A      3.203872    91A      3.695226  

    Final Occupation by Irrep:
              A 
    DOCC [    17 ]

  Energy converged.

  @DF-RKS Final Energy:  -210.39065376742974

   => Energetics <=

    Nuclear Repulsion Energy =            130.4729935335152788
    One-Electron Energy =                -543.8615929291017892
    Two-Electron Energy =                 226.4893574878656750
    DFT Exchange-Correlation Energy =     -23.4864756097088474
    Empirical Dispersion Energy =          -0.0049362500000000
    VV10 Nonlocal Energy =                  0.0000000000000000
    Total Energy =                       -210.3906537674297113



Properties will be evaluated at   0.000000,   0.000000,   0.000000 [a0]

Properties computed using the SCF density matrix

  Nuclear Dipole Moment: [e a0]
     X:   177.1409      Y:   -33.4098      Z:   -30.2824

  Electronic Dipole Moment: [e a0]
     X:  -176.9366      Y:    33.3440      Z:    30.8580

  Dipole Moment: [e a0]
     X:     0.2043      Y:    -0.0658      Z:     0.5756     Total:     0.6143

  Dipole Moment: [D]
     X:     0.5192      Y:    -0.1673      Z:     1.4630     Total:     1.5614


*** tstop() called on loro.prib.upf.edu at Sat Sep 29 17:10:24 2018
Module time:
	user time   =      15.00 seconds =       0.25 minutes
	system time =       0.23 seconds =       0.00 minutes
	total time  =         17 seconds =       0.28 minutes
Total time:
	user time   =      15.00 seconds =       0.25 minutes
	system time =       0.23 seconds =       0.00 minutes
	total time  =         17 seconds =       0.28 minutes


Properties will be evaluated at   0.000000,   0.000000,   0.000000 [a0]
OEProp: No title given, name of density matrix used for the following properties is 'SCF density'
  Nuclear Dipole Moment: [e a0]
     X:   177.1409      Y:   -33.4098      Z:   -30.2824

  Electronic Dipole Moment: [e a0]
     X:  -176.9366      Y:    33.3440      Z:    30.8580

  Dipole Moment: [e a0]
     X:     0.2043      Y:    -0.0658      Z:     0.5756     Total:     0.6143

  Dipole Moment: [D]
     X:     0.5192      Y:    -0.1673      Z:     1.4630     Total:     1.5614

  Quadrupole Moment: [D A]
    XX:   -24.4299     YY:   -22.0559     ZZ:   -25.1951
    XY:    -5.4297     XZ:     3.5976     YZ:     2.2067

  Traceless Quadrupole Moment: [D A]
    XX:    -0.5363     YY:     1.8377     ZZ:    -1.3015
    XY:    -5.4297     XZ:     3.5976     YZ:     2.2067

  Mulliken Charges: (a.u.)
   Center  Symbol    Alpha    Beta     Spin     Total
       1     O     4.13869  4.13869  0.00000 -0.27739
       2     C     2.93302  2.93302  0.00000  0.13397
       3     C     2.98170  2.98170  0.00000  0.03661
       4     N     3.59338  3.59338  0.00000 -0.18675
       5     H     0.42980  0.42980  0.00000  0.14041
       6     H     0.50429  0.50429  0.00000 -0.00858
       7     H     0.49762  0.49762  0.00000  0.00476
       8     H     0.48925  0.48925  0.00000  0.02150
       9     H     0.50170  0.50170  0.00000 -0.00340
      10     H     0.46342  0.46342  0.00000  0.07317
      11     H     0.46714  0.46714  0.00000  0.06572

   Total alpha = 17.00000, Total beta = 17.00000, Total charge =  0.00000


    Psi4 stopped on: Saturday, 29 September 2018 05:10PM
    Psi4 wall time for execution: 0:00:17.52

*** Psi4 exiting successfully. Buy a developer a beer!
