
    -----------------------------------------------------------------------
          Psi4: An Open-Source Ab Initio Electronic Structure Package
                               Psi4 1.2.1 release

                         Git: Rev {HEAD} 406f4de 


    R. M. Parrish, L. A. Burns, D. G. A. Smith, A. C. Simmonett,
    A. E. DePrince III, E. G. Hohenstein, U. Bozkaya, A. Yu. Sokolov,
    R. Di Remigio, R. M. Richard, J. F. Gonthier, A. M. James,
    H. R. McAlexander, A. Kumar, M. Saitow, X. Wang, B. P. Pritchard,
    P. Verma, H. F. Schaefer III, K. Patkowski, R. A. King, E. F. Valeev,
    F. A. Evangelista, J. M. Turney, T. D. Crawford, and C. D. Sherrill,
    J. Chem. Theory Comput. 13(7) pp 3185--3197 (2017).
    (doi: 10.1021/acs.jctc.7b00174)


                         Additional Contributions by
    P. Kraus, H. Kruse, M. H. Lechner, M. C. Schieber, and R. A. Shaw

    -----------------------------------------------------------------------


    Psi4 started on: Saturday, 29 September 2018 08:43PM

    Process ID: 27826
    Host:       oliva.prib.upf.edu
    PSIDATADIR: /shared/joao/test_parameterize/miniconda3/share/psi4
    Memory:     500.0 MiB
    Threads:    1
    
  ==> Input File <==

--------------------------------------------------------------------------
set_num_threads(4)
set_memory('3000 MB')

set { scf_mem_safety_factor 0.7 }

set { reference rks }
set { basis 6-31G* }

molecule MOL {
    1 1
    noreorient
    nocom
    symmetry c1
    C   -0.000000  -0.000000  -0.177864
    C    0.036678   1.219374   0.524165
    C    0.031765   1.213120   1.915444
    C    0.000000   0.000000   2.610107
    C   -0.031765  -1.213120   1.915444
    C   -0.036678  -1.219375   0.524165
    C   -0.000000   0.000000  -1.644734
    H    0.018170   2.164705  -0.010854
    H    0.042402   2.152895   2.457886
    H    0.000000   0.000000   3.695756
    H   -0.042402  -2.152895   2.457886
    H   -0.018170  -2.164705  -0.010853
    N   -1.070765   0.426605  -2.308460
    N    1.070765  -0.426605  -2.308461
    H    1.156065  -0.360563  -3.315997
    H    1.815363  -0.899563  -1.813317
    H   -1.815363   0.899563  -1.813316
    H   -1.156065   0.360564  -3.315997
}

set optking { frozen_dihedral = (" 2 1 7 13 ") }

set optking { dynamic_level = 1 
 geom_maxiter = 250
 print_trajectory_xyz_file = True }

energy, wfn = optimize('B3LYP-D3', return_wfn=True)

import os
os.chdir(os.environ['HTMD_PSI4_WORKDIR'])

oeprop(wfn, 'DIPOLE', 'QUADRUPOLE', 'MULLIKEN_CHARGES')

with open('psi4out.xyz', 'w') as f:
    f.write('18 ' )
    f.write('%.12f\n' % energy)
    f.write(MOL.save_string_xyz())
--------------------------------------------------------------------------
  Threads set to 4 by Python driver.

  Memory set to   2.794 GiB by Python driver.
gradient() will perform analytic gradient computation.

*** tstart() called on oliva.prib.upf.edu
*** at Sat Sep 29 20:43:59 2018

   => Loading Basis Set <=

    Name: 6-31G*
    Role: ORBITAL
    Keyword: BASIS
    atoms 1-7         entry C          line   111 file /shared/joao/test_parameterize/miniconda3/share/psi4/basis/6-31gs.gbs 
    atoms 8-12, 15-18 entry H          line    44 file /shared/joao/test_parameterize/miniconda3/share/psi4/basis/6-31gs.gbs 
    atoms 13-14       entry N          line   128 file /shared/joao/test_parameterize/miniconda3/share/psi4/basis/6-31gs.gbs 


         ---------------------------------------------------------
                                   SCF
            by Justin Turney, Rob Parrish, Andy Simmonett
                             and Daniel Smith
                              RKS Reference
                        4 Threads,   2861 MiB Core
         ---------------------------------------------------------

  ==> Geometry <==

    Molecular point group: c1
    Full point group: C1

    Geometry (in Angstrom), charge = 1, multiplicity = 1:

       Center              X                  Y                   Z               Mass       
    ------------   -----------------  -----------------  -----------------  -----------------
         C            0.000000000000     0.000000000000    -0.177864000000    12.000000000000
         C            0.036678000000     1.219374000000     0.524165000000    12.000000000000
         C            0.031765000000     1.213120000000     1.915444000000    12.000000000000
         C            0.000000000000     0.000000000000     2.610107000000    12.000000000000
         C           -0.031765000000    -1.213120000000     1.915444000000    12.000000000000
         C           -0.036678000000    -1.219375000000     0.524165000000    12.000000000000
         C            0.000000000000     0.000000000000    -1.644734000000    12.000000000000
         H            0.018170000000     2.164705000000    -0.010854000000     1.007825032070
         H            0.042402000000     2.152895000000     2.457886000000     1.007825032070
         H            0.000000000000     0.000000000000     3.695756000000     1.007825032070
         H           -0.042402000000    -2.152895000000     2.457886000000     1.007825032070
         H           -0.018170000000    -2.164705000000    -0.010853000000     1.007825032070
         N           -1.070765000000     0.426605000000    -2.308460000000    14.003074004780
         N            1.070765000000    -0.426605000000    -2.308461000000    14.003074004780
         H            1.156065000000    -0.360563000000    -3.315997000000     1.007825032070
         H            1.815363000000    -0.899563000000    -1.813317000000     1.007825032070
         H           -1.815363000000     0.899563000000    -1.813316000000     1.007825032070
         H           -1.156065000000     0.360564000000    -3.315997000000     1.007825032070

  Running in c1 symmetry.

  Rotational constants: A =      0.12190  B =      0.03737  C =      0.03282 [cm^-1]
  Rotational constants: A =   3654.48752  B =   1120.37908  C =    983.89442 [MHz]
  Nuclear repulsion =  416.017867019194284

  Charge       = 1
  Multiplicity = 1
  Electrons    = 64
  Nalpha       = 32
  Nbeta        = 32

  ==> Algorithm <==

  SCF Algorithm Type is DF.
  DIIS enabled.
  MOM disabled.
  Fractional occupation disabled.
  Guess Type is SAD.
  Energy threshold   = 1.00e-08
  Density threshold  = 1.00e-08
  Integral threshold = 0.00e+00

  ==> Primary Basis <==

  Basis Set: 6-31G*
    Blend: 6-31G*
    Number of shells: 72
    Number of basis function: 153
    Number of Cartesian functions: 153
    Spherical Harmonics?: false
    Max angular momentum: 2

  ==> DFT Potential <==

   => Composite Functional: B3LYP-D3ZERO <= 

    B3LYP-d3zero Hyb-GGA Exchange-Correlation Functional

    P. J. Stephens, F. J. Devlin, C. F. Chabalowski, and M. J. Frisch, J. Phys. Chem. 98, 11623 (1994)

    Deriv               =              1
    GGA                 =           TRUE
    Meta                =          FALSE

    Exchange Hybrid     =           TRUE
    MP2 Hybrid          =          FALSE

   => Exchange Functionals <=

    0.0800   Slater exchange
    0.7200         Becke 88

   => Exact (HF) Exchange <=

    0.2000               HF 

   => Correlation Functionals <=

    0.1900   Vosko, Wilk & Nusair (VWN5_RPA)
    0.8100   Lee, Yang & Parr

   => Molecular Quadrature <=

    Radial Scheme       =       TREUTLER
    Pruning Scheme      =           FLAT
    Nuclear Scheme      =       TREUTLER

    BS radius alpha     =              1
    Pruning alpha       =              1
    Radial Points       =             75
    Spherical Points    =            302
    Total Points        =         397218
    Total Blocks        =           3004
    Max Points          =            256
    Max Functions       =            149

   => -D3ZERO: Empirical Dispersion <=

    Grimme's -D3 (zero-damping) Dispersion Correction
    Grimme S.; Antony J.; Ehrlich S.; Krieg H. (2010), J. Chem. Phys., 132: 154104

        S6 =   1.000000E+00
        S8 =   1.703000E+00
       SR6 =   1.261000E+00
       SR8 =   1.000000E+00
    ALPHA6 =   1.400000E+01

   => Loading Basis Set <=

    Name: (6-31G* AUX)
    Role: JKFIT
    Keyword: DF_BASIS_SCF
    atoms 1-7         entry C          line   121 file /shared/joao/test_parameterize/miniconda3/share/psi4/basis/cc-pvdz-jkfit.gbs 
    atoms 8-12, 15-18 entry H          line    51 file /shared/joao/test_parameterize/miniconda3/share/psi4/basis/cc-pvdz-jkfit.gbs 
    atoms 13-14       entry N          line   171 file /shared/joao/test_parameterize/miniconda3/share/psi4/basis/cc-pvdz-jkfit.gbs 

  ==> Pre-Iterations <==

   -------------------------------------------------------
    Irrep   Nso     Nmo     Nalpha   Nbeta   Ndocc  Nsocc
   -------------------------------------------------------
     A        153     153       0       0       0       0
   -------------------------------------------------------
    Total     153     153      32      32      32       0
   -------------------------------------------------------

  ==> Integral Setup <==

  ==> DiskDFJK: Density-Fitted J/K Matrices <==

    J tasked:                  Yes
    K tasked:                  Yes
    wK tasked:                  No
    OpenMP threads:              4
    Integrals threads:           4
    Memory (MB):              2002
    Algorithm:                Core
    Integral Cache:           NONE
    Schwarz Cutoff:          1E-12
    Fitting Condition:       1E-12

   => Auxiliary Basis Set <=

  Basis Set: (6-31G* AUX)
    Blend: CC-PVDZ-JKFIT
    Number of shells: 297
    Number of basis function: 954
    Number of Cartesian functions: 954
    Spherical Harmonics?: false
    Max angular momentum: 3

  Minimum eigenvalue in the overlap matrix is 4.8843185457E-04.
  Using Symmetric Orthogonalization.

  SCF Guess: Superposition of Atomic Densities via on-the-fly atomic UHF.

  ==> Iterations <==

                           Total Energy        Delta E     RMS |[F,P]|

   @DF-RKS iter   0:  -379.59487582950112   -3.79595e+02   6.72243e-02 
   @DF-RKS iter   1:  -381.03447781573033   -1.43960e+00   1.18064e-02 
   @DF-RKS iter   2:  -380.95484395460602    7.96339e-02   1.31335e-02 DIIS
   @DF-RKS iter   3:  -381.45453530133165   -4.99691e-01   1.74296e-03 DIIS
   @DF-RKS iter   4:  -381.46041477876383   -5.87948e-03   8.99537e-04 DIIS
   @DF-RKS iter   5:  -381.46246226618996   -2.04749e-03   2.36476e-04 DIIS
   @DF-RKS iter   6:  -381.46260104894168   -1.38783e-04   7.26408e-05 DIIS
   @DF-RKS iter   7:  -381.46261528589599   -1.42370e-05   1.27122e-05 DIIS
   @DF-RKS iter   8:  -381.46261565070620   -3.64810e-07   5.17480e-06 DIIS
   @DF-RKS iter   9:  -381.46261572393513   -7.32289e-08   1.17718e-06 DIIS
   @DF-RKS iter  10:  -381.46261572676184   -2.82671e-09   7.39965e-07 DIIS
   @DF-RKS iter  11:  -381.46261572862056   -1.85872e-09   9.72429e-08 DIIS
   @DF-RKS iter  12:  -381.46261572864455   -2.39879e-11   5.13748e-08 DIIS
   @DF-RKS iter  13:  -381.46261572865211   -7.56017e-12   1.13237e-08 DIIS
   @DF-RKS iter  14:  -381.46261572865188    2.27374e-13   6.50361e-09 DIIS

  ==> Post-Iterations <==

    Orbital Energies [Eh]
    ---------------------

    Doubly Occupied:                                                      

       1A    -14.575475     2A    -14.575467     3A    -10.504567  
       4A    -10.369366     5A    -10.350468     6A    -10.350460  
       7A    -10.334704     8A    -10.334421     9A    -10.333906  
      10A     -1.189701    11A     -1.097345    12A     -1.009680  
      13A     -0.924590    14A     -0.896349    15A     -0.846195  
      16A     -0.788474    17A     -0.767375    18A     -0.750842  
      19A     -0.729876    20A     -0.692984    21A     -0.668252  
      22A     -0.621544    23A     -0.619961    24A     -0.577781  
      25A     -0.574769    26A     -0.568790    27A     -0.514523  
      28A     -0.500273    29A     -0.491950    30A     -0.477385  
      31A     -0.404349    32A     -0.399688  

    Virtual:                                                              

      33A     -0.204206    34A     -0.160273    35A     -0.150145  
      36A     -0.112777    37A     -0.066212    38A     -0.066088  
      39A     -0.037092    40A     -0.031143    41A      0.009988  
      42A      0.015470    43A      0.024268    44A      0.058477  
      45A      0.059426    46A      0.072905    47A      0.139981  
      48A      0.145552    49A      0.164164    50A      0.181110  
      51A      0.202679    52A      0.216355    53A      0.293818  
      54A      0.344705    55A      0.356644    56A      0.376687  
      57A      0.390696    58A      0.396953    59A      0.404313  
      60A      0.425094    61A      0.446532    62A      0.452065  
      63A      0.452942    64A      0.469447    65A      0.474089  
      66A      0.480206    67A      0.483586    68A      0.504729  
      69A      0.514947    70A      0.538916    71A      0.547370  
      72A      0.566119    73A      0.594159    74A      0.647837  
      75A      0.663194    76A      0.678962    77A      0.681162  
      78A      0.692570    79A      0.702056    80A      0.710549  
      81A      0.731206    82A      0.753529    83A      0.778735  
      84A      0.789023    85A      0.813439    86A      0.832275  
      87A      0.854500    88A      0.938513    89A      0.970126  
      90A      1.012524    91A      1.018589    92A      1.022874  
      93A      1.027851    94A      1.069695    95A      1.131745  
      96A      1.192789    97A      1.204251    98A      1.283630  
      99A      1.287138   100A      1.328804   101A      1.330921  
     102A      1.354582   103A      1.364507   104A      1.386808  
     105A      1.436769   106A      1.441523   107A      1.498970  
     108A      1.606519   109A      1.620262   110A      1.661217  
     111A      1.665156   112A      1.740641   113A      1.760549  
     114A      1.803470   115A      1.821371   116A      1.846770  
     117A      1.891728   118A      1.908639   119A      1.961412  
     120A      1.987190   121A      1.999939   122A      2.006497  
     123A      2.037764   124A      2.079581   125A      2.125630  
     126A      2.144145   127A      2.158942   128A      2.181639  
     129A      2.213622   130A      2.271055   131A      2.378548  
     132A      2.383031   133A      2.407523   134A      2.443464  
     135A      2.504006   136A      2.569302   137A      2.587086  
     138A      2.591649   139A      2.610618   140A      2.629674  
     141A      2.717584   142A      2.884013   143A      2.926637  
     144A      3.258268   145A      3.631975   146A      3.633547  
     147A      3.941266   148A      3.969828   149A      3.976342  
     150A      4.110823   151A      4.181470   152A      4.261038  
     153A      4.551373  

    Final Occupation by Irrep:
              A 
    DOCC [    32 ]

  Energy converged.

  @DF-RKS Final Energy:  -381.46261572865188

   => Energetics <=

    Nuclear Repulsion Energy =            416.0178670191942842
    One-Electron Energy =               -1327.3328857406715997
    Two-Electron Energy =                 574.2663717916628912
    DFT Exchange-Correlation Energy =     -44.4022324988374351
    Empirical Dispersion Energy =          -0.0117363000000000
    VV10 Nonlocal Energy =                  0.0000000000000000
    Total Energy =                       -381.4626157286518833



Properties will be evaluated at   0.000000,   0.000000,   0.000000 [a0]

Properties computed using the SCF density matrix

  Nuclear Dipole Moment: [e a0]
     X:     0.0000      Y:    -0.0000      Z:     0.0248

  Electronic Dipole Moment: [e a0]
     X:    -0.0000      Y:     0.0000      Z:    -2.5570

  Dipole Moment: [e a0]
     X:    -0.0000      Y:     0.0000      Z:    -2.5322     Total:     2.5322

  Dipole Moment: [D]
     X:    -0.0000      Y:     0.0000      Z:    -6.4362     Total:     6.4362


*** tstop() called on oliva.prib.upf.edu at Sat Sep 29 20:44:27 2018
Module time:
	user time   =      98.68 seconds =       1.64 minutes
	system time =       0.84 seconds =       0.01 minutes
	total time  =         28 seconds =       0.47 minutes
Total time:
	user time   =      98.68 seconds =       1.64 minutes
	system time =       0.84 seconds =       0.01 minutes
	total time  =         28 seconds =       0.47 minutes

*** tstart() called on oliva.prib.upf.edu
*** at Sat Sep 29 20:44:27 2018


         ------------------------------------------------------------
                                   SCF GRAD                          
                          Rob Parrish, Justin Turney,                
                       Andy Simmonett, and Alex Sokolov              
         ------------------------------------------------------------

  ==> Geometry <==

    Molecular point group: c1
    Full point group: C1

    Geometry (in Angstrom), charge = 1, multiplicity = 1:

       Center              X                  Y                   Z               Mass       
    ------------   -----------------  -----------------  -----------------  -----------------
         C            0.000000000000     0.000000000000    -0.177864000000    12.000000000000
         C            0.036678000000     1.219374000000     0.524165000000    12.000000000000
         C            0.031765000000     1.213120000000     1.915444000000    12.000000000000
         C            0.000000000000     0.000000000000     2.610107000000    12.000000000000
         C           -0.031765000000    -1.213120000000     1.915444000000    12.000000000000
         C           -0.036678000000    -1.219375000000     0.524165000000    12.000000000000
         C            0.000000000000     0.000000000000    -1.644734000000    12.000000000000
         H            0.018170000000     2.164705000000    -0.010854000000     1.007825032070
         H            0.042402000000     2.152895000000     2.457886000000     1.007825032070
         H            0.000000000000     0.000000000000     3.695756000000     1.007825032070
         H           -0.042402000000    -2.152895000000     2.457886000000     1.007825032070
         H           -0.018170000000    -2.164705000000    -0.010853000000     1.007825032070
         N           -1.070765000000     0.426605000000    -2.308460000000    14.003074004780
         N            1.070765000000    -0.426605000000    -2.308461000000    14.003074004780
         H            1.156065000000    -0.360563000000    -3.315997000000     1.007825032070
         H            1.815363000000    -0.899563000000    -1.813317000000     1.007825032070
         H           -1.815363000000     0.899563000000    -1.813316000000     1.007825032070
         H           -1.156065000000     0.360564000000    -3.315997000000     1.007825032070

  Nuclear repulsion =  416.017867019194284

  ==> Basis Set <==

  Basis Set: 6-31G*
    Blend: 6-31G*
    Number of shells: 72
    Number of basis function: 153
    Number of Cartesian functions: 153
    Spherical Harmonics?: false
    Max angular momentum: 2

  ==> DFJKGrad: Density-Fitted SCF Gradients <==

    Gradient:                    1
    J tasked:                  Yes
    K tasked:                  Yes
    wK tasked:                  No
    OpenMP threads:              4
    Integrals threads:           4
    Memory (MB):              2002
    Schwarz Cutoff:          0E+00
    Fitting Condition:       1E-12

   => Auxiliary Basis Set <=

  Basis Set: (6-31G* AUX)
    Blend: CC-PVDZ-JKFIT
    Number of shells: 297
    Number of basis function: 954
    Number of Cartesian functions: 954
    Spherical Harmonics?: false
    Max angular momentum: 3

  ==> DFT Potential <==

   => Composite Functional: B3LYP-D3ZERO <= 

    B3LYP-d3zero Hyb-GGA Exchange-Correlation Functional

    P. J. Stephens, F. J. Devlin, C. F. Chabalowski, and M. J. Frisch, J. Phys. Chem. 98, 11623 (1994)

    Deriv               =              1
    GGA                 =           TRUE
    Meta                =          FALSE

    Exchange Hybrid     =           TRUE
    MP2 Hybrid          =          FALSE

   => Exchange Functionals <=

    0.0800   Slater exchange
    0.7200         Becke 88

   => Exact (HF) Exchange <=

    0.2000               HF 

   => Correlation Functionals <=

    0.1900   Vosko, Wilk & Nusair (VWN5_RPA)
    0.8100   Lee, Yang & Parr

   => Molecular Quadrature <=

    Radial Scheme       =       TREUTLER
    Pruning Scheme      =           FLAT
    Nuclear Scheme      =       TREUTLER

    BS radius alpha     =              1
    Pruning alpha       =              1
    Radial Points       =             75
    Spherical Points    =            302
    Total Points        =         397218
    Total Blocks        =           3004
    Max Points          =            256
    Max Functions       =            149


  -Total Gradient:
     Atom            X                  Y                   Z
    ------   -----------------  -----------------  -----------------
       1       -0.000000037197     0.000000504129    -0.014175638004
       2        0.007066145502     0.000466116604     0.004783439625
       3        0.000536711527     0.002403023268    -0.002064394198
       4       -0.000000001390    -0.000000087422     0.000110541577
       5       -0.000536707008    -0.002402803881    -0.002064306370
       6       -0.007066144703    -0.000467546470     0.004783082559
       7       -0.000000250863     0.000000110861     0.013896920480
       8       -0.002705125666     0.000054691076     0.000852614396
       9       -0.000755417128    -0.000127279934     0.000161179080
      10       -0.000000000077     0.000000008486     0.000026718118
      11        0.000755416339     0.000127291273     0.000161116746
      12        0.002705110257    -0.000053904617     0.000853097868
      13       -0.005338692518    -0.002830825645    -0.003095580494
      14        0.005339067062     0.002830733572    -0.003096742862
      15        0.001131343359     0.002950397370     0.001386485294
      16       -0.002108072436    -0.003065715652    -0.001953303188
      17        0.002108042302     0.003065727737    -0.001953335284
      18       -0.001131387435    -0.002950440718     0.001385683068


*** tstop() called on oliva.prib.upf.edu at Sat Sep 29 20:44:35 2018
Module time:
	user time   =      30.14 seconds =       0.50 minutes
	system time =       0.32 seconds =       0.01 minutes
	total time  =          8 seconds =       0.13 minutes
Total time:
	user time   =     128.88 seconds =       2.15 minutes
	system time =       1.17 seconds =       0.02 minutes
	total time  =         36 seconds =       0.60 minutes

			-----------------------------------------
			 OPTKING 2.0: for geometry optimizations 
			  - R.A. King,  Bethel University        
			-----------------------------------------
	At level 1: Red. Int., RFO, no backsteps, dynamic trust

	Internal coordinates to be generated automatically.
	Detected frag 1 with atoms:  1 2 3 4 5 6 7 8 9 10 11 12 13 14 15 16 17 18
	---Fragment 1 Bond Connectivity---
	 1 : 2 6 7
	 2 : 1 3 8
	 3 : 2 4 9
	 4 : 3 5 10
	 5 : 4 6 11
	 6 : 1 5 12
	 7 : 1 13 14
	 8 : 2
	 9 : 3
	 10 : 4
	 11 : 5
	 12 : 6
	 13 : 7 17 18
	 14 : 7 15 16
	 15 : 14
	 16 : 14
	 17 : 13
	 18 : 13

	Assuming in current code that numbering for constraints corresponds to unified fragment.
	Frozen dihedral atom list: 
	     2     1     7    13
	---Fragment 1 Geometry and Gradient---
	 C           0.0000000000        0.0000000000       -0.3361142489
	 C           0.0693113751        2.3042829136        0.9905282984
	 C           0.0600271506        2.2924645663        3.6196645829
	 C           0.0000000000        0.0000000000        4.9323874075
	 C          -0.0600271506       -2.2924645663        3.6196645829
	 C          -0.0693113751       -2.3042848033        0.9905282984
	 C           0.0000000000        0.0000000000       -3.1080968214
	 H           0.0343363238        4.0906996085       -0.0205110874
	 H           0.0801281675        4.0683819429        4.6447314059
	 H           0.0000000000        0.0000000000        6.9839666940
	 H          -0.0801281675       -4.0683819429        4.6447314059
	 H          -0.0343363238       -4.0906996085       -0.0205091977
	 N          -2.0234526027        0.8061666169       -4.3623571887
	 N           2.0234526027       -0.8061666169       -4.3623590784
	 H           2.1846462418       -0.6813653237       -6.2663261875
	 H           3.4305389018       -1.6999277093       -3.4266725221
	 H          -3.4305389018        1.6999277093       -3.4266706324
	 H          -2.1846462418        0.6813672134       -6.2663261875
	            -0.0000000372        0.0000005041       -0.0141756380
	             0.0070661455        0.0004661166        0.0047834396
	             0.0005367115        0.0024030233       -0.0020643942
	            -0.0000000014       -0.0000000874        0.0001105416
	            -0.0005367070       -0.0024028039       -0.0020643064
	            -0.0070661447       -0.0004675465        0.0047830826
	            -0.0000002509        0.0000001109        0.0138969205
	            -0.0027051257        0.0000546911        0.0008526144
	            -0.0007554171       -0.0001272799        0.0001611791
	            -0.0000000001        0.0000000085        0.0000267181
	             0.0007554163        0.0001272913        0.0001611167
	             0.0027051103       -0.0000539046        0.0008530979
	            -0.0053386925       -0.0028308256       -0.0030955805
	             0.0053390671        0.0028307336       -0.0030967429
	             0.0011313434        0.0029503974        0.0013864853
	            -0.0021080724       -0.0030657157       -0.0019533032
	             0.0021080423        0.0030657277       -0.0019533353
	            -0.0011313874       -0.0029504407        0.0013856831

	Previous optimization step data not found.  Starting new optimization.

	---Fragment 1 Intrafragment Coordinates---
	 - Coordinate -           - BOHR/RAD -       - ANG/DEG -
	 R(1,2)           =         2.659794	       1.407502
	 R(1,6)           =         2.659796	       1.407503
	 R(1,7)           =         2.771983	       1.466870
	 R(2,3)           =         2.629179	       1.391302
	 R(2,8)           =         2.052976	       1.086388
	 R(3,4)           =         2.642393	       1.398294
	 R(3,9)           =         2.050622	       1.085142
	 R(4,5)           =         2.642393	       1.398294
	 R(4,10)          =         2.051579	       1.085649
	 R(5,6)           =         2.629179	       1.391302
	 R(5,11)          =         2.050622	       1.085142
	 R(6,12)          =         2.052973	       1.086386
	 R(7,13)          =         2.513451	       1.330061
	 R(7,14)          =         2.513452	       1.330061
	 R(13,17)         =         1.911599	       1.011575
	 R(13,18)         =         1.914851	       1.013296
	 R(14,15)         =         1.914850	       1.013295
	 R(14,16)         =         1.911599	       1.011575
	 B(1,2,3)         =         2.088380	     119.655376
	 B(1,2,8)         =         2.103396	     120.515689
	 B(1,6,5)         =         2.088379	     119.655315
	 B(1,6,12)        =         2.103396	     120.515729
	 B(1,7,13)        =         2.093263	     119.935138
	 B(1,7,14)        =         2.093264	     119.935176
	 B(2,1,6)         =         2.097220	     120.161857
	 B(2,1,7)         =         2.092983	     119.919082
	 B(2,3,4)         =         2.095279	     120.050636
	 B(2,3,9)         =         2.089719	     119.732108
	 B(3,2,8)         =         2.090149	     119.756722
	 B(3,4,5)         =         2.101793	     120.423859
	 B(3,4,10)        =         2.090696	     119.788070
	 B(4,3,9)         =         2.098135	     120.214297
	 B(4,5,6)         =         2.095280	     120.050677
	 B(4,5,11)        =         2.098135	     120.214297
	 B(5,4,10)        =         2.090696	     119.788070
	 B(5,6,12)        =         2.090149	     119.756743
	 B(6,1,7)         =         2.092982	     119.919061
	 B(6,5,11)        =         2.089719	     119.732067
	 B(7,13,17)       =         2.092412	     119.886376
	 B(7,13,18)       =         2.144860	     122.891428
	 B(7,14,15)       =         2.144860	     122.891444
	 B(7,14,16)       =         2.092411	     119.886340
	 B(13,7,14)       =         2.096659	     120.129686
	 B(15,14,16)      =         2.043399	     117.078161
	 B(17,13,18)      =         2.043399	     117.078136
	 D(1,2,3,4)       =         0.007799	       0.446825
	 D(1,2,3,9)       =        -3.122896	    -178.928735
	 D(1,6,5,4)       =         0.007799	       0.446822
	 D(1,6,5,11)      =        -3.122896	    -178.928737
	 D(1,7,13,17)     =         0.187844	      10.762670
	 D(1,7,13,18)     =        -3.032165	    -173.730282
	 D(1,7,14,15)     =        -3.032164	    -173.730212
	 D(1,7,14,16)     =         0.187844	      10.762666
	 D(2,1,6,5)       =        -0.003906	      -0.223802
	 D(2,1,6,12)      =        -3.091437	    -177.126283
	*D(2,1,7,13)      =        -1.221730	     -70.000000
	 D(2,1,7,14)      =         1.919862	     110.000000
	 D(2,3,4,5)       =        -0.003942	      -0.225875
	 D(2,3,4,10)      =         3.137650	     179.774125
	 D(3,2,1,6)       =        -0.003906	      -0.223806
	 D(3,2,1,7)       =         3.137687	     179.776196
	 D(3,4,5,6)       =        -0.003942	      -0.225874
	 D(3,4,5,11)      =         3.126699	     179.146646
	 D(4,3,2,8)       =         3.095744	     177.373058
	 D(4,5,6,12)      =         3.095744	     177.373055
	 D(5,4,3,9)       =         3.126699	     179.146646
	 D(5,6,1,7)       =         3.137687	     179.776197
	 D(6,1,2,8)       =        -3.091437	    -177.126287
	 D(6,1,7,13)      =         1.919862	     110.000002
	 D(6,1,7,14)      =        -1.221730	     -69.999998
	 D(6,5,4,10)      =         3.137650	     179.774126
	 D(7,1,2,8)       =         0.050156	       2.873714
	 D(7,1,6,12)      =         0.050156	       2.873716
	 D(8,2,3,9)       =        -0.034950	      -2.002503
	 D(9,3,4,10)      =        -0.014894	      -0.853354
	 D(10,4,5,11)     =        -0.014894	      -0.853354
	 D(11,5,6,12)     =        -0.034950	      -2.002504
	 D(13,7,14,15)    =         0.109428	       6.269788
	 D(13,7,14,16)    =        -2.953749	    -169.237334
	 D(14,7,13,17)    =        -2.953749	    -169.237330
	 D(14,7,13,18)    =         0.109427	       6.269718

	Current energy   :      -381.4626157287

	Generating empirical Hessian (Schlegel '84) for each fragment.
	Taking RFO optimization step.
	Going to follow RFO solution 1.
	Using RFO vector 1.
	Norm of target step-size    0.39877
	Projected energy change by RFO approximation:        -0.0046749532

	Back-transformation to cartesian coordinates...
	Could not converge backtransformation.
	Using first guess instead.

	Back-transformation to cartesian coordinates to adjust frozen coordinates...
	Successfully converged to displaced geometry.

	--- Internal Coordinate Step in ANG or DEG, aJ/ANG or AJ/DEG ---
	 ---------------------------------------------------------------------------
	   Coordinate                Previous        Force       Change         New 
	   ----------                --------       ------       ------       ------
	    1 R(1,2)          =      1.407502    -0.030073    -0.004399     1.403104
	    2 R(1,6)          =      1.407503    -0.030080    -0.003856     1.403647
	    3 R(1,7)          =      1.466870     0.054137     0.009616     1.476486
	    4 R(2,3)          =      1.391302     0.015136     0.002240     1.393542
	    5 R(2,8)          =      1.086388     0.002687     0.001368     1.087756
	    6 R(3,4)          =      1.398294    -0.006665    -0.000743     1.397551
	    7 R(3,9)          =      1.085142     0.000305     0.000346     1.085488
	    8 R(4,5)          =      1.398294    -0.006668    -0.000758     1.397536
	    9 R(4,10)         =      1.085649    -0.000221    -0.000010     1.085639
	   10 R(5,6)          =      1.391302     0.015130     0.002071     1.393373
	   11 R(5,11)         =      1.085142     0.000305     0.000133     1.085275
	   12 R(6,12)         =      1.086386     0.002695     0.001223     1.087610
	   13 R(7,13)         =      1.330061    -0.036815    -0.003944     1.326117
	   14 R(7,14)         =      1.330061    -0.036819    -0.003347     1.326714
	   15 R(13,17)        =      1.011575     0.008854     0.006632     1.018206
	   16 R(13,18)        =      1.013296     0.008982     0.004620     1.017916
	   17 R(14,15)        =      1.013295     0.008989     0.006265     1.019560
	   18 R(14,16)        =      1.011575     0.008854     0.006479     1.018054
	   19 B(1,2,3)        =    119.655376    -0.000115    -0.383415   119.271961
	   20 B(1,2,8)        =    120.515689     0.000004    -0.024561   120.491128
	   21 B(1,6,5)        =    119.655315    -0.000114    -0.391310   119.264005
	   22 B(1,6,12)       =    120.515729     0.000004    -0.062740   120.452989
	   23 B(1,7,13)       =    119.935138    -0.000165    -0.486255   119.448883
	   24 B(1,7,14)       =    119.935176    -0.000165    -0.518232   119.416943
	   25 B(2,1,6)        =    120.161857     0.000233     0.642809   120.804666
	   26 B(2,1,7)        =    119.919082    -0.000117    -0.316668   119.602414
	   27 B(2,3,4)        =    120.050636     0.000020     0.100728   120.151364
	   28 B(2,3,9)        =    119.732108    -0.000027    -0.110910   119.621198
	   29 B(3,2,8)        =    119.756722     0.000117     0.470559   120.227281
	   30 B(3,4,5)        =    120.423859    -0.000043    -0.082734   120.341125
	   31 B(3,4,10)       =    119.788070     0.000021     0.043603   119.831674
	   32 B(4,3,9)        =    120.214297     0.000007     0.012055   120.226351
	   33 B(4,5,6)        =    120.050677     0.000020     0.098949   120.149626
	   34 B(4,5,11)       =    120.214297     0.000007     0.025628   120.239925
	   35 B(5,4,10)       =    119.788070     0.000021     0.038631   119.826702
	   36 B(5,6,12)       =    119.756743     0.000116     0.511779   120.268522
	   37 B(6,1,7)        =    119.919061    -0.000117    -0.357435   119.561626
	   38 B(6,5,11)       =    119.732067    -0.000027    -0.121736   119.610330
	   39 B(7,13,17)      =    119.886376    -0.000096    -0.597064   119.289312
	   40 B(7,13,18)      =    122.891428     0.000061     0.191430   123.082858
	   41 B(7,14,15)      =    122.891444     0.000061     0.264342   123.155786
	   42 B(7,14,16)      =    119.886340    -0.000096    -0.700005   119.186335
	   43 B(13,7,14)      =    120.129686     0.000331     0.974469   121.104156
	   44 B(15,14,16)     =    117.078161     0.000038     0.507705   117.585867
	   45 B(17,13,18)     =    117.078136     0.000038     0.477671   117.555807
	   46 D(1,2,3,4)      =      0.446825    -0.000008    -1.004347    -0.557522
	   47 D(1,2,3,9)      =   -178.928735    -0.000014    -2.007157  -180.935892
	   48 D(1,6,5,4)      =      0.446822    -0.000011    -1.760798    -1.313976
	   49 D(1,6,5,11)     =   -178.928737    -0.000017    -2.510302  -181.439039
	   50 D(1,7,13,17)    =     10.762670    -0.000051    -6.379053     4.383616
	   51 D(1,7,13,18)    =   -173.730282    -0.000041    -5.050272  -178.780554
	   52 D(1,7,14,15)    =   -173.730212    -0.000052    -7.001553  -180.731765
	   53 D(1,7,14,16)    =     10.762666    -0.000063    -8.331211     2.431455
	   54 D(2,1,6,5)      =     -0.223802     0.000010     1.652090     1.428289
	   55 D(2,1,6,12)     =   -177.126283    -0.000021    -2.826062  -179.952344
	   56 *D(2,1,7,13)    =    -70.000000     0.000000     0.000000   -70.000000
	   57 D(2,1,7,14)     =    110.000000     0.000011     1.970442   111.970442
	   58 D(2,3,4,5)      =     -0.225875     0.000006     0.894144     0.668268
	   59 D(2,3,4,10)     =    179.774125     0.000004     0.636607   180.410732
	   60 D(3,2,1,6)      =     -0.223806    -0.000000    -0.269399    -0.493204
	   61 D(3,2,1,7)      =    179.776196     0.000010     1.774257   181.550453
	   62 D(3,4,5,6)      =     -0.225874     0.000004     0.507119     0.281245
	   63 D(3,4,5,11)     =    179.146646     0.000009     1.260455   180.407101
	   64 D(4,3,2,8)      =    177.373058     0.000021     3.192676   180.565733
	   65 D(4,5,6,12)     =    177.373055     0.000018     2.690999   180.064055
	   66 D(5,4,3,9)      =    179.146646     0.000012     1.902298   181.048945
	   67 D(5,6,1,7)      =    179.776197    -0.000001    -0.390740   179.385457
	   68 D(6,1,2,8)      =   -177.126287    -0.000030    -4.493207  -181.619494
	   69 D(6,1,7,13)     =    110.000002     0.000010     2.018018   112.018020
	   70 D(6,1,7,14)     =    -69.999998     0.000022     3.988460   -66.011538
	   71 D(6,5,4,10)     =    179.774126     0.000005     0.764643   180.538768
	   72 D(7,1,2,8)      =      2.873714    -0.000019    -2.449551     0.424163
	   73 D(7,1,6,12)     =      2.873716    -0.000031    -4.868891    -1.995176
	   74 D(8,2,3,9)      =     -2.002503     0.000014     2.189866     0.187364
	   75 D(9,3,4,10)     =     -0.853354     0.000011     1.644762     0.791409
	   76 D(10,4,5,11)    =     -0.853354     0.000010     1.517978     0.664625
	   77 D(11,5,6,12)    =     -2.002504     0.000013     1.941496    -0.061008
	   78 D(13,7,14,15)   =      6.269788    -0.000041    -4.997579     1.272209
	   79 D(13,7,14,16)   =   -169.237334    -0.000051    -6.327237  -175.564571
	   80 D(14,7,13,17)   =   -169.237330    -0.000063    -8.383658  -177.620988
	   81 D(14,7,13,18)   =      6.269718    -0.000052    -7.054877    -0.785159
	 ---------------------------------------------------------------------------
	Successfully symmetrized geometry.

  ==> Convergence Check <==

  Measures of convergence in internal coordinates in au.
  Criteria marked as inactive (o), active & met (*), and active & unmet ( ).
  --------------------------------------------------------------------------------------------- ~
   Step     Total Energy     Delta E     MAX Force     RMS Force      MAX Disp      RMS Disp    ~
  --------------------------------------------------------------------------------------------- ~
    Convergence Criteria    1.00e-06 *    3.00e-04 *             o    1.20e-03 *             o  ~
  --------------------------------------------------------------------------------------------- ~
      1    -381.46261573   -3.81e+02      6.57e-03      1.83e-03 o    1.46e-01      4.41e-02 o  ~
  ---------------------------------------------------------------------------------------------

	Writing optimization data to binary file.
	Structure for next step:
	Cartesian Geometry (in Angstrom)
	    C    -0.0180146802   0.0089456101  -0.1755158864
	    C     0.0080246847   1.2259655468   0.5222552261
	    C     0.0251424794   1.2122831468   1.9156247660
	    C     0.0046198610  -0.0026673070   2.6060038312
	    C    -0.0191049834  -1.2120599946   1.9060663677
	    C    -0.0165433305  -1.2144039405   0.5126978729
	    C    -0.0015429310   0.0141983963  -1.6519002887
	    H     0.0332406960   2.1706169953  -0.0164565357
	    H     0.0607197025   2.1501557346   2.4609806411
	    H     0.0113520717  -0.0071209259   3.6916129701
	    H    -0.0416811817  -2.1544544159   2.4438449243
	    H    -0.0360296289  -2.1544400733  -0.0339715101
	    N    -1.0679863092   0.4414039644  -2.3143042040
	    N     1.0650117203  -0.4453914479  -2.2933113987
	    H     1.1329759318  -0.4783515495  -3.3100691849
	    H     1.8401968086  -0.8290112843  -1.7563223023
	    H    -1.8569710059   0.8224182024  -1.7955798343
	    H    -1.1234099054   0.4519133422  -3.3306554543
			--------------------------
			 OPTKING Finished Execution 
			--------------------------

    Structure for next step:
    Molecular point group: c1
    Full point group: C1

    Geometry (in Angstrom), charge = 1, multiplicity = 1:

    C           -0.018014680153     0.008945610080    -0.175515886368
    C            0.008024684744     1.225965546805     0.522255226091
    C            0.025142479447     1.212283146834     1.915624766045
    C            0.004619860972    -0.002667307029     2.606003831193
    C           -0.019104983380    -1.212059994580     1.906066367687
    C           -0.016543330507    -1.214403940496     0.512697872910
    C           -0.001542931045     0.014198396276    -1.651900288669
    H            0.033240695951     2.170616995283    -0.016456535692
    H            0.060719702518     2.150155734643     2.460980641071
    H            0.011352071668    -0.007120925905     3.691612970112
    H           -0.041681181664    -2.154454415937     2.443844924271
    H           -0.036029628856    -2.154440073269    -0.033971510079
    N           -1.067986309153     0.441403964357    -2.314304203995
    N            1.065011720314    -0.445391447852    -2.293311398747
    H            1.132975931845    -0.478351549519    -3.310069184906
    H            1.840196808606    -0.829011284271    -1.756322302269
    H           -1.856971005938     0.822418202400    -1.795579834341
    H           -1.123409905370     0.451913342181    -3.330655454314

gradient() will perform analytic gradient computation.

*** tstart() called on oliva.prib.upf.edu
*** at Sat Sep 29 20:44:35 2018

   => Loading Basis Set <=

    Name: 6-31G*
    Role: ORBITAL
    Keyword: BASIS
    atoms 1-7         entry C          line   111 file /shared/joao/test_parameterize/miniconda3/share/psi4/basis/6-31gs.gbs 
    atoms 8-12, 15-18 entry H          line    44 file /shared/joao/test_parameterize/miniconda3/share/psi4/basis/6-31gs.gbs 
    atoms 13-14       entry N          line   128 file /shared/joao/test_parameterize/miniconda3/share/psi4/basis/6-31gs.gbs 


         ---------------------------------------------------------
                                   SCF
            by Justin Turney, Rob Parrish, Andy Simmonett
                             and Daniel Smith
                              RKS Reference
                        4 Threads,   2861 MiB Core
         ---------------------------------------------------------

  ==> Geometry <==

    Molecular point group: c1
    Full point group: C1

    Geometry (in Angstrom), charge = 1, multiplicity = 1:

       Center              X                  Y                   Z               Mass       
    ------------   -----------------  -----------------  -----------------  -----------------
         C           -0.018014680153     0.008945610080    -0.175515886368    12.000000000000
         C            0.008024684744     1.225965546805     0.522255226091    12.000000000000
         C            0.025142479447     1.212283146834     1.915624766045    12.000000000000
         C            0.004619860972    -0.002667307029     2.606003831193    12.000000000000
         C           -0.019104983380    -1.212059994580     1.906066367687    12.000000000000
         C           -0.016543330507    -1.214403940496     0.512697872910    12.000000000000
         C           -0.001542931045     0.014198396276    -1.651900288669    12.000000000000
         H            0.033240695951     2.170616995283    -0.016456535692     1.007825032070
         H            0.060719702518     2.150155734643     2.460980641071     1.007825032070
         H            0.011352071668    -0.007120925905     3.691612970112     1.007825032070
         H           -0.041681181664    -2.154454415937     2.443844924271     1.007825032070
         H           -0.036029628856    -2.154440073269    -0.033971510079     1.007825032070
         N           -1.067986309153     0.441403964357    -2.314304203995    14.003074004780
         N            1.065011720314    -0.445391447852    -2.293311398747    14.003074004780
         H            1.132975931845    -0.478351549519    -3.310069184906     1.007825032070
         H            1.840196808606    -0.829011284271    -1.756322302269     1.007825032070
         H           -1.856971005938     0.822418202400    -1.795579834341     1.007825032070
         H           -1.123409905370     0.451913342181    -3.330655454314     1.007825032070

  Running in c1 symmetry.

  Rotational constants: A =      0.12179  B =      0.03756  C =      0.03285 [cm^-1]
  Rotational constants: A =   3651.14424  B =   1126.00559  C =    984.93650 [MHz]
  Nuclear repulsion =  416.221224826387243

  Charge       = 1
  Multiplicity = 1
  Electrons    = 64
  Nalpha       = 32
  Nbeta        = 32

  ==> Algorithm <==

  SCF Algorithm Type is DF.
  DIIS enabled.
  MOM disabled.
  Fractional occupation disabled.
  Guess Type is READ.
  Energy threshold   = 1.00e-08
  Density threshold  = 1.00e-08
  Integral threshold = 0.00e+00

  ==> Primary Basis <==

  Basis Set: 6-31G*
    Blend: 6-31G*
    Number of shells: 72
    Number of basis function: 153
    Number of Cartesian functions: 153
    Spherical Harmonics?: false
    Max angular momentum: 2

  ==> DFT Potential <==

   => Composite Functional: B3LYP-D3ZERO <= 

    B3LYP-d3zero Hyb-GGA Exchange-Correlation Functional

    P. J. Stephens, F. J. Devlin, C. F. Chabalowski, and M. J. Frisch, J. Phys. Chem. 98, 11623 (1994)

    Deriv               =              1
    GGA                 =           TRUE
    Meta                =          FALSE

    Exchange Hybrid     =           TRUE
    MP2 Hybrid          =          FALSE

   => Exchange Functionals <=

    0.0800   Slater exchange
    0.7200         Becke 88

   => Exact (HF) Exchange <=

    0.2000               HF 

   => Correlation Functionals <=

    0.1900   Vosko, Wilk & Nusair (VWN5_RPA)
    0.8100   Lee, Yang & Parr

   => Molecular Quadrature <=

    Radial Scheme       =       TREUTLER
    Pruning Scheme      =           FLAT
    Nuclear Scheme      =       TREUTLER

    BS radius alpha     =              1
    Pruning alpha       =              1
    Radial Points       =             75
    Spherical Points    =            302
    Total Points        =         397218
    Total Blocks        =           2993
    Max Points          =            256
    Max Functions       =            151

   => -D3ZERO: Empirical Dispersion <=

    Grimme's -D3 (zero-damping) Dispersion Correction
    Grimme S.; Antony J.; Ehrlich S.; Krieg H. (2010), J. Chem. Phys., 132: 154104

        S6 =   1.000000E+00
        S8 =   1.703000E+00
       SR6 =   1.261000E+00
       SR8 =   1.000000E+00
    ALPHA6 =   1.400000E+01

   => Loading Basis Set <=

    Name: (6-31G* AUX)
    Role: JKFIT
    Keyword: DF_BASIS_SCF
    atoms 1-7         entry C          line   121 file /shared/joao/test_parameterize/miniconda3/share/psi4/basis/cc-pvdz-jkfit.gbs 
    atoms 8-12, 15-18 entry H          line    51 file /shared/joao/test_parameterize/miniconda3/share/psi4/basis/cc-pvdz-jkfit.gbs 
    atoms 13-14       entry N          line   171 file /shared/joao/test_parameterize/miniconda3/share/psi4/basis/cc-pvdz-jkfit.gbs 

  Reading orbitals from file 180, no projection.

  ==> Pre-Iterations <==

   -------------------------------------------------------
    Irrep   Nso     Nmo     Nalpha   Nbeta   Ndocc  Nsocc
   -------------------------------------------------------
     A        153     153       0       0       0       0
   -------------------------------------------------------
    Total     153     153      32      32      32       0
   -------------------------------------------------------

  ==> Integral Setup <==

  ==> DiskDFJK: Density-Fitted J/K Matrices <==

    J tasked:                  Yes
    K tasked:                  Yes
    wK tasked:                  No
    OpenMP threads:              4
    Integrals threads:           4
    Memory (MB):              2002
    Algorithm:                Core
    Integral Cache:           NONE
    Schwarz Cutoff:          1E-12
    Fitting Condition:       1E-12

   => Auxiliary Basis Set <=

  Basis Set: (6-31G* AUX)
    Blend: CC-PVDZ-JKFIT
    Number of shells: 297
    Number of basis function: 954
    Number of Cartesian functions: 954
    Spherical Harmonics?: false
    Max angular momentum: 3

  Minimum eigenvalue in the overlap matrix is 4.8592287300E-04.
  Using Symmetric Orthogonalization.

  SCF Guess: Orbitals guess was supplied from a previous computation.

  ==> Iterations <==

                           Total Energy        Delta E     RMS |[F,P]|

   @DF-RKS iter   0:  -381.45238602834218   -3.81452e+02   1.23771e-03 
   @DF-RKS iter   1:  -381.46534625672604   -1.29602e-02   1.40929e-04 
   @DF-RKS iter   2:  -381.46535433354597   -8.07682e-06   1.64501e-04 DIIS
   @DF-RKS iter   3:  -381.46543454599697   -8.02125e-05   5.56746e-05 DIIS
   @DF-RKS iter   4:  -381.46544371419901   -9.16820e-06   1.90155e-05 DIIS
   @DF-RKS iter   5:  -381.46544470045649   -9.86257e-07   5.64865e-06 DIIS
   @DF-RKS iter   6:  -381.46544479770375   -9.72473e-08   1.31129e-06 DIIS
   @DF-RKS iter   7:  -381.46544480215880   -4.45505e-09   3.56019e-07 DIIS
   @DF-RKS iter   8:  -381.46544480257631   -4.17515e-10   1.58958e-07 DIIS
   @DF-RKS iter   9:  -381.46544480264282   -6.65068e-11   3.82653e-08 DIIS
   @DF-RKS iter  10:  -381.46544480264726   -4.43379e-12   9.33104e-09 DIIS

  ==> Post-Iterations <==

    Orbital Energies [Eh]
    ---------------------

    Doubly Occupied:                                                      

       1A    -14.575456     2A    -14.575386     3A    -10.502154  
       4A    -10.369247     5A    -10.350378     6A    -10.350317  
       7A    -10.335173     8A    -10.334872     9A    -10.334368  
      10A     -1.188564    11A     -1.096456    12A     -1.009957  
      13A     -0.923113    14A     -0.896288    15A     -0.844368  
      16A     -0.787151    17A     -0.766639    18A     -0.751235  
      19A     -0.728740    20A     -0.689150    21A     -0.667354  
      22A     -0.622953    23A     -0.618032    24A     -0.579187  
      25A     -0.574349    26A     -0.568363    27A     -0.515833  
      28A     -0.499023    29A     -0.492579    30A     -0.477497  
      31A     -0.405622    32A     -0.399699  

    Virtual:                                                              

      33A     -0.201238    34A     -0.156007    35A     -0.150948  
      36A     -0.114411    37A     -0.068936    38A     -0.066410  
      39A     -0.037024    40A     -0.032699    41A      0.008497  
      42A      0.015137    43A      0.023622    44A      0.058160  
      45A      0.058911    46A      0.073922    47A      0.140738  
      48A      0.143553    49A      0.163408    50A      0.179553  
      51A      0.200051    52A      0.223456    53A      0.293228  
      54A      0.342686    55A      0.357727    56A      0.382998  
      57A      0.388645    58A      0.398994    59A      0.406227  
      60A      0.426497    61A      0.446101    62A      0.450374  
      63A      0.451221    64A      0.466168    65A      0.476111  
      66A      0.480373    67A      0.483119    68A      0.500275  
      69A      0.514392    70A      0.534215    71A      0.551706  
      72A      0.573950    73A      0.590522    74A      0.645617  
      75A      0.662075    76A      0.676939    77A      0.678852  
      78A      0.688466    79A      0.700188    80A      0.710548  
      81A      0.730220    82A      0.751723    83A      0.778921  
      84A      0.792689    85A      0.813094    86A      0.833952  
      87A      0.852897    88A      0.939567    89A      0.969798  
      90A      1.004549    91A      1.020510    92A      1.026969  
      93A      1.031253    94A      1.080762    95A      1.143778  
      96A      1.198628    97A      1.202859    98A      1.287180  
      99A      1.299121   100A      1.323598   101A      1.330654  
     102A      1.350102   103A      1.360395   104A      1.381709  
     105A      1.443514   106A      1.445474   107A      1.497046  
     108A      1.588727   109A      1.618447   110A      1.661025  
     111A      1.667452   112A      1.740590   113A      1.765232  
     114A      1.795445   115A      1.826326   116A      1.852134  
     117A      1.898054   118A      1.913165   119A      1.966183  
     120A      1.987062   121A      2.001545   122A      2.004066  
     123A      2.041532   124A      2.090305   125A      2.129874  
     126A      2.135940   127A      2.155846   128A      2.168228  
     129A      2.222499   130A      2.273505   131A      2.375494  
     132A      2.387164   133A      2.410734   134A      2.445182  
     135A      2.503762   136A      2.568423   137A      2.583342  
     138A      2.592340   139A      2.603196   140A      2.631525  
     141A      2.718926   142A      2.886186   143A      2.928233  
     144A      3.260676   145A      3.632513   146A      3.639105  
     147A      3.941347   148A      3.969297   149A      3.975240  
     150A      4.104256   151A      4.182899   152A      4.261268  
     153A      4.551856  

    Final Occupation by Irrep:
              A 
    DOCC [    32 ]

  Energy converged.

  @DF-RKS Final Energy:  -381.46544480264726

   => Energetics <=

    Nuclear Repulsion Energy =            416.2212248263872425
    One-Electron Energy =               -1327.7731306399125515
    Two-Electron Energy =                 574.4949422672110586
    DFT Exchange-Correlation Energy =     -44.3967106763330364
    Empirical Dispersion Energy =          -0.0117705800000000
    VV10 Nonlocal Energy =                  0.0000000000000000
    Total Energy =                       -381.4654448026473119



Properties will be evaluated at   0.000000,   0.000000,   0.000000 [a0]

Properties computed using the SCF density matrix

  Nuclear Dipole Moment: [e a0]
     X:    -0.1983      Y:     0.2596      Z:    -0.1673

  Electronic Dipole Moment: [e a0]
     X:     0.2011      Y:    -0.2642      Z:    -2.3384

  Dipole Moment: [e a0]
     X:     0.0028      Y:    -0.0046      Z:    -2.5057     Total:     2.5057

  Dipole Moment: [D]
     X:     0.0072      Y:    -0.0117      Z:    -6.3690     Total:     6.3690


*** tstop() called on oliva.prib.upf.edu at Sat Sep 29 20:44:56 2018
Module time:
	user time   =      72.53 seconds =       1.21 minutes
	system time =       0.55 seconds =       0.01 minutes
	total time  =         21 seconds =       0.35 minutes
Total time:
	user time   =     202.35 seconds =       3.37 minutes
	system time =       1.79 seconds =       0.03 minutes
	total time  =         57 seconds =       0.95 minutes

*** tstart() called on oliva.prib.upf.edu
*** at Sat Sep 29 20:44:56 2018


         ------------------------------------------------------------
                                   SCF GRAD                          
                          Rob Parrish, Justin Turney,                
                       Andy Simmonett, and Alex Sokolov              
         ------------------------------------------------------------

  ==> Geometry <==

    Molecular point group: c1
    Full point group: C1

    Geometry (in Angstrom), charge = 1, multiplicity = 1:

       Center              X                  Y                   Z               Mass       
    ------------   -----------------  -----------------  -----------------  -----------------
         C           -0.018014680153     0.008945610080    -0.175515886368    12.000000000000
         C            0.008024684744     1.225965546805     0.522255226091    12.000000000000
         C            0.025142479447     1.212283146834     1.915624766045    12.000000000000
         C            0.004619860972    -0.002667307029     2.606003831193    12.000000000000
         C           -0.019104983380    -1.212059994580     1.906066367687    12.000000000000
         C           -0.016543330507    -1.214403940496     0.512697872910    12.000000000000
         C           -0.001542931045     0.014198396276    -1.651900288669    12.000000000000
         H            0.033240695951     2.170616995283    -0.016456535692     1.007825032070
         H            0.060719702518     2.150155734643     2.460980641071     1.007825032070
         H            0.011352071668    -0.007120925905     3.691612970112     1.007825032070
         H           -0.041681181664    -2.154454415937     2.443844924271     1.007825032070
         H           -0.036029628856    -2.154440073269    -0.033971510079     1.007825032070
         N           -1.067986309153     0.441403964357    -2.314304203995    14.003074004780
         N            1.065011720314    -0.445391447852    -2.293311398747    14.003074004780
         H            1.132975931845    -0.478351549519    -3.310069184906     1.007825032070
         H            1.840196808606    -0.829011284271    -1.756322302269     1.007825032070
         H           -1.856971005938     0.822418202400    -1.795579834341     1.007825032070
         H           -1.123409905370     0.451913342181    -3.330655454314     1.007825032070

  Nuclear repulsion =  416.221224826387243

  ==> Basis Set <==

  Basis Set: 6-31G*
    Blend: 6-31G*
    Number of shells: 72
    Number of basis function: 153
    Number of Cartesian functions: 153
    Spherical Harmonics?: false
    Max angular momentum: 2

  ==> DFJKGrad: Density-Fitted SCF Gradients <==

    Gradient:                    1
    J tasked:                  Yes
    K tasked:                  Yes
    wK tasked:                  No
    OpenMP threads:              4
    Integrals threads:           4
    Memory (MB):              2002
    Schwarz Cutoff:          0E+00
    Fitting Condition:       1E-12

   => Auxiliary Basis Set <=

  Basis Set: (6-31G* AUX)
    Blend: CC-PVDZ-JKFIT
    Number of shells: 297
    Number of basis function: 954
    Number of Cartesian functions: 954
    Spherical Harmonics?: false
    Max angular momentum: 3

  ==> DFT Potential <==

   => Composite Functional: B3LYP-D3ZERO <= 

    B3LYP-d3zero Hyb-GGA Exchange-Correlation Functional

    P. J. Stephens, F. J. Devlin, C. F. Chabalowski, and M. J. Frisch, J. Phys. Chem. 98, 11623 (1994)

    Deriv               =              1
    GGA                 =           TRUE
    Meta                =          FALSE

    Exchange Hybrid     =           TRUE
    MP2 Hybrid          =          FALSE

   => Exchange Functionals <=

    0.0800   Slater exchange
    0.7200         Becke 88

   => Exact (HF) Exchange <=

    0.2000               HF 

   => Correlation Functionals <=

    0.1900   Vosko, Wilk & Nusair (VWN5_RPA)
    0.8100   Lee, Yang & Parr

   => Molecular Quadrature <=

    Radial Scheme       =       TREUTLER
    Pruning Scheme      =           FLAT
    Nuclear Scheme      =       TREUTLER

    BS radius alpha     =              1
    Pruning alpha       =              1
    Radial Points       =             75
    Spherical Points    =            302
    Total Points        =         397218
    Total Blocks        =           2993
    Max Points          =            256
    Max Functions       =            151


  -Total Gradient:
     Atom            X                  Y                   Z
    ------   -----------------  -----------------  -----------------
       1       -0.003110306988    -0.000993357193    -0.003010104224
       2        0.002462921051    -0.001302014388     0.001034488418
       3       -0.000039713713    -0.000014830911    -0.000536993808
       4       -0.000145422381    -0.000162245862     0.000421006841
       5        0.000149570661    -0.000030998321    -0.000265963011
       6       -0.000889276844     0.001011418159     0.001287432942
       7        0.001885028047     0.004289659588     0.004149381154
       8        0.000085411763     0.000783937671    -0.000298505940
       9        0.000228258649     0.000093859371     0.000102128885
      10        0.000034986018    -0.000004527451     0.000058206441
      11       -0.000216032540     0.000033664392     0.000024106631
      12        0.000174527552    -0.000667723612    -0.000291789151
      13        0.000807832852    -0.005716382705    -0.000689845340
      14       -0.001142375463     0.003446965559     0.000085980012
      15        0.000160799148     0.001441662347    -0.004414519856
      16        0.002644940045    -0.003678308418     0.002711921003
      17       -0.003106942959     0.003282776812     0.002598912738
      18        0.000008403966    -0.001809975558    -0.002965366063


*** tstop() called on oliva.prib.upf.edu at Sat Sep 29 20:45:05 2018
Module time:
	user time   =      30.79 seconds =       0.51 minutes
	system time =       0.30 seconds =       0.01 minutes
	total time  =          9 seconds =       0.15 minutes
Total time:
	user time   =     233.21 seconds =       3.89 minutes
	system time =       2.10 seconds =       0.04 minutes
	total time  =         66 seconds =       1.10 minutes

			-----------------------------------------
			 OPTKING 2.0: for geometry optimizations 
			  - R.A. King,  Bethel University        
			-----------------------------------------
	At level 1: Red. Int., RFO, no backsteps, dynamic trust

	Previous internal coordinate definitions found.
	---Fragment 1 Geometry and Gradient---
	 C          -0.0340428119        0.0169047531       -0.3316769572
	 C           0.0151644565        2.3167391318        0.9869193488
	 C           0.0475124005        2.2908831430        3.6200061812
	 C           0.0087302720       -0.0050404798        4.9246335422
	 C          -0.0361031864       -2.2904614464        3.6019434260
	 C          -0.0312623640       -2.2948908622        0.9688585687
	 C          -0.0029157171        0.0268310805       -3.1216391444
	 H           0.0628158118        4.1018716605       -0.0310983456
	 H           0.1147436086        4.0632054815        4.6505794300
	 H           0.0214523065       -0.0134565998        6.9761375021
	 H          -0.0787660182       -4.0713288119        4.6181976181
	 H          -0.0680861312       -4.0713017082       -0.0641968504
	 N          -2.0182016380        0.8341326066       -4.3734011337
	 N           2.0125804797       -0.8416678584       -4.3337304811
	 H           2.1410142263       -0.9039534238       -6.2551242404
	 H           3.4774679989       -1.5666042883       -3.3189681524
	 H          -3.5091666379        1.5541451692       -3.3931541366
	 H          -2.1229370561        0.8539924525       -6.2940266517
	            -0.0031103070       -0.0009933572       -0.0030101042
	             0.0024629211       -0.0013020144        0.0010344884
	            -0.0000397137       -0.0000148309       -0.0005369938
	            -0.0001454224       -0.0001622459        0.0004210068
	             0.0001495707       -0.0000309983       -0.0002659630
	            -0.0008892768        0.0010114182        0.0012874329
	             0.0018850280        0.0042896596        0.0041493812
	             0.0000854118        0.0007839377       -0.0002985059
	             0.0002282586        0.0000938594        0.0001021289
	             0.0000349860       -0.0000045275        0.0000582064
	            -0.0002160325        0.0000336644        0.0000241066
	             0.0001745276       -0.0006677236       -0.0002917892
	             0.0008078329       -0.0057163827       -0.0006898453
	            -0.0011423755        0.0034469656        0.0000859800
	             0.0001607991        0.0014416623       -0.0044145199
	             0.0026449400       -0.0036783084        0.0027119210
	            -0.0031069430        0.0032827768        0.0025989127
	             0.0000084040       -0.0018099756       -0.0029653661

	---Fragment 1 Intrafragment Coordinates---
	 - Coordinate -           - BOHR/RAD -       - ANG/DEG -
	 R(1,2)           =         2.651482	       1.403104
	 R(1,6)           =         2.652508	       1.403647
	 R(1,7)           =         2.790153	       1.476486
	 R(2,3)           =         2.633412	       1.393542
	 R(2,8)           =         2.055560	       1.087756
	 R(3,4)           =         2.640989	       1.397551
	 R(3,9)           =         2.051275	       1.085488
	 R(4,5)           =         2.640960	       1.397536
	 R(4,10)          =         2.051561	       1.085639
	 R(5,6)           =         2.633093	       1.393373
	 R(5,11)          =         2.050873	       1.085275
	 R(6,12)          =         2.055285	       1.087610
	 R(7,13)          =         2.505997	       1.326117
	 R(7,14)          =         2.507126	       1.326714
	 R(13,17)         =         1.924131	       1.018206
	 R(13,18)         =         1.923582	       1.017916
	 R(14,15)         =         1.926689	       1.019560
	 R(14,16)         =         1.923843	       1.018054
	 B(1,2,3)         =         2.081688	     119.271961
	 B(1,2,8)         =         2.102967	     120.491128
	 B(1,6,5)         =         2.081550	     119.264005
	 B(1,6,12)        =         2.102301	     120.452989
	 B(1,7,13)        =         2.084776	     119.448883
	 B(1,7,14)        =         2.084219	     119.416943
	 B(2,1,6)         =         2.108439	     120.804666
	 B(2,1,7)         =         2.087456	     119.602414
	 B(2,3,4)         =         2.097037	     120.151364
	 B(2,3,9)         =         2.087784	     119.621198
	 B(3,2,8)         =         2.098362	     120.227281
	 B(3,4,5)         =         2.100349	     120.341125
	 B(3,4,10)        =         2.091457	     119.831674
	 B(4,3,9)         =         2.098346	     120.226351
	 B(4,5,6)         =         2.097007	     120.149626
	 B(4,5,11)        =         2.098583	     120.239925
	 B(5,4,10)        =         2.091370	     119.826702
	 B(5,6,12)        =         2.099082	     120.268522
	 B(6,1,7)         =         2.086744	     119.561626
	 B(6,5,11)        =         2.087594	     119.610330
	 B(7,13,17)       =         2.081991	     119.289312
	 B(7,13,18)       =         2.148201	     123.082858
	 B(7,14,15)       =         2.149474	     123.155786
	 B(7,14,16)       =         2.080194	     119.186335
	 B(13,7,14)       =         2.113666	     121.104156
	 B(15,14,16)      =         2.052261	     117.585867
	 B(17,13,18)      =         2.051736	     117.555807
	 D(1,2,3,4)       =        -0.009731	      -0.557522
	 D(1,2,3,9)       =         3.125258	     179.064108
	 D(1,6,5,4)       =        -0.022933	      -1.313976
	 D(1,6,5,11)      =         3.116477	     178.560961
	 D(1,7,13,17)     =         0.076509	       4.383616
	 D(1,7,13,18)     =        -3.120309	    -178.780554
	 D(1,7,14,15)     =         3.128821	     179.268235
	 D(1,7,14,16)     =         0.042437	       2.431455
	 D(2,1,6,5)       =         0.024928	       1.428289
	 D(2,1,6,12)      =        -3.140761	    -179.952344
	*D(2,1,7,13)      =        -1.221730	     -70.000000
	 D(2,1,7,14)      =         1.954253	     111.970442
	 D(2,3,4,5)       =         0.011663	       0.668268
	 D(2,3,4,10)      =        -3.134424	    -179.589268
	 D(3,2,1,6)       =        -0.008608	      -0.493204
	 D(3,2,1,7)       =        -3.114532	    -178.449547
	 D(3,4,5,6)       =         0.004909	       0.281245
	 D(3,4,5,11)      =        -3.134487	    -179.592899
	 D(4,3,2,8)       =        -3.131719	    -179.434267
	 D(4,5,6,12)      =        -3.140475	    -179.935945
	 D(5,4,3,9)       =        -3.123285	    -178.951055
	 D(5,6,1,7)       =         3.130867	     179.385457
	 D(6,1,2,8)       =         3.113327	     178.380506
	 D(6,1,7,13)      =         1.955083	     112.018020
	 D(6,1,7,14)      =        -1.152119	     -66.011538
	 D(6,5,4,10)      =        -3.132189	    -179.461232
	 D(7,1,2,8)       =         0.007403	       0.424163
	 D(7,1,6,12)      =        -0.034822	      -1.995176
	 D(8,2,3,9)       =         0.003270	       0.187364
	 D(9,3,4,10)      =         0.013813	       0.791409
	 D(10,4,5,11)     =         0.011600	       0.664625
	 D(11,5,6,12)     =        -0.001065	      -0.061008
	 D(13,7,14,15)    =         0.022204	       1.272209
	 D(13,7,14,16)    =        -3.064180	    -175.564571
	 D(14,7,13,17)    =        -3.100071	    -177.620988
	 D(14,7,13,18)    =        -0.013704	      -0.785159

	Current energy   :      -381.4654448026

	Energy change for the previous step:
		Projected    :        -0.0046749532
		Actual       :        -0.0028290740

	Performing BFGS update.
	Previous computed or guess Hessian on step 1.
	Steps to be used in Hessian update: 1
	Taking RFO optimization step.
	Going to follow RFO solution 1.
	Using RFO vector 1.
	Norm of target step-size    0.28840
	Projected energy change by RFO approximation:        -0.0000491259

	Back-transformation to cartesian coordinates...
	Could not converge backtransformation.
	Using first guess instead.

	Back-transformation to cartesian coordinates to adjust frozen coordinates...
	Successfully converged to displaced geometry.

	--- Internal Coordinate Step in ANG or DEG, aJ/ANG or AJ/DEG ---
	 ---------------------------------------------------------------------------
	   Coordinate                Previous        Force       Change         New 
	   ----------                --------       ------       ------       ------
	    1 R(1,2)          =      1.403104    -0.000674    -0.000616     1.402488
	    2 R(1,6)          =      1.403647    -0.003216    -0.000704     1.402943
	    3 R(1,7)          =      1.476486     0.012009     0.004384     1.480870
	    4 R(2,3)          =      1.393542     0.000900     0.000575     1.394117
	    5 R(2,8)          =      1.087756    -0.006842    -0.001198     1.086558
	    6 R(3,4)          =      1.397551    -0.000494    -0.000078     1.397473
	    7 R(3,9)          =      1.085488    -0.001151    -0.000126     1.085362
	    8 R(4,5)          =      1.397536     0.001402     0.000200     1.397735
	    9 R(4,10)         =      1.085639    -0.000481    -0.000047     1.085592
	   10 R(5,6)          =      1.393373     0.000734     0.000553     1.393925
	   11 R(5,11)         =      1.085275     0.000104     0.000260     1.085536
	   12 R(6,12)         =      1.087610    -0.005939    -0.001044     1.086566
	   13 R(7,13)         =      1.326117    -0.008248    -0.001468     1.324649
	   14 R(7,14)         =      1.326714    -0.014017    -0.001670     1.325044
	   15 R(13,17)        =      1.018206    -0.040856    -0.003146     1.015060
	   16 R(13,18)        =      1.017916    -0.024237     0.000046     1.017962
	   17 R(14,15)        =      1.019560    -0.035974    -0.001794     1.017765
	   18 R(14,16)        =      1.018054    -0.039802    -0.001364     1.016689
	   19 B(1,2,3)        =    119.271961    -0.000033    -0.180531   119.091429
	   20 B(1,2,8)        =    120.491128     0.000007     0.000185   120.491313
	   21 B(1,6,5)        =    119.264005    -0.000039    -0.214773   119.049232
	   22 B(1,6,12)       =    120.452989     0.000013     0.012707   120.465696
	   23 B(1,7,13)       =    119.448883    -0.000066    -0.336303   119.112580
	   24 B(1,7,14)       =    119.416943    -0.000089    -0.472458   118.944485
	   25 B(2,1,6)        =    120.804666     0.000067     0.325399   121.130065
	   26 B(2,1,7)        =    119.602414    -0.000021    -0.160537   119.441877
	   27 B(2,3,4)        =    120.151364    -0.000015    -0.052024   120.099340
	   28 B(2,3,9)        =    119.621198     0.000005     0.003599   119.624796
	   29 B(3,2,8)        =    120.227281     0.000026     0.186452   120.413732
	   30 B(3,4,5)        =    120.341125     0.000028     0.125133   120.466258
	   31 B(3,4,10)       =    119.831674    -0.000014    -0.060048   119.771626
	   32 B(4,3,9)        =    120.226351     0.000011     0.047750   120.274101
	   33 B(4,5,6)        =    120.149626    -0.000007    -0.022629   120.126997
	   34 B(4,5,11)       =    120.239925     0.000007     0.030880   120.270805
	   35 B(5,4,10)       =    119.826702    -0.000014    -0.065447   119.761254
	   36 B(5,6,12)       =    120.268522     0.000026     0.196154   120.464676
	   37 B(6,1,7)        =    119.561626    -0.000047    -0.302835   119.258791
	   38 B(6,5,11)       =    119.610330     0.000001    -0.008194   119.602136
	   39 B(7,13,17)      =    119.289312    -0.000023    -0.436554   118.852759
	   40 B(7,13,18)      =    123.082858     0.000074     0.450233   123.533091
	   41 B(7,14,15)      =    123.155786     0.000059     0.449907   123.605693
	   42 B(7,14,16)      =    119.186335    -0.000006    -0.437417   118.748918
	   43 B(13,7,14)      =    121.104156     0.000155     0.787008   121.891163
	   44 B(15,14,16)     =    117.585867    -0.000050     0.055130   117.640997
	   45 B(17,13,18)     =    117.555807    -0.000051    -0.006345   117.549462
	   46 D(1,2,3,4)      =     -0.557522     0.000004     0.945605     0.388083
	   47 D(1,2,3,9)      =    179.064108     0.000004     0.842411   179.906519
	   48 D(1,6,5,4)      =     -1.313976     0.000000    -0.107801    -1.421778
	   49 D(1,6,5,11)     =    178.560961     0.000001     0.107270   178.668231
	   50 D(1,7,13,17)    =      4.383616    -0.000023    -4.860826    -0.477210
	   51 D(1,7,13,18)    =   -178.780554    -0.000022    -4.696887  -183.477441
	   52 D(1,7,14,15)    =    179.268235    -0.000021    -4.628119   174.640117
	   53 D(1,7,14,16)    =      2.431455    -0.000032    -7.009979    -4.578523
	   54 D(2,1,6,5)      =      1.428289     0.000003     0.931510     2.359799
	   55 D(2,1,6,12)     =   -179.952344     0.000003     0.677059  -179.275285
	   56 *D(2,1,7,13)    =    -70.000000     0.000000     0.000000   -70.000000
	   57 D(2,1,7,14)     =    111.970442     0.000001     0.596202   112.566644
	   58 D(2,3,4,5)      =      0.668268    -0.000001    -0.148011     0.520257
	   59 D(2,3,4,10)     =   -179.589268    -0.000001    -0.229033  -179.818301
	   60 D(3,2,1,6)      =     -0.493204    -0.000005    -1.350329    -1.843534
	   61 D(3,2,1,7)      =   -178.449547     0.000004     1.369911  -177.079636
	   62 D(3,4,5,6)      =      0.281245    -0.000001    -0.275512     0.005733
	   63 D(3,4,5,11)     =   -179.592899    -0.000002    -0.491984  -180.084882
	   64 D(4,3,2,8)      =   -179.434267     0.000001     0.501998  -178.932269
	   65 D(4,5,6,12)     =   -179.935945     0.000001     0.149234  -179.786711
	   66 D(5,4,3,9)      =   -178.951055    -0.000001    -0.043969  -178.995024
	   67 D(5,6,1,7)      =    179.385457    -0.000006    -1.780984   177.604473
	   68 D(6,1,2,8)      =    178.380506    -0.000002    -0.904228   177.476277
	   69 D(6,1,7,13)     =    112.018020     0.000009     2.655987   114.674007
	   70 D(6,1,7,14)     =    -66.011538     0.000010     3.252189   -62.759349
	   71 D(6,5,4,10)     =   -179.461232    -0.000001    -0.194512  -179.655744
	   72 D(7,1,2,8)      =      0.424163     0.000007     1.816012     2.240175
	   73 D(7,1,6,12)     =     -1.995176    -0.000007    -2.035435    -4.030611
	   74 D(8,2,3,9)      =      0.187364     0.000001     0.398803     0.586166
	   75 D(9,3,4,10)     =      0.791409    -0.000001    -0.124991     0.666418
	   76 D(10,4,5,11)    =      0.664625    -0.000002    -0.410984     0.253641
	   77 D(11,5,6,12)    =     -0.061008     0.000001     0.364306     0.303298
	   78 D(13,7,14,15)   =      1.272209    -0.000018    -3.990995    -2.718786
	   79 D(13,7,14,16)   =   -175.564571    -0.000030    -6.372855  -181.937426
	   80 D(14,7,13,17)   =   -177.620988    -0.000025    -5.501626  -183.122614
	   81 D(14,7,13,18)   =     -0.785159    -0.000024    -5.337687    -6.122845
	 ---------------------------------------------------------------------------
	Successfully symmetrized geometry.

  ==> Convergence Check <==

  Measures of convergence in internal coordinates in au.
  Criteria marked as inactive (o), active & met (*), and active & unmet ( ).
  ---------------------------------------------------------------------------------------------
   Step     Total Energy     Delta E     MAX Force     RMS Force      MAX Disp      RMS Disp   
  ---------------------------------------------------------------------------------------------
    Convergence Criteria    1.00e-06 *    3.00e-04 *             o    1.20e-03 *             o
  ---------------------------------------------------------------------------------------------
      2    -381.46544480   -2.83e-03      4.96e-03      1.17e-03 o    1.22e-01      3.20e-02 o  ~
  ---------------------------------------------------------------------------------------------

	Writing optimization data to binary file.
	Structure for next step:
	Cartesian Geometry (in Angstrom)
	    C    -0.0467801942   0.0108463697  -0.1760022311
	    C    -0.0059133085   1.2281439032   0.5193309855
	    C     0.0214379569   1.2120430799   1.9130868188
	    C     0.0162556324  -0.0048604771   2.6001464014
	    C    -0.0053450936  -1.2141599340   1.8995806679
	    C    -0.0218098740  -1.2150557185   0.5057527281
	    C    -0.0103512487   0.0166040484  -1.6564124463
	    H     0.0154210094   2.1709296359  -0.0203987486
	    H     0.0546644597   2.1490003901   2.4599117728
	    H     0.0346633555  -0.0111460501   3.6855644728
	    H    -0.0079235685  -2.1576207008   2.4364816673
	    H    -0.0421173796  -2.1518643269  -0.0443403832
	    N    -1.0617140925   0.4660877207  -2.3252130511
	    N     1.0535817750  -0.4761892156  -2.2736183851
	    H     1.1210357226  -0.5799455920  -3.2838315686
	    H     1.8461790096  -0.7804159171  -1.7142499271
	    H    -1.8713175387   0.7895028923  -1.8053166243
	    H    -1.0899666228   0.5480998919  -3.3394721492
			--------------------------
			 OPTKING Finished Execution 
			--------------------------

    Structure for next step:
    Molecular point group: c1
    Full point group: C1

    Geometry (in Angstrom), charge = 1, multiplicity = 1:

    C           -0.046780194244     0.010846369743    -0.176002231145
    C           -0.005913308546     1.228143903234     0.519330985505
    C            0.021437956888     1.212043079939     1.913086818779
    C            0.016255632355    -0.004860477109     2.600146401424
    C           -0.005345093578    -1.214159934006     1.899580667853
    C           -0.021809873961    -1.215055718534     0.505752728111
    C           -0.010351248735     0.016604048388    -1.656412446283
    H            0.015421009395     2.170929635862    -0.020398748579
    H            0.054664459659     2.149000390086     2.459911772808
    H            0.034663355547    -0.011146050140     3.685564472824
    H           -0.007923568504    -2.157620700805     2.436481667339
    H           -0.042117379569    -2.151864326860    -0.044340383209
    N           -1.061714092500     0.466087720727    -2.325213051119
    N            1.053581775036    -0.476189215575    -2.273618385133
    H            1.121035722607    -0.579945592018    -3.283831568586
    H            1.846179009572    -0.780415917135    -1.714249927071
    H           -1.871317538660     0.789502892268    -1.805316624315
    H           -1.089966622762     0.548099891936    -3.339472149204

gradient() will perform analytic gradient computation.

*** tstart() called on oliva.prib.upf.edu
*** at Sat Sep 29 20:45:05 2018

   => Loading Basis Set <=

    Name: 6-31G*
    Role: ORBITAL
    Keyword: BASIS
    atoms 1-7         entry C          line   111 file /shared/joao/test_parameterize/miniconda3/share/psi4/basis/6-31gs.gbs 
    atoms 8-12, 15-18 entry H          line    44 file /shared/joao/test_parameterize/miniconda3/share/psi4/basis/6-31gs.gbs 
    atoms 13-14       entry N          line   128 file /shared/joao/test_parameterize/miniconda3/share/psi4/basis/6-31gs.gbs 


         ---------------------------------------------------------
                                   SCF
            by Justin Turney, Rob Parrish, Andy Simmonett
                             and Daniel Smith
                              RKS Reference
                        4 Threads,   2861 MiB Core
         ---------------------------------------------------------

  ==> Geometry <==

    Molecular point group: c1
    Full point group: C1

    Geometry (in Angstrom), charge = 1, multiplicity = 1:

       Center              X                  Y                   Z               Mass       
[...]
	             0.0000363281       -0.0000089989        0.0000104527
	            -0.0000764231        0.0000121423       -0.0000372787
	             0.0048989946        0.0063283303        0.0001603458
	            -0.0000172252       -0.0000008478        0.0000021684
	             0.0000028792       -0.0000011656       -0.0000000823
	            -0.0000012555        0.0000014977        0.0000024459
	             0.0000003314        0.0000015991       -0.0000006541
	             0.0000184283       -0.0000059578        0.0000046065
	            -0.0018927779       -0.0044660757       -0.0000577024
	            -0.0000123532        0.0000408675        0.0000519363
	            -0.0000096374       -0.0000221725       -0.0000038311
	             0.0000049918       -0.0000178317       -0.0000194272
	            -0.0000123217       -0.0000013899       -0.0000144866
	            -0.0000075141        0.0000014275        0.0000081225

	---Fragment 1 Intrafragment Coordinates---
	 - Coordinate -           - BOHR/RAD -       - ANG/DEG -
	 R(1,2)           =         2.652105	       1.403433
	 R(1,6)           =         2.652998	       1.403906
	 R(1,7)           =         2.793498	       1.478256
	 R(2,3)           =         2.633656	       1.393671
	 R(2,8)           =         2.053046	       1.086425
	 R(3,4)           =         2.640785	       1.397443
	 R(3,9)           =         2.050834	       1.085255
	 R(4,5)           =         2.641885	       1.398025
	 R(4,10)          =         2.051549	       1.085633
	 R(5,6)           =         2.632792	       1.393214
	 R(5,11)          =         2.050887	       1.085283
	 R(6,12)          =         2.052928	       1.086363
	 R(7,13)          =         2.504470	       1.325308
	 R(7,14)          =         2.504234	       1.325183
	 R(13,17)         =         1.913297	       1.012473
	 R(13,18)         =         1.917233	       1.014556
	 R(14,15)         =         1.917214	       1.014546
	 R(14,16)         =         1.913190	       1.012417
	 B(1,2,3)         =         2.080135	     119.182961
	 B(1,2,8)         =         2.101847	     120.426935
	 B(1,6,5)         =         2.079223	     119.130719
	 B(1,6,12)        =         2.101387	     120.400591
	 B(1,7,13)        =         2.082394	     119.312367
	 B(1,7,14)        =         2.078817	     119.107434
	 B(2,1,6)         =         2.111490	     120.979476
	 B(2,1,7)         =         2.084528	     119.434651
	 B(2,3,4)         =         2.095524	     120.064667
	 B(2,3,9)         =         2.088858	     119.682731
	 B(3,2,8)         =         2.101171	     120.388222
	 B(3,4,5)         =         2.103031	     120.494798
	 B(3,4,10)        =         2.090223	     119.760951
	 B(4,3,9)         =         2.098779	     120.251201
	 B(4,5,6)         =         2.096166	     120.101488
	 B(4,5,11)        =         2.098393	     120.229075
	 B(5,4,10)        =         2.089917	     119.743431
	 B(5,6,12)        =         2.102181	     120.446091
	 B(6,1,7)         =         2.083266	     119.362347
	 B(6,5,11)        =         2.088618	     119.669001
	 B(7,13,17)       =         2.079803	     119.163920
	 B(7,13,18)       =         2.155523	     123.502364
	 B(7,14,15)       =         2.154678	     123.453949
	 B(7,14,16)       =         2.079949	     119.172296
	 B(13,7,14)       =         2.120497	     121.495532
	 B(15,14,16)      =         2.048340	     117.361239
	 B(17,13,18)      =         2.046949	     117.281514
	 D(1,2,3,4)       =         0.003198	       0.183229
	 D(1,2,3,9)       =         3.137294	     179.753693
	 D(1,6,5,4)       =        -0.031942	      -1.830129
	 D(1,6,5,11)      =         3.113834	     178.409560
	 D(1,7,13,17)     =        -0.020477	      -1.173273
	 D(1,7,13,18)     =         3.073955	     176.124674
	 D(1,7,14,15)     =         3.049706	     174.735285
	 D(1,7,14,16)     =        -0.114965	      -6.587007
	 D(2,1,6,5)       =         0.046349	       2.655627
	 D(2,1,6,12)      =        -3.125287	    -179.065774
	*D(2,1,7,13)      =        -1.221730	     -70.000000
	 D(2,1,7,14)      =         1.977371	     113.295003
	 D(2,3,4,5)       =         0.010769	       0.617045
	 D(2,3,4,10)      =        -3.136589	    -179.713328
	 D(3,2,1,6)       =        -0.031982	      -1.832450
	 D(3,2,1,7)       =        -3.078160	    -176.365556
	 D(3,4,5,6)       =         0.003843	       0.220215
	 D(3,4,5,11)      =         3.141229	     179.979172
	 D(4,3,2,8)       =        -3.129721	    -179.319776
	 D(4,5,6,12)      =         3.139709	     179.892076
	 D(5,4,3,9)       =        -3.123283	    -178.950955
	 D(5,6,1,7)       =         3.092595	     177.192631
	 D(6,1,2,8)       =         3.100933	     177.670359
	 D(6,1,7,13)      =         2.013720	     115.377655
	 D(6,1,7,14)      =        -1.070364	     -61.327343
	 D(6,5,4,10)      =        -3.131984	    -179.449471
	 D(7,1,2,8)       =         0.054755	       3.137253
	 D(7,1,6,12)      =        -0.079042	      -4.528770
	 D(8,2,3,9)       =         0.004375	       0.250687
	 D(9,3,4,10)      =         0.012543	       0.718673
	 D(10,4,5,11)     =         0.005402	       0.309486
	 D(11,5,6,12)     =         0.002300	       0.131765
	 D(13,7,14,15)    =        -0.033076	      -1.895113
	 D(13,7,14,16)    =         3.085438	     176.782595
	 D(14,7,13,17)    =         3.062187	     175.450372
	 D(14,7,13,18)    =        -0.126566	      -7.251681

	Current energy   :      -381.4662661571

	Energy change for the previous step:
		Projected    :        -0.0000038570
		Actual       :        -0.0000014324

	Performing BFGS update.
	Previous computed or guess Hessian on step 1.
	Steps to be used in Hessian update: 5 4
	Taking RFO optimization step.
	Going to follow RFO solution 1.
	Rejecting RFO root 1 because normalization gives large value.
	Using RFO vector 2.
	Norm of target step-size    0.00271
	Projected energy change by RFO approximation:        -0.0000005308

	Back-transformation to cartesian coordinates...
	Successfully converged to displaced geometry.

	Back-transformation to cartesian coordinates to adjust frozen coordinates...
	Successfully converged to displaced geometry.

	--- Internal Coordinate Step in ANG or DEG, aJ/ANG or AJ/DEG ---
	 ---------------------------------------------------------------------------
	   Coordinate                Previous        Force       Change         New 
	   ----------                --------       ------       ------       ------
	    1 R(1,2)          =      1.403433     0.000162     0.000030     1.403464
	    2 R(1,6)          =      1.403906     0.000133     0.000027     1.403933
	    3 R(1,7)          =      1.478256     0.000201     0.000004     1.478260
	    4 R(2,3)          =      1.393671     0.000091     0.000008     1.393679
	    5 R(2,8)          =      1.086425     0.000018     0.000002     1.086428
	    6 R(3,4)          =      1.397443    -0.000078    -0.000010     1.397434
	    7 R(3,9)          =      1.085255     0.000010     0.000002     1.085256
	    8 R(4,5)          =      1.398025    -0.000000     0.000002     1.398027
	    9 R(4,10)         =      1.085633    -0.000018    -0.000004     1.085629
	   10 R(5,6)          =      1.393214    -0.000031    -0.000011     1.393203
	   11 R(5,11)         =      1.085283     0.000013     0.000004     1.085286
	   12 R(6,12)         =      1.086363    -0.000023    -0.000005     1.086358
	   13 R(7,13)         =      1.325308    -0.000070    -0.000003     1.325305
	   14 R(7,14)         =      1.325183     0.000188     0.000027     1.325210
	   15 R(13,17)        =      1.012473    -0.000002     0.000004     1.012477
	   16 R(13,18)        =      1.014556     0.000059     0.000020     1.014576
	   17 R(14,15)        =      1.014546    -0.000041     0.000005     1.014551
	   18 R(14,16)        =      1.012417    -0.000004     0.000012     1.012429
	   19 B(1,2,3)        =    119.182961     0.000001     0.003280   119.186241
	   20 B(1,2,8)        =    120.426935    -0.000000    -0.002030   120.424904
	   21 B(1,6,5)        =    119.130719     0.000001     0.001640   119.132358
	   22 B(1,6,12)       =    120.400591    -0.000001    -0.004837   120.395754
	   23 B(1,7,13)       =    119.312367     0.000001     0.003002   119.315370
	   24 B(1,7,14)       =    119.107434     0.000000     0.000450   119.107884
	   25 B(2,1,6)        =    120.979476    -0.000002    -0.005921   120.973555
	   26 B(2,1,7)        =    119.434651     0.000000    -0.000293   119.434358
	   27 B(2,3,4)        =    120.064667     0.000000     0.000014   120.064681
	   28 B(2,3,9)        =    119.682731    -0.000000    -0.000129   119.682602
	   29 B(3,2,8)        =    120.388222    -0.000000    -0.001592   120.386630
	   30 B(3,4,5)        =    120.494798    -0.000000    -0.001788   120.493010
	   31 B(3,4,10)       =    119.760951     0.000000     0.001584   119.762535
	   32 B(4,3,9)        =    120.251201    -0.000000     0.000285   120.251485
	   33 B(4,5,6)        =    120.101488     0.000001     0.001576   120.103064
	   34 B(4,5,11)       =    120.229075    -0.000000    -0.000868   120.228207
	   35 B(5,4,10)       =    119.743431     0.000000     0.000195   119.743626
	   36 B(5,6,12)       =    120.446091     0.000000     0.001645   120.447736
	   37 B(6,1,7)        =    119.362347     0.000002     0.005942   119.368289
	   38 B(6,5,11)       =    119.669001    -0.000000    -0.000812   119.668190
	   39 B(7,13,17)      =    119.163920    -0.000001    -0.006899   119.157020
	   40 B(7,13,18)      =    123.502364     0.000000     0.001725   123.504089
	   41 B(7,14,15)      =    123.453949     0.000001     0.003581   123.457530
	   42 B(7,14,16)      =    119.172296    -0.000002    -0.009840   119.162456
	   43 B(13,7,14)      =    121.495532    -0.000001    -0.003216   121.492316
	   44 B(15,14,16)     =    117.361239     0.000001     0.004577   117.365816
	   45 B(17,13,18)     =    117.281514     0.000001     0.004456   117.285970
	   46 D(1,2,3,4)      =      0.183229    -0.000000    -0.043973     0.139256
	   47 D(1,2,3,9)      =    179.753693    -0.000000    -0.017200   179.736493
	   48 D(1,6,5,4)      =     -1.830129    -0.000000    -0.052434    -1.882563
	   49 D(1,6,5,11)     =    178.409560    -0.000000    -0.025466   178.384094
	   50 D(1,7,13,17)    =     -1.173273     0.000000     0.010397    -1.162877
	   51 D(1,7,13,18)    =    176.124674    -0.000000    -0.008002   176.116672
	   52 D(1,7,14,15)    =    174.735285     0.000000     0.058027   174.793311
	   53 D(1,7,14,16)    =     -6.587007    -0.000000    -0.027942    -6.614949
	   54 D(2,1,6,5)      =      2.655627     0.000000     0.031821     2.687449
	   55 D(2,1,6,12)     =   -179.065774    -0.000000    -0.026276  -179.092050
	   56 *D(2,1,7,13)    =    -70.000000    -0.000000    -0.000000   -70.000000
	   57 D(2,1,7,14)     =    113.295003    -0.000000    -0.004485   113.290518
	   58 D(2,3,4,5)      =      0.617045     0.000000     0.023825     0.640870
	   59 D(2,3,4,10)     =   -179.713328     0.000000     0.022143  -179.691185
	   60 D(3,2,1,6)      =     -1.832450     0.000000     0.016362    -1.816088
	   61 D(3,2,1,7)      =   -176.365556     0.000000     0.019350  -176.346205
	   62 D(3,4,5,6)      =      0.220215     0.000000     0.025143     0.245358
	   63 D(3,4,5,11)     =    179.979172     0.000000    -0.001977   179.977195
	   64 D(4,3,2,8)      =   -179.319776     0.000000    -0.000650  -179.320426
	   65 D(4,5,6,12)     =    179.892076     0.000000     0.005808   179.897884
	   66 D(5,4,3,9)      =   -178.950955     0.000000    -0.003100  -178.954055
	   67 D(5,6,1,7)      =    177.192631     0.000000     0.028499   177.221130
	   68 D(6,1,2,8)      =    177.670359    -0.000000    -0.026976   177.643383
	   69 D(6,1,7,13)     =    115.377655     0.000000     0.003589   115.381244
	   70 D(6,1,7,14)     =    -61.327343    -0.000000    -0.000895   -61.328238
	   71 D(6,5,4,10)     =   -179.449471     0.000000     0.026821  -179.422650
	   72 D(7,1,2,8)      =      3.137253    -0.000000    -0.023987     3.113265
	   73 D(7,1,6,12)     =     -4.528770    -0.000000    -0.029598    -4.558368
	   74 D(8,2,3,9)      =      0.250687     0.000000     0.026124     0.276811
	   75 D(9,3,4,10)     =      0.718673    -0.000000    -0.004783     0.713890
	   76 D(10,4,5,11)    =      0.309486     0.000000    -0.000299     0.309187
	   77 D(11,5,6,12)    =      0.131765     0.000000     0.032776     0.164541
	   78 D(13,7,14,15)   =     -1.895113     0.000000     0.053225    -1.841888
	   79 D(13,7,14,16)   =    176.782595    -0.000000    -0.032743   176.749852
	   80 D(14,7,13,17)   =    175.450372     0.000000     0.015123   175.465495
	   81 D(14,7,13,18)   =     -7.251681     0.000000    -0.003275    -7.254956
	 ---------------------------------------------------------------------------
	Successfully symmetrized geometry.

  ==> Convergence Check <==

  Measures of convergence in internal coordinates in au.
  Criteria marked as inactive (o), active & met (*), and active & unmet ( ).
  ---------------------------------------------------------------------------------------------
   Step     Total Energy     Delta E     MAX Force     RMS Force      MAX Disp      RMS Disp   
  ---------------------------------------------------------------------------------------------
    Convergence Criteria    1.00e-06 *    3.00e-04 *             o    1.20e-03 *             o
  ---------------------------------------------------------------------------------------------
      6    -381.46626616   -1.43e-06      2.89e-05 *    1.09e-05 o    1.01e-03 *    3.01e-04 o  ~
  ---------------------------------------------------------------------------------------------


  **** Optimization is complete! (in 6 steps) ****

  ==> Optimization Summary <==

  Measures of convergence in internal coordinates in au.
  --------------------------------------------------------------------------------------------------------------- ~
   Step         Total Energy             Delta E       MAX Force       RMS Force        MAX Disp        RMS Disp  ~
  --------------------------------------------------------------------------------------------------------------- ~
      1    -381.462615728652   -381.462615728652      0.00657107      0.00182939      0.14632244      0.04414973  ~
      2    -381.465444802647     -0.002829073995      0.00495907      0.00117324      0.12234721      0.03195122  ~
      3    -381.466181732642     -0.000736929994      0.00372552      0.00072490      0.02318775      0.00613872  ~
      4    -381.466259053624     -0.000077320982      0.00072869      0.00012581      0.01317888      0.00264551  ~
      5    -381.466264724704     -0.000005671080      0.00025030      0.00005939      0.00440564      0.00114809  ~
      6    -381.466266157101     -0.000001432397      0.00002885      0.00001087      0.00101275      0.00030096  ~
  --------------------------------------------------------------------------------------------------------------- ~

	Writing optimization data to binary file.
	Final energy is   -381.4662661571008
	Final (previous) structure:
	Cartesian Geometry (in Angstrom)
	    C    -0.0544792585   0.0113043996  -0.1757441884
	    C    -0.0132000110   1.2282790952   0.5220337925
	    C     0.0218912417   1.2119782369   1.9151670783
	    C     0.0196469850  -0.0054020114   2.6013363275
	    C    -0.0046898248  -1.2147909985   1.9004366201
	    C    -0.0223321807  -1.2147960163   0.5073347278
	    C    -0.0102255310   0.0192355770  -1.6533160455
	    H    -0.0005196296   2.1714448921  -0.0170368655
	    H     0.0579791070   2.1482131231   2.4628348233
	    H     0.0423627320  -0.0122758602   3.6867100038
	    H    -0.0059950043  -2.1577556128   2.4377021548
	    H    -0.0395090593  -2.1513024319  -0.0429782502
	    N    -1.0548229340   0.4726616101  -2.3313005233
	    N     1.0474711859  -0.4886595060  -2.2692961089
	    H     1.1139031944  -0.5876573535  -3.2768125724
	    H     1.8462526734  -0.7796000664  -1.7194875153
	    H    -1.8722715474   0.7891463975  -1.8246283423
	    H    -1.0714621387   0.5599765254  -3.3419551162
	Saving final (previous) structure.
	Removing binary optimization data file.
			--------------------------
			 OPTKING Finished Execution 
			--------------------------

    Final optimized geometry and variables:
    Molecular point group: c1
    Full point group: C1

    Geometry (in Angstrom), charge = 1, multiplicity = 1:

    C           -0.054479258501     0.011304399640    -0.175744188419
    C           -0.013200010978     1.228279095216     0.522033792502
    C            0.021891241740     1.211978236910     1.915167078307
    C            0.019646984992    -0.005402011377     2.601336327538
    C           -0.004689824763    -1.214790998503     1.900436620137
    C           -0.022332180711    -1.214796016267     0.507334727778
    C           -0.010225531027     0.019235577002    -1.653316045519
    H           -0.000519629600     2.171444892118    -0.017036865541
    H            0.057979106952     2.148213123078     2.462834823344
    H            0.042362732004    -0.012275860165     3.686710003828
    H           -0.005995004306    -2.157755612762     2.437702154783
    H           -0.039509059309    -2.151302431910    -0.042978250196
    N           -1.054822934008     0.472661610068    -2.331300523348
    N            1.047471185888    -0.488659506005    -2.269296108917
    H            1.113903194399    -0.587657353506    -3.276812572447
    H            1.846252673400    -0.779600066415    -1.719487515338
    H           -1.872271547432     0.789146397497    -1.824628342308
    H           -1.071462138737     0.559976525381    -3.341955116186

	Removing binary optimization data file.
	Cleaning optimization helper files.


Properties will be evaluated at   0.000000,   0.000000,   0.000000 [a0]
OEProp: No title given, name of density matrix used for the following properties is 'SCF density'
  Nuclear Dipole Moment: [e a0]
     X:    -0.6823      Y:     0.1569      Z:    -0.2576

  Electronic Dipole Moment: [e a0]
     X:     0.7112      Y:    -0.1375      Z:    -2.2172

  Dipole Moment: [e a0]
     X:     0.0289      Y:     0.0195      Z:    -2.4748     Total:     2.4751

  Dipole Moment: [D]
     X:     0.0734      Y:     0.0495      Z:    -6.2903     Total:     6.2910

  Quadrupole Moment: [D A]
    XX:   -44.1074     YY:   -42.9725     ZZ:   -13.5820
    XY:    -4.7232     XZ:     0.2779     YZ:    -0.1510

  Traceless Quadrupole Moment: [D A]
    XX:   -10.5534     YY:    -9.4185     ZZ:    19.9720
    XY:    -4.7232     XZ:     0.2779     YZ:    -0.1510

  Mulliken Charges: (a.u.)
   Center  Symbol    Alpha    Beta     Spin     Total
       1     C     2.98575  2.98575  0.00000  0.02851
       2     C     3.07270  3.07270  0.00000 -0.14540
       3     C     3.06194  3.06194  0.00000 -0.12388
       4     C     3.05310  3.05310  0.00000 -0.10620
       5     C     3.06321  3.06321  0.00000 -0.12641
       6     C     3.07428  3.07428  0.00000 -0.14855
       7     C     2.74219  2.74219  0.00000  0.51562
       8     H     0.41336  0.41336  0.00000  0.17328
       9     H     0.40683  0.40683  0.00000  0.18634
      10     H     0.40598  0.40598  0.00000  0.18803
      11     H     0.40680  0.40680  0.00000  0.18639
      12     H     0.41345  0.41345  0.00000  0.17311
      13     N     3.84807  3.84807  0.00000 -0.69615
      14     N     3.84900  3.84900  0.00000 -0.69800
      15     H     0.30518  0.30518  0.00000  0.38964
      16     H     0.29659  0.29659  0.00000  0.40682
      17     H     0.29621  0.29621  0.00000  0.40758
      18     H     0.30537  0.30537  0.00000  0.38927

   Total alpha = 32.00000, Total beta = 32.00000, Total charge =  1.00000


    Psi4 stopped on: Saturday, 29 September 2018 08:46PM
    Psi4 wall time for execution: 0:02:54.07

*** Psi4 exiting successfully. Buy a developer a beer!
