
    -----------------------------------------------------------------------
          Psi4: An Open-Source Ab Initio Electronic Structure Package
                               Psi4 1.2.1 release

                         Git: Rev {HEAD} 406f4de 


    R. M. Parrish, L. A. Burns, D. G. A. Smith, A. C. Simmonett,
    A. E. DePrince III, E. G. Hohenstein, U. Bozkaya, A. Yu. Sokolov,
    R. Di Remigio, R. M. Richard, J. F. Gonthier, A. M. James,
    H. R. McAlexander, A. Kumar, M. Saitow, X. Wang, B. P. Pritchard,
    P. Verma, H. F. Schaefer III, K. Patkowski, R. A. King, E. F. Valeev,
    F. A. Evangelista, J. M. Turney, T. D. Crawford, and C. D. Sherrill,
    J. Chem. Theory Comput. 13(7) pp 3185--3197 (2017).
    (doi: 10.1021/acs.jctc.7b00174)


                         Additional Contributions by
    P. Kraus, H. Kruse, M. H. Lechner, M. C. Schieber, and R. A. Shaw

    -----------------------------------------------------------------------


    Psi4 started on: Saturday, 29 September 2018 04:49PM

    Process ID: 4199
    Host:       loro.prib.upf.edu
    PSIDATADIR: /shared/joao/test_parameterize/miniconda3/share/psi4
    Memory:     500.0 MiB
    Threads:    1
    
  ==> Input File <==

--------------------------------------------------------------------------
set_num_threads(1)
set_memory('5348 MB')

set { scf_mem_safety_factor 0.7 }

set { reference rks }
set { basis cc-pVDZ }

molecule MOL {
    0 1
    noreorient
    nocom
    symmetry c1
    O    1.141000   0.017000   0.083000
    C    2.558000   0.086000  -0.005000
    C    3.192000  -0.789000   1.067000
    O    3.812720   0.023085   2.056239
    H    0.789000   0.590000  -0.620000
    H    2.874000   1.128000   0.115000
    H    2.871000  -0.243000  -1.001000
    H    3.942056  -1.452227   0.624866
    H    2.432594  -1.417624   1.545554
    H    4.199067  -0.583491   2.711744
}

set optking { frozen_dihedral = (" 1 2 3 4 ") }

energy, wfn = energy('B3LYP-D3', return_wfn=True)

import os
os.chdir(os.environ['HTMD_PSI4_WORKDIR'])

oeprop(wfn, 'DIPOLE', 'QUADRUPOLE', 'MULLIKEN_CHARGES')

with open('psi4out.xyz', 'w') as f:
    f.write('10 ' )
    f.write('%.12f\n' % energy)
    f.write(MOL.save_string_xyz())
--------------------------------------------------------------------------
  Threads set to 1 by Python driver.

  Memory set to   4.981 GiB by Python driver.

*** tstart() called on loro.prib.upf.edu
*** at Sat Sep 29 16:49:18 2018

   => Loading Basis Set <=

    Name: CC-PVDZ
    Role: ORBITAL
    Keyword: BASIS
    atoms 1, 4 entry O          line   198 file /shared/joao/test_parameterize/miniconda3/share/psi4/basis/cc-pvdz.gbs 
    atoms 2-3  entry C          line   138 file /shared/joao/test_parameterize/miniconda3/share/psi4/basis/cc-pvdz.gbs 
    atoms 5-10 entry H          line    22 file /shared/joao/test_parameterize/miniconda3/share/psi4/basis/cc-pvdz.gbs 


         ---------------------------------------------------------
                                   SCF
            by Justin Turney, Rob Parrish, Andy Simmonett
                             and Daniel Smith
                              RKS Reference
                        1 Threads,   5100 MiB Core
         ---------------------------------------------------------

  ==> Geometry <==

    Molecular point group: c1
    Full point group: C1

    Geometry (in Angstrom), charge = 0, multiplicity = 1:

       Center              X                  Y                   Z               Mass       
    ------------   -----------------  -----------------  -----------------  -----------------
         O            1.141000000000     0.017000000000     0.083000000000    15.994914619560
         C            2.558000000000     0.086000000000    -0.005000000000    12.000000000000
         C            3.192000000000    -0.789000000000     1.067000000000    12.000000000000
         O            3.812720000000     0.023085000000     2.056239000000    15.994914619560
         H            0.789000000000     0.590000000000    -0.620000000000     1.007825032070
         H            2.874000000000     1.128000000000     0.115000000000     1.007825032070
         H            2.871000000000    -0.243000000000    -1.001000000000     1.007825032070
         H            3.942056000000    -1.452227000000     0.624866000000     1.007825032070
         H            2.432594000000    -1.417624000000     1.545554000000     1.007825032070
         H            4.199067000000    -0.583491000000     2.711744000000     1.007825032070

  Running in c1 symmetry.

  Rotational constants: A =      0.46882  B =      0.02844  C =      0.02780 [cm^-1]
  Rotational constants: A =  14054.89685  B =    852.46989  C =    833.51034 [MHz]
  Nuclear repulsion =  130.323011533949682

  Charge       = 0
  Multiplicity = 1
  Electrons    = 34
  Nalpha       = 17
  Nbeta        = 17

  ==> Algorithm <==

  SCF Algorithm Type is DF.
  DIIS enabled.
  MOM disabled.
  Fractional occupation disabled.
  Guess Type is SAD.
  Energy threshold   = 1.00e-06
  Density threshold  = 1.00e-06
  Integral threshold = 0.00e+00

  ==> Primary Basis <==

  Basis Set: CC-PVDZ
    Blend: CC-PVDZ
    Number of shells: 42
    Number of basis function: 86
    Number of Cartesian functions: 90
    Spherical Harmonics?: true
    Max angular momentum: 2

  ==> DFT Potential <==

   => Composite Functional: B3LYP-D3ZERO <= 

    B3LYP-d3zero Hyb-GGA Exchange-Correlation Functional

    P. J. Stephens, F. J. Devlin, C. F. Chabalowski, and M. J. Frisch, J. Phys. Chem. 98, 11623 (1994)

    Deriv               =              1
    GGA                 =           TRUE
    Meta                =          FALSE

    Exchange Hybrid     =           TRUE
    MP2 Hybrid          =          FALSE

   => Exchange Functionals <=

    0.0800   Slater exchange
    0.7200         Becke 88

   => Exact (HF) Exchange <=

    0.2000               HF 

   => Correlation Functionals <=

    0.1900   Vosko, Wilk & Nusair (VWN5_RPA)
    0.8100   Lee, Yang & Parr

   => Molecular Quadrature <=

    Radial Scheme       =       TREUTLER
    Pruning Scheme      =           FLAT
    Nuclear Scheme      =       TREUTLER

    BS radius alpha     =              1
    Pruning alpha       =              1
    Radial Points       =             75
    Spherical Points    =            302
    Total Points        =         222558
    Total Blocks        =           1723
    Max Points          =            256
    Max Functions       =             86

   => -D3ZERO: Empirical Dispersion <=

    Grimme's -D3 (zero-damping) Dispersion Correction
    Grimme S.; Antony J.; Ehrlich S.; Krieg H. (2010), J. Chem. Phys., 132: 154104

        S6 =   1.000000E+00
        S8 =   1.703000E+00
       SR6 =   1.261000E+00
       SR8 =   1.000000E+00
    ALPHA6 =   1.400000E+01

   => Loading Basis Set <=

    Name: (CC-PVDZ AUX)
    Role: JKFIT
    Keyword: DF_BASIS_SCF
    atoms 1, 4 entry O          line   221 file /shared/joao/test_parameterize/miniconda3/share/psi4/basis/cc-pvdz-jkfit.gbs 
    atoms 2-3  entry C          line   121 file /shared/joao/test_parameterize/miniconda3/share/psi4/basis/cc-pvdz-jkfit.gbs 
    atoms 5-10 entry H          line    51 file /shared/joao/test_parameterize/miniconda3/share/psi4/basis/cc-pvdz-jkfit.gbs 

  ==> Pre-Iterations <==

   -------------------------------------------------------
    Irrep   Nso     Nmo     Nalpha   Nbeta   Ndocc  Nsocc
   -------------------------------------------------------
     A         86      86       0       0       0       0
   -------------------------------------------------------
    Total      86      86      17      17      17       0
   -------------------------------------------------------

  ==> Integral Setup <==

  DFHelper Memory: AOs need 0.030 [GiB]; user supplied 3.486 [GiB]. Using in-core AOs.

  ==> MemDFJK: Density-Fitted J/K Matrices <==

    J tasked:                   Yes
    K tasked:                   Yes
    wK tasked:                   No
    OpenMP threads:               1
    Memory (MB):               3570
    Algorithm:                 Core
    Schwarz Cutoff:           1E-12
    Mask sparsity (%):       0.1893
    Fitting Condition:        1E-12

   => Auxiliary Basis Set <=

  Basis Set: (CC-PVDZ AUX)
    Blend: CC-PVDZ-JKFIT
    Number of shells: 150
    Number of basis function: 418
    Number of Cartesian functions: 474
    Spherical Harmonics?: true
    Max angular momentum: 3

  Minimum eigenvalue in the overlap matrix is 4.9616436841E-03.
  Using Symmetric Orthogonalization.

  SCF Guess: Superposition of Atomic Densities via on-the-fly atomic UHF.

  ==> Iterations <==

                           Total Energy        Delta E     RMS |[F,P]|

   @DF-RKS iter   0:  -230.89602150961719   -2.30896e+02   4.02665e-02 
   @DF-RKS iter   1:  -230.16956883079524    7.26453e-01   5.22857e-03 
   @DF-RKS iter   2:  -230.12398270137314    4.55861e-02   6.80991e-03 DIIS
   @DF-RKS iter   3:  -230.25209041659167   -1.28108e-01   7.11410e-04 DIIS
   @DF-RKS iter   4:  -230.25335869652878   -1.26828e-03   2.79899e-04 DIIS
   @DF-RKS iter   5:  -230.25362681766171   -2.68121e-04   4.52095e-05 DIIS
   @DF-RKS iter   6:  -230.25363374924669   -6.93158e-06   5.46433e-06 DIIS
   @DF-RKS iter   7:  -230.25363384173690   -9.24902e-08   2.42247e-06 DIIS
   @DF-RKS iter   8:  -230.25363385664073   -1.49038e-08   9.17024e-07 DIIS

  ==> Post-Iterations <==

    Orbital Energies [Eh]
    ---------------------

    Doubly Occupied:                                                      

       1A    -19.127648     2A    -19.127613     3A    -10.225534  
       4A    -10.225348     5A     -1.016990     6A     -1.004094  
       7A     -0.732901     8A     -0.603156     9A     -0.518573  
      10A     -0.507923    11A     -0.432837    12A     -0.412138  
      13A     -0.410219    14A     -0.345696    15A     -0.319717  
      16A     -0.266787    17A     -0.254887  

    Virtual:                                                              

      18A      0.051951    19A      0.055399    20A      0.105502  
      21A      0.123666    22A      0.128241    23A      0.148090  
      24A      0.195446    25A      0.230982    26A      0.240888  
      27A      0.467796    28A      0.490436    29A      0.492604  
      30A      0.507946    31A      0.536735    32A      0.594815  
      33A      0.601177    34A      0.621974    35A      0.644716  
      36A      0.648565    37A      0.688738    38A      0.691803  
      39A      0.834955    40A      0.843710    41A      0.922964  
      42A      0.982994    43A      0.997660    44A      1.044070  
      45A      1.059769    46A      1.204316    47A      1.207465  
      48A      1.237071    49A      1.307165    50A      1.320629  
      51A      1.343110    52A      1.363140    53A      1.498207  
      54A      1.513343    55A      1.567436    56A      1.568258  
      57A      1.613305    58A      1.633566    59A      1.639103  
      60A      1.737964    61A      1.742869    62A      1.798775  
      63A      1.865569    64A      1.908195    65A      1.967328  
      66A      1.980498    67A      2.024273    68A      2.041388  
      69A      2.103296    70A      2.173067    71A      2.199653  
      72A      2.268530    73A      2.406840    74A      2.425825  
      75A      2.476937    76A      2.517831    77A      2.919185  
      78A      2.949378    79A      2.974066    80A      3.050551  
      81A      3.096809    82A      3.115513    83A      3.185284  
      84A      3.198047    85A      3.679758    86A      3.695644  

    Final Occupation by Irrep:
              A 
    DOCC [    17 ]

  Energy converged.

  @DF-RKS Final Energy:  -230.25363385664073

   => Energetics <=

    Nuclear Repulsion Energy =            130.3230115339496820
    One-Electron Energy =                -572.4551734241417762
    Two-Electron Energy =                 236.4240313371907973
    DFT Exchange-Correlation Energy =     -24.5412510236394432
    Empirical Dispersion Energy =          -0.0042522800000000
    VV10 Nonlocal Energy =                  0.0000000000000000
    Total Energy =                       -230.2536338566407323



Properties will be evaluated at   0.000000,   0.000000,   0.000000 [a0]

Properties computed using the SCF density matrix

  Nuclear Dipole Moment: [e a0]
     X:   172.4138      Y:   -11.1034      Z:    50.7620

  Electronic Dipole Moment: [e a0]
     X:  -172.1442      Y:    10.8504      Z:   -51.1287

  Dipole Moment: [e a0]
     X:     0.2697      Y:    -0.2530      Z:    -0.3668     Total:     0.5208

  Dipole Moment: [D]
     X:     0.6854      Y:    -0.6430      Z:    -0.9322     Total:     1.3237


*** tstop() called on loro.prib.upf.edu at Sat Sep 29 16:49:33 2018
Module time:
	user time   =      12.89 seconds =       0.21 minutes
	system time =       0.22 seconds =       0.00 minutes
	total time  =         15 seconds =       0.25 minutes
Total time:
	user time   =      12.89 seconds =       0.21 minutes
	system time =       0.22 seconds =       0.00 minutes
	total time  =         15 seconds =       0.25 minutes


Properties will be evaluated at   0.000000,   0.000000,   0.000000 [a0]
OEProp: No title given, name of density matrix used for the following properties is 'SCF density'
  Nuclear Dipole Moment: [e a0]
     X:   172.4138      Y:   -11.1034      Z:    50.7620

  Electronic Dipole Moment: [e a0]
     X:  -172.1442      Y:    10.8504      Z:   -51.1287

  Dipole Moment: [e a0]
     X:     0.2697      Y:    -0.2530      Z:    -0.3668     Total:     0.5208

  Dipole Moment: [D]
     X:     0.6854      Y:    -0.6430      Z:    -0.9322     Total:     1.3237

  Quadrupole Moment: [D A]
    XX:   -21.2730     YY:   -23.3380     ZZ:   -21.9099
    XY:    -5.6161     XZ:     1.1138     YZ:    -4.5408

  Traceless Quadrupole Moment: [D A]
    XX:     0.9006     YY:    -1.1644     ZZ:     0.2638
    XY:    -5.6161     XZ:     1.1138     YZ:    -4.5408

  Mulliken Charges: (a.u.)
   Center  Symbol    Alpha    Beta     Spin     Total
       1     O     4.13958  4.13958  0.00000 -0.27917
       2     C     2.93222  2.93222  0.00000  0.13556
       3     C     2.93241  2.93241  0.00000  0.13519
       4     O     4.13983  4.13983  0.00000 -0.27965
       5     H     0.43080  0.43080  0.00000  0.13840
       6     H     0.49400  0.49400  0.00000  0.01200
       7     H     0.50333  0.50333  0.00000 -0.00666
       8     H     0.50319  0.50319  0.00000 -0.00637
       9     H     0.49390  0.49390  0.00000  0.01220
      10     H     0.43075  0.43075  0.00000  0.13850

   Total alpha = 17.00000, Total beta = 17.00000, Total charge =  0.00000


    Psi4 stopped on: Saturday, 29 September 2018 04:49PM
    Psi4 wall time for execution: 0:00:15.55

*** Psi4 exiting successfully. Buy a developer a beer!
