
    -----------------------------------------------------------------------
          Psi4: An Open-Source Ab Initio Electronic Structure Package
                               Psi4 1.2.1 release

                         Git: Rev {HEAD} 406f4de 


    R. M. Parrish, L. A. Burns, D. G. A. Smith, A. C. Simmonett,
    A. E. DePrince III, E. G. Hohenstein, U. Bozkaya, A. Yu. Sokolov,
    R. Di Remigio, R. M. Richard, J. F. Gonthier, A. M. James,
    H. R. McAlexander, A. Kumar, M. Saitow, X. Wang, B. P. Pritchard,
    P. Verma, H. F. Schaefer III, K. Patkowski, R. A. King, E. F. Valeev,
    F. A. Evangelista, J. M. Turney, T. D. Crawford, and C. D. Sherrill,
    J. Chem. Theory Comput. 13(7) pp 3185--3197 (2017).
    (doi: 10.1021/acs.jctc.7b00174)


                         Additional Contributions by
    P. Kraus, H. Kruse, M. H. Lechner, M. C. Schieber, and R. A. Shaw

    -----------------------------------------------------------------------


    Psi4 started on: Saturday, 29 September 2018 08:51PM

    Process ID: 1581
    Host:       arancio.prib.upf.edu
    PSIDATADIR: /shared/joao/test_parameterize/miniconda3/share/psi4
    Memory:     500.0 MiB
    Threads:    1
    
  ==> Input File <==

--------------------------------------------------------------------------
set_num_threads(4)
set_memory('3000 MB')

set { scf_mem_safety_factor 0.7 }

set { reference rks }
set { basis 6-31G* }

molecule MOL {
    1 1
    noreorient
    nocom
    symmetry c1
    C   -0.000000  -0.000000  -0.177864
    C    0.036678   1.219374   0.524165
    C    0.031765   1.213120   1.915444
    C    0.000000   0.000000   2.610107
    C   -0.031765  -1.213120   1.915444
    C   -0.036678  -1.219375   0.524165
    C   -0.000000   0.000000  -1.644734
    H    0.018170   2.164705  -0.010854
    H    0.042402   2.152895   2.457886
    H    0.000000   0.000000   3.695756
    H   -0.042402  -2.152895   2.457886
    H   -0.018170  -2.164705  -0.010853
    N    0.860283  -0.767101  -2.308461
    N   -0.860283   0.767101  -2.308460
    H   -0.963025   0.734216  -3.315997
    H   -1.398215   1.466204  -1.813316
    H    1.398215  -1.466204  -1.813317
    H    0.963026  -0.734216  -3.315997
}

set optking { frozen_dihedral = (" 2 1 7 13 ") }

set optking { dynamic_level = 1 
 geom_maxiter = 250
 print_trajectory_xyz_file = True }

energy, wfn = optimize('B3LYP-D3', return_wfn=True)

import os
os.chdir(os.environ['HTMD_PSI4_WORKDIR'])

oeprop(wfn, 'DIPOLE', 'QUADRUPOLE', 'MULLIKEN_CHARGES')

with open('psi4out.xyz', 'w') as f:
    f.write('18 ' )
    f.write('%.12f\n' % energy)
    f.write(MOL.save_string_xyz())
--------------------------------------------------------------------------
  Threads set to 4 by Python driver.

  Memory set to   2.794 GiB by Python driver.
gradient() will perform analytic gradient computation.

*** tstart() called on arancio.prib.upf.edu
*** at Sat Sep 29 20:51:18 2018

   => Loading Basis Set <=

    Name: 6-31G*
    Role: ORBITAL
    Keyword: BASIS
    atoms 1-7         entry C          line   111 file /shared/joao/test_parameterize/miniconda3/share/psi4/basis/6-31gs.gbs 
    atoms 8-12, 15-18 entry H          line    44 file /shared/joao/test_parameterize/miniconda3/share/psi4/basis/6-31gs.gbs 
    atoms 13-14       entry N          line   128 file /shared/joao/test_parameterize/miniconda3/share/psi4/basis/6-31gs.gbs 


         ---------------------------------------------------------
                                   SCF
            by Justin Turney, Rob Parrish, Andy Simmonett
                             and Daniel Smith
                              RKS Reference
                        4 Threads,   2861 MiB Core
         ---------------------------------------------------------

  ==> Geometry <==

    Molecular point group: c1
    Full point group: C1

    Geometry (in Angstrom), charge = 1, multiplicity = 1:

       Center              X                  Y                   Z               Mass       
    ------------   -----------------  -----------------  -----------------  -----------------
         C            0.000000000000     0.000000000000    -0.177864000000    12.000000000000
         C            0.036678000000     1.219374000000     0.524165000000    12.000000000000
         C            0.031765000000     1.213120000000     1.915444000000    12.000000000000
         C            0.000000000000     0.000000000000     2.610107000000    12.000000000000
         C           -0.031765000000    -1.213120000000     1.915444000000    12.000000000000
         C           -0.036678000000    -1.219375000000     0.524165000000    12.000000000000
         C            0.000000000000     0.000000000000    -1.644734000000    12.000000000000
         H            0.018170000000     2.164705000000    -0.010854000000     1.007825032070
         H            0.042402000000     2.152895000000     2.457886000000     1.007825032070
         H            0.000000000000     0.000000000000     3.695756000000     1.007825032070
         H           -0.042402000000    -2.152895000000     2.457886000000     1.007825032070
         H           -0.018170000000    -2.164705000000    -0.010853000000     1.007825032070
         N            0.860283000000    -0.767101000000    -2.308461000000    14.003074004780
         N           -0.860283000000     0.767101000000    -2.308460000000    14.003074004780
         H           -0.963025000000     0.734216000000    -3.315997000000     1.007825032070
         H           -1.398215000000     1.466204000000    -1.813316000000     1.007825032070
         H            1.398215000000    -1.466204000000    -1.813317000000     1.007825032070
         H            0.963026000000    -0.734216000000    -3.315997000000     1.007825032070

  Running in c1 symmetry.

  Rotational constants: A =      0.12190  B =      0.03879  C =      0.03180 [cm^-1]
  Rotational constants: A =   3654.48648  B =   1162.94515  C =    953.25381 [MHz]
  Nuclear repulsion =  416.581046923819429

  Charge       = 1
  Multiplicity = 1
  Electrons    = 64
  Nalpha       = 32
  Nbeta        = 32

  ==> Algorithm <==

  SCF Algorithm Type is DF.
  DIIS enabled.
  MOM disabled.
  Fractional occupation disabled.
  Guess Type is SAD.
  Energy threshold   = 1.00e-08
  Density threshold  = 1.00e-08
  Integral threshold = 0.00e+00

  ==> Primary Basis <==

  Basis Set: 6-31G*
    Blend: 6-31G*
    Number of shells: 72
    Number of basis function: 153
    Number of Cartesian functions: 153
    Spherical Harmonics?: false
    Max angular momentum: 2

  ==> DFT Potential <==

   => Composite Functional: B3LYP-D3ZERO <= 

    B3LYP-d3zero Hyb-GGA Exchange-Correlation Functional

    P. J. Stephens, F. J. Devlin, C. F. Chabalowski, and M. J. Frisch, J. Phys. Chem. 98, 11623 (1994)

    Deriv               =              1
    GGA                 =           TRUE
    Meta                =          FALSE

    Exchange Hybrid     =           TRUE
    MP2 Hybrid          =          FALSE

   => Exchange Functionals <=

    0.0800   Slater exchange
    0.7200         Becke 88

   => Exact (HF) Exchange <=

    0.2000               HF 

   => Correlation Functionals <=

    0.1900   Vosko, Wilk & Nusair (VWN5_RPA)
    0.8100   Lee, Yang & Parr

   => Molecular Quadrature <=

    Radial Scheme       =       TREUTLER
    Pruning Scheme      =           FLAT
    Nuclear Scheme      =       TREUTLER

    BS radius alpha     =              1
    Pruning alpha       =              1
    Radial Points       =             75
    Spherical Points    =            302
    Total Points        =         396988
    Total Blocks        =           2994
    Max Points          =            256
    Max Functions       =            149

   => -D3ZERO: Empirical Dispersion <=

    Grimme's -D3 (zero-damping) Dispersion Correction
    Grimme S.; Antony J.; Ehrlich S.; Krieg H. (2010), J. Chem. Phys., 132: 154104

        S6 =   1.000000E+00
        S8 =   1.703000E+00
       SR6 =   1.261000E+00
       SR8 =   1.000000E+00
    ALPHA6 =   1.400000E+01

   => Loading Basis Set <=

    Name: (6-31G* AUX)
    Role: JKFIT
    Keyword: DF_BASIS_SCF
    atoms 1-7         entry C          line   121 file /shared/joao/test_parameterize/miniconda3/share/psi4/basis/cc-pvdz-jkfit.gbs 
    atoms 8-12, 15-18 entry H          line    51 file /shared/joao/test_parameterize/miniconda3/share/psi4/basis/cc-pvdz-jkfit.gbs 
    atoms 13-14       entry N          line   171 file /shared/joao/test_parameterize/miniconda3/share/psi4/basis/cc-pvdz-jkfit.gbs 

  ==> Pre-Iterations <==

   -------------------------------------------------------
    Irrep   Nso     Nmo     Nalpha   Nbeta   Ndocc  Nsocc
   -------------------------------------------------------
     A        153     153       0       0       0       0
   -------------------------------------------------------
    Total     153     153      32      32      32       0
   -------------------------------------------------------

  ==> Integral Setup <==

  ==> DiskDFJK: Density-Fitted J/K Matrices <==

    J tasked:                  Yes
    K tasked:                  Yes
    wK tasked:                  No
    OpenMP threads:              4
    Integrals threads:           4
    Memory (MB):              2002
    Algorithm:                Core
    Integral Cache:           NONE
    Schwarz Cutoff:          1E-12
    Fitting Condition:       1E-12

   => Auxiliary Basis Set <=

  Basis Set: (6-31G* AUX)
    Blend: CC-PVDZ-JKFIT
    Number of shells: 297
    Number of basis function: 954
    Number of Cartesian functions: 954
    Spherical Harmonics?: false
    Max angular momentum: 3

  Minimum eigenvalue in the overlap matrix is 4.8708098146E-04.
  Using Symmetric Orthogonalization.

  SCF Guess: Superposition of Atomic Densities via on-the-fly atomic UHF.

  ==> Iterations <==

                           Total Energy        Delta E     RMS |[F,P]|

   @DF-RKS iter   0:  -379.51163193487008   -3.79512e+02   6.68675e-02 
   @DF-RKS iter   1:  -381.01625185962558   -1.50462e+00   1.23316e-02 
   @DF-RKS iter   2:  -380.91182704484800    1.04425e-01   1.35766e-02 DIIS
   @DF-RKS iter   3:  -381.45441056931151   -5.42584e-01   1.97738e-03 DIIS
   @DF-RKS iter   4:  -381.46276129864668   -8.35073e-03   9.15328e-04 DIIS
   @DF-RKS iter   5:  -381.46479927816932   -2.03798e-03   2.45079e-04 DIIS
   @DF-RKS iter   6:  -381.46494825070391   -1.48973e-04   7.60997e-05 DIIS
   @DF-RKS iter   7:  -381.46496373432177   -1.54836e-05   1.54563e-05 DIIS
   @DF-RKS iter   8:  -381.46496432569944   -5.91378e-07   6.96366e-06 DIIS
   @DF-RKS iter   9:  -381.46496448138123   -1.55682e-07   2.16703e-06 DIIS
   @DF-RKS iter  10:  -381.46496449505202   -1.36708e-08   6.19495e-07 DIIS
   @DF-RKS iter  11:  -381.46496449617717   -1.12516e-09   9.76777e-08 DIIS
   @DF-RKS iter  12:  -381.46496449619343   -1.62572e-11   7.14516e-08 DIIS
   @DF-RKS iter  13:  -381.46496449620895   -1.55183e-11   1.76214e-08 DIIS
   @DF-RKS iter  14:  -381.46496449621020   -1.25056e-12   8.24894e-09 DIIS

  ==> Post-Iterations <==

    Orbital Energies [Eh]
    ---------------------

    Doubly Occupied:                                                      

       1A    -14.571880     2A    -14.571873     3A    -10.501673  
       4A    -10.372609     5A    -10.354500     6A    -10.354492  
       7A    -10.338950     8A    -10.338307     9A    -10.338081  
      10A     -1.187300    11A     -1.095151    12A     -1.012774  
      13A     -0.926216    14A     -0.900396    15A     -0.846598  
      16A     -0.787440    17A     -0.772797    18A     -0.745110  
      19A     -0.732643    20A     -0.691075    21A     -0.668957  
      22A     -0.625023    23A     -0.619781    24A     -0.584435  
      25A     -0.577374    26A     -0.573668    27A     -0.515775  
      28A     -0.504751    29A     -0.496271    30A     -0.474196  
      31A     -0.407398    32A     -0.403506  

    Virtual:                                                              

      33A     -0.210474    34A     -0.155582    35A     -0.146468  
      36A     -0.110477    37A     -0.070542    38A     -0.063607  
      39A     -0.038808    40A     -0.036019    41A      0.009827  
      42A      0.021863    43A      0.022368    44A      0.060617  
      45A      0.063090    46A      0.076393    47A      0.127729  
      48A      0.154861    49A      0.159569    50A      0.163049  
      51A      0.205219    52A      0.232204    53A      0.296452  
      54A      0.346514    55A      0.354684    56A      0.377329  
      57A      0.388928    58A      0.397843    59A      0.413125  
      60A      0.424541    61A      0.447444    62A      0.448278  
      63A      0.449180    64A      0.470695    65A      0.471595  
      66A      0.476815    67A      0.483933    68A      0.508212  
      69A      0.521248    70A      0.532262    71A      0.542982  
      72A      0.572299    73A      0.606012    74A      0.654398  
      75A      0.656929    76A      0.679308    77A      0.685170  
      78A      0.706450    79A      0.714897    80A      0.715991  
      81A      0.740658    82A      0.766875    83A      0.777175  
      84A      0.795797    85A      0.813533    86A      0.838114  
      87A      0.850008    88A      0.936800    89A      0.970959  
      90A      0.996740    91A      1.004527    92A      1.023556  
      93A      1.025447    94A      1.059118    95A      1.137707  
      96A      1.188457    97A      1.224109    98A      1.272286  
      99A      1.277417   100A      1.318641   101A      1.323780  
     102A      1.340966   103A      1.362005   104A      1.373545  
     105A      1.405288   106A      1.449229   107A      1.499944  
     108A      1.612638   109A      1.633099   110A      1.651528  
     111A      1.676800   112A      1.737690   113A      1.755714  
     114A      1.803344   115A      1.822402   116A      1.854156  
     117A      1.894577   118A      1.904668   119A      1.951484  
     120A      1.978541   121A      1.997005   122A      2.017246  
     123A      2.037685   124A      2.081661   125A      2.133893  
     126A      2.149241   127A      2.152516   128A      2.171080  
     129A      2.222737   130A      2.256329   131A      2.360068  
     132A      2.368975   133A      2.428887   134A      2.450858  
     135A      2.494403   136A      2.552235   137A      2.555431  
     138A      2.590856   139A      2.609272   140A      2.628943  
     141A      2.731936   142A      2.882428   143A      2.962977  
     144A      3.257945   145A      3.633777   146A      3.647636  
     147A      3.925971   148A      3.956243   149A      3.967389  
     150A      4.073713   151A      4.178906   152A      4.258087  
     153A      4.546198  

    Final Occupation by Irrep:
              A 
    DOCC [    32 ]

  Energy converged.

  @DF-RKS Final Energy:  -381.46496449621020

   => Energetics <=

    Nuclear Repulsion Energy =            416.5810469238194287
    One-Electron Energy =               -1328.3633248945652667
    Two-Electron Energy =                 574.7333170659572943
    DFT Exchange-Correlation Energy =     -44.4040487614217199
    Empirical Dispersion Energy =          -0.0119548300000000
    VV10 Nonlocal Energy =                  0.0000000000000000
    Total Energy =                       -381.4649644962102002



Properties will be evaluated at   0.000000,   0.000000,   0.000000 [a0]

Properties computed using the SCF density matrix

  Nuclear Dipole Moment: [e a0]
     X:     0.0000      Y:    -0.0000      Z:     0.0248

  Electronic Dipole Moment: [e a0]
     X:    -0.0000      Y:     0.0000      Z:    -2.4169

  Dipole Moment: [e a0]
     X:    -0.0000      Y:     0.0000      Z:    -2.3921     Total:     2.3921

  Dipole Moment: [D]
     X:    -0.0000      Y:     0.0000      Z:    -6.0801     Total:     6.0801


*** tstop() called on arancio.prib.upf.edu at Sat Sep 29 20:51:43 2018
Module time:
	user time   =      90.61 seconds =       1.51 minutes
	system time =       0.46 seconds =       0.01 minutes
	total time  =         25 seconds =       0.42 minutes
Total time:
	user time   =      90.61 seconds =       1.51 minutes
	system time =       0.46 seconds =       0.01 minutes
	total time  =         25 seconds =       0.42 minutes

*** tstart() called on arancio.prib.upf.edu
*** at Sat Sep 29 20:51:43 2018


         ------------------------------------------------------------
                                   SCF GRAD                          
                          Rob Parrish, Justin Turney,                
                       Andy Simmonett, and Alex Sokolov              
         ------------------------------------------------------------

  ==> Geometry <==

    Molecular point group: c1
    Full point group: C1

    Geometry (in Angstrom), charge = 1, multiplicity = 1:

       Center              X                  Y                   Z               Mass       
    ------------   -----------------  -----------------  -----------------  -----------------
         C            0.000000000000     0.000000000000    -0.177864000000    12.000000000000
         C            0.036678000000     1.219374000000     0.524165000000    12.000000000000
         C            0.031765000000     1.213120000000     1.915444000000    12.000000000000
         C            0.000000000000     0.000000000000     2.610107000000    12.000000000000
         C           -0.031765000000    -1.213120000000     1.915444000000    12.000000000000
         C           -0.036678000000    -1.219375000000     0.524165000000    12.000000000000
         C            0.000000000000     0.000000000000    -1.644734000000    12.000000000000
         H            0.018170000000     2.164705000000    -0.010854000000     1.007825032070
         H            0.042402000000     2.152895000000     2.457886000000     1.007825032070
         H            0.000000000000     0.000000000000     3.695756000000     1.007825032070
         H           -0.042402000000    -2.152895000000     2.457886000000     1.007825032070
         H           -0.018170000000    -2.164705000000    -0.010853000000     1.007825032070
         N            0.860283000000    -0.767101000000    -2.308461000000    14.003074004780
         N           -0.860283000000     0.767101000000    -2.308460000000    14.003074004780
         H           -0.963025000000     0.734216000000    -3.315997000000     1.007825032070
         H           -1.398215000000     1.466204000000    -1.813316000000     1.007825032070
         H            1.398215000000    -1.466204000000    -1.813317000000     1.007825032070
         H            0.963026000000    -0.734216000000    -3.315997000000     1.007825032070

  Nuclear repulsion =  416.581046923819429

  ==> Basis Set <==

  Basis Set: 6-31G*
    Blend: 6-31G*
    Number of shells: 72
    Number of basis function: 153
    Number of Cartesian functions: 153
    Spherical Harmonics?: false
    Max angular momentum: 2

  ==> DFJKGrad: Density-Fitted SCF Gradients <==

    Gradient:                    1
    J tasked:                  Yes
    K tasked:                  Yes
    wK tasked:                  No
    OpenMP threads:              4
    Integrals threads:           4
    Memory (MB):              2002
    Schwarz Cutoff:          0E+00
    Fitting Condition:       1E-12

   => Auxiliary Basis Set <=

  Basis Set: (6-31G* AUX)
    Blend: CC-PVDZ-JKFIT
    Number of shells: 297
    Number of basis function: 954
    Number of Cartesian functions: 954
    Spherical Harmonics?: false
    Max angular momentum: 3

  ==> DFT Potential <==

   => Composite Functional: B3LYP-D3ZERO <= 

    B3LYP-d3zero Hyb-GGA Exchange-Correlation Functional

    P. J. Stephens, F. J. Devlin, C. F. Chabalowski, and M. J. Frisch, J. Phys. Chem. 98, 11623 (1994)

    Deriv               =              1
    GGA                 =           TRUE
    Meta                =          FALSE

    Exchange Hybrid     =           TRUE
    MP2 Hybrid          =          FALSE

   => Exchange Functionals <=

    0.0800   Slater exchange
    0.7200         Becke 88

   => Exact (HF) Exchange <=

    0.2000               HF 

   => Correlation Functionals <=

    0.1900   Vosko, Wilk & Nusair (VWN5_RPA)
    0.8100   Lee, Yang & Parr

   => Molecular Quadrature <=

    Radial Scheme       =       TREUTLER
    Pruning Scheme      =           FLAT
    Nuclear Scheme      =       TREUTLER

    BS radius alpha     =              1
    Pruning alpha       =              1
    Radial Points       =             75
    Spherical Points    =            302
    Total Points        =         396988
    Total Blocks        =           2994
    Max Points          =            256
    Max Functions       =            149


  -Total Gradient:
     Atom            X                  Y                   Z
    ------   -----------------  -----------------  -----------------
       1       -0.000000053149     0.000000579071    -0.007735377731
       2        0.008578327474     0.001112290307     0.002616774433
       3        0.000499676646     0.001188188737    -0.001094112097
       4       -0.000000001381    -0.000000093484     0.000096820155
       5       -0.000499668678    -0.001187969015    -0.001093992891
       6       -0.008578328297    -0.001113694295     0.002616416339
       7       -0.000000190079     0.000000138618     0.007046243482
       8       -0.003631375571    -0.000393958493     0.000231382992
       9       -0.000925878392    -0.000045653483     0.000074666062
      10       -0.000000000561     0.000000006739     0.000054195511
      11        0.000925877058     0.000045670652     0.000074597276
      12        0.003631356550     0.000394711593     0.000231857741
      13        0.004973348428     0.002661733412    -0.001279539856
      14       -0.004973132443    -0.002661817460    -0.001278363339
      15       -0.002553839241    -0.002640995562     0.000690605247
      16        0.003701439170     0.002823644847    -0.000983009889
      17       -0.003701435293    -0.002823646459    -0.000983033802
      18        0.002553877606     0.002640864348     0.000691383644


*** tstop() called on arancio.prib.upf.edu at Sat Sep 29 20:51:49 2018
Module time:
	user time   =      24.49 seconds =       0.41 minutes
	system time =       0.20 seconds =       0.00 minutes
	total time  =          6 seconds =       0.10 minutes
Total time:
	user time   =     115.16 seconds =       1.92 minutes
	system time =       0.67 seconds =       0.01 minutes
	total time  =         31 seconds =       0.52 minutes

			-----------------------------------------
			 OPTKING 2.0: for geometry optimizations 
			  - R.A. King,  Bethel University        
			-----------------------------------------
	At level 1: Red. Int., RFO, no backsteps, dynamic trust

	Internal coordinates to be generated automatically.
	Detected frag 1 with atoms:  1 2 3 4 5 6 7 8 9 10 11 12 13 14 15 16 17 18
	---Fragment 1 Bond Connectivity---
	 1 : 2 6 7
	 2 : 1 3 8
	 3 : 2 4 9
	 4 : 3 5 10
	 5 : 4 6 11
	 6 : 1 5 12
	 7 : 1 13 14
	 8 : 2
	 9 : 3
	 10 : 4
	 11 : 5
	 12 : 6
	 13 : 7 17 18
	 14 : 7 15 16
	 15 : 14
	 16 : 14
	 17 : 13
	 18 : 13

	Assuming in current code that numbering for constraints corresponds to unified fragment.
	Frozen dihedral atom list: 
	     2     1     7    13
	---Fragment 1 Geometry and Gradient---
	 C           0.0000000000        0.0000000000       -0.3361142489
	 C           0.0693113751        2.3042829136        0.9905282984
	 C           0.0600271506        2.2924645663        3.6196645829
	 C           0.0000000000        0.0000000000        4.9323874075
	 C          -0.0600271506       -2.2924645663        3.6196645829
	 C          -0.0693113751       -2.3042848033        0.9905282984
	 C           0.0000000000        0.0000000000       -3.1080968214
	 H           0.0343363238        4.0906996085       -0.0205110874
	 H           0.0801281675        4.0683819429        4.6447314059
	 H           0.0000000000        0.0000000000        6.9839666940
	 H          -0.0801281675       -4.0683819429        4.6447314059
	 H          -0.0343363238       -4.0906996085       -0.0205091977
	 N           1.6256992668       -1.4496108063       -4.3623590784
	 N          -1.6256992668        1.4496108063       -4.3623571887
	 H          -1.8198535091        1.3874671624       -6.2663261875
	 H          -2.6422434249        2.7707240149       -3.4266706324
	 H           2.6422434249       -2.7707240149       -3.4266725221
	 H           1.8198553988       -1.3874671624       -6.2663261875
	            -0.0000000531        0.0000005791       -0.0077353777
	             0.0085783275        0.0011122903        0.0026167744
	             0.0004996766        0.0011881887       -0.0010941121
	            -0.0000000014       -0.0000000935        0.0000968202
	            -0.0004996687       -0.0011879690       -0.0010939929
	            -0.0085783283       -0.0011136943        0.0026164163
	            -0.0000001901        0.0000001386        0.0070462435
	            -0.0036313756       -0.0003939585        0.0002313830
	            -0.0009258784       -0.0000456535        0.0000746661
	            -0.0000000006        0.0000000067        0.0000541955
	             0.0009258771        0.0000456707        0.0000745973
	             0.0036313565        0.0003947116        0.0002318577
	             0.0049733484        0.0026617334       -0.0012795399
	            -0.0049731324       -0.0026618175       -0.0012783633
	            -0.0025538392       -0.0026409956        0.0006906052
	             0.0037014392        0.0028236448       -0.0009830099
	            -0.0037014353       -0.0028236465       -0.0009830338
	             0.0025538776        0.0026408643        0.0006913836

	Previous optimization step data not found.  Starting new optimization.

	---Fragment 1 Intrafragment Coordinates---
	 - Coordinate -           - BOHR/RAD -       - ANG/DEG -
	 R(1,2)           =         2.659794	       1.407502
	 R(1,6)           =         2.659796	       1.407503
	 R(1,7)           =         2.771983	       1.466870
	 R(2,3)           =         2.629179	       1.391302
	 R(2,8)           =         2.052976	       1.086388
	 R(3,4)           =         2.642393	       1.398294
	 R(3,9)           =         2.050622	       1.085142
	 R(4,5)           =         2.642393	       1.398294
	 R(4,10)          =         2.051579	       1.085649
	 R(5,6)           =         2.629179	       1.391302
	 R(5,11)          =         2.050622	       1.085142
	 R(6,12)          =         2.052973	       1.086386
	 R(7,13)          =         2.513452	       1.330062
	 R(7,14)          =         2.513452	       1.330061
	 R(13,17)         =         1.911599	       1.011575
	 R(13,18)         =         1.914850	       1.013295
	 R(14,15)         =         1.914851	       1.013296
	 R(14,16)         =         1.911599	       1.011575
	 B(1,2,3)         =         2.088380	     119.655376
	 B(1,2,8)         =         2.103396	     120.515689
	 B(1,6,5)         =         2.088379	     119.655315
	 B(1,6,12)        =         2.103396	     120.515729
	 B(1,7,13)        =         2.093263	     119.935164
	 B(1,7,14)        =         2.093263	     119.935126
	 B(2,1,6)         =         2.097220	     120.161857
	 B(2,1,7)         =         2.092983	     119.919082
	 B(2,3,4)         =         2.095279	     120.050636
	 B(2,3,9)         =         2.089719	     119.732108
	 B(3,2,8)         =         2.090149	     119.756722
	 B(3,4,5)         =         2.101793	     120.423859
	 B(3,4,10)        =         2.090696	     119.788070
	 B(4,3,9)         =         2.098135	     120.214297
	 B(4,5,6)         =         2.095280	     120.050677
	 B(4,5,11)        =         2.098135	     120.214297
	 B(5,4,10)        =         2.090696	     119.788070
	 B(5,6,12)        =         2.090149	     119.756743
	 B(6,1,7)         =         2.092982	     119.919061
	 B(6,5,11)        =         2.089719	     119.732067
	 B(7,13,17)       =         2.092412	     119.886353
	 B(7,13,18)       =         2.144860	     122.891409
	 B(7,14,15)       =         2.144858	     122.891329
	 B(7,14,16)       =         2.092412	     119.886390
	 B(13,7,14)       =         2.096659	     120.129710
	 B(15,14,16)      =         2.043400	     117.078220
	 B(17,13,18)      =         2.043400	     117.078180
	 D(1,2,3,4)       =         0.007799	       0.446825
	 D(1,2,3,9)       =        -3.122896	    -178.928735
	 D(1,6,5,4)       =         0.007799	       0.446822
	 D(1,6,5,11)      =        -3.122896	    -178.928737
	 D(1,7,13,17)     =         0.187844	      10.762695
	 D(1,7,13,18)     =        -3.032165	    -173.730229
	 D(1,7,14,15)     =        -3.032165	    -173.730286
	 D(1,7,14,16)     =         0.187845	      10.762699
	 D(2,1,6,5)       =        -0.003906	      -0.223802
	 D(2,1,6,12)      =        -3.091437	    -177.126283
	*D(2,1,7,13)      =         2.268928	     129.999991
	 D(2,1,7,14)      =        -0.872665	     -50.000009
	 D(2,3,4,5)       =        -0.003942	      -0.225875
	 D(2,3,4,10)      =         3.137650	     179.774125
	 D(3,2,1,6)       =        -0.003906	      -0.223806
	 D(3,2,1,7)       =         3.137687	     179.776196
	 D(3,4,5,6)       =        -0.003942	      -0.225874
	 D(3,4,5,11)      =         3.126699	     179.146646
	 D(4,3,2,8)       =         3.095744	     177.373058
	 D(4,5,6,12)      =         3.095744	     177.373055
	 D(5,4,3,9)       =         3.126699	     179.146646
	 D(5,6,1,7)       =         3.137687	     179.776197
	 D(6,1,2,8)       =        -3.091437	    -177.126287
	 D(6,1,7,13)      =        -0.872665	     -50.000007
	 D(6,1,7,14)      =         2.268928	     129.999993
	 D(6,5,4,10)      =         3.137650	     179.774126
	 D(7,1,2,8)       =         0.050156	       2.873714
	 D(7,1,6,12)      =         0.050156	       2.873716
	 D(8,2,3,9)       =        -0.034950	      -2.002503
	 D(9,3,4,10)      =        -0.014894	      -0.853354
	 D(10,4,5,11)     =        -0.014894	      -0.853354
	 D(11,5,6,12)     =        -0.034950	      -2.002504
	 D(13,7,14,15)    =         0.109427	       6.269714
	 D(13,7,14,16)    =        -2.953748	    -169.237301
	 D(14,7,13,17)    =        -2.953748	    -169.237305
	 D(14,7,13,18)    =         0.109428	       6.269771

	Current energy   :      -381.4649644962

	Generating empirical Hessian (Schlegel '84) for each fragment.
	Taking RFO optimization step.
	Going to follow RFO solution 1.
	Using RFO vector 1.
	Norm of target step-size    0.45051
	Projected energy change by RFO approximation:        -0.0007408377

	Back-transformation to cartesian coordinates...
	Could not converge backtransformation.
	Using first guess instead.

	Back-transformation to cartesian coordinates to adjust frozen coordinates...
	Successfully converged to displaced geometry.

	--- Internal Coordinate Step in ANG or DEG, aJ/ANG or AJ/DEG ---
	 ---------------------------------------------------------------------------
	   Coordinate                Previous        Force       Change         New 
	   ----------                --------       ------       ------       ------
	    1 R(1,2)          =      1.407502    -0.017037    -0.002481     1.405022
	    2 R(1,6)          =      1.407503    -0.017044    -0.002155     1.405348
	    3 R(1,7)          =      1.466870     0.032238     0.005669     1.472539
	    4 R(2,3)          =      1.391302     0.007722     0.001326     1.392628
	    5 R(2,8)          =      1.086388     0.003259     0.002255     1.088642
	    6 R(3,4)          =      1.398294    -0.005356    -0.000635     1.397659
	    7 R(3,9)          =      1.085142     0.000088     0.000603     1.085745
	    8 R(4,5)          =      1.398294    -0.005358    -0.000648     1.397646
	    9 R(4,10)         =      1.085649    -0.000457    -0.000056     1.085593
	   10 R(5,6)          =      1.391302     0.007718     0.001087     1.392389
	   11 R(5,11)         =      1.085142     0.000088     0.000286     1.085429
	   12 R(6,12)         =      1.086386     0.003266     0.002212     1.088598
	   13 R(7,13)         =      1.330062    -0.015052    -0.001547     1.328515
	   14 R(7,14)         =      1.330061    -0.015048    -0.001461     1.328600
	   15 R(13,17)        =      1.011575     0.004098     0.008590     1.020164
	   16 R(13,18)        =      1.013295     0.002835     0.004053     1.017348
	   17 R(14,15)        =      1.013296     0.002828     0.006372     1.019668
	   18 R(14,16)        =      1.011575     0.004098     0.008730     1.020305
	   19 B(1,2,3)        =    119.655376    -0.000043    -0.138595   119.516781
	   20 B(1,2,8)        =    120.515689     0.000030     0.126317   120.642007
	   21 B(1,6,5)        =    119.655315    -0.000042    -0.140059   119.515256
	   22 B(1,6,12)       =    120.515729     0.000030     0.068326   120.584055
	   23 B(1,7,13)       =    119.935164    -0.000059    -0.175769   119.759395
	   24 B(1,7,14)       =    119.935126    -0.000059    -0.175140   119.759987
	   25 B(2,1,6)        =    120.161857     0.000094     0.232165   120.394022
	   26 B(2,1,7)        =    119.919082    -0.000047    -0.114622   119.804460
	   27 B(2,3,4)        =    120.050636     0.000012     0.048886   120.099522
	   28 B(2,3,9)        =    119.732108    -0.000014    -0.039277   119.692831
	   29 B(3,2,8)        =    119.756722     0.000021     0.040037   119.796759
	   30 B(3,4,5)        =    120.423859    -0.000031    -0.074289   120.349570
	   31 B(3,4,10)       =    119.788070     0.000016     0.037675   119.825745
	   32 B(4,3,9)        =    120.214297     0.000003    -0.008230   120.206066
	   33 B(4,5,6)        =    120.050677     0.000012     0.049091   120.099769
	   34 B(4,5,11)       =    120.214297     0.000003     0.009500   120.223796
	   35 B(5,4,10)       =    119.788070     0.000016     0.036405   119.824475
	   36 B(5,6,12)       =    119.756743     0.000021     0.093059   119.849802
	   37 B(6,1,7)        =    119.919061    -0.000047    -0.130701   119.788361
	   38 B(6,5,11)       =    119.732067    -0.000014    -0.056281   119.675786
	   39 B(7,13,17)      =    119.886353     0.000003    -0.145850   119.740503
	   40 B(7,13,18)      =    122.891409     0.000003    -0.122850   122.768559
	   41 B(7,14,15)      =    122.891329     0.000003    -0.058834   122.832495
	   42 B(7,14,16)      =    119.886390     0.000003    -0.341366   119.545024
	   43 B(13,7,14)      =    120.129710     0.000118     0.338162   120.467871
	   44 B(15,14,16)     =    117.078220    -0.000002     0.499454   117.577674
	   45 B(17,13,18)     =    117.078180    -0.000002     0.368184   117.446365
	   46 D(1,2,3,4)      =      0.446825    -0.000012    -1.591792    -1.144968
	   47 D(1,2,3,9)      =   -178.928735    -0.000019    -2.672586  -181.601321
	   48 D(1,6,5,4)      =      0.446822    -0.000015    -2.081860    -1.635038
	   49 D(1,6,5,11)     =   -178.928737    -0.000021    -2.998723  -181.927460
	   50 D(1,7,13,17)    =     10.762695    -0.000065    -7.931472     2.831224
	   51 D(1,7,13,18)    =   -173.730229    -0.000048    -5.930147  -179.660376
	   52 D(1,7,14,15)    =   -173.730286    -0.000056    -7.208197  -180.938483
	   53 D(1,7,14,16)    =     10.762699    -0.000072    -9.206033     1.556666
	   54 D(2,1,6,5)      =     -0.223802     0.000010     1.537329     1.313527
	   55 D(2,1,6,12)     =   -177.126283    -0.000030    -4.158365  -181.284648
	   56 *D(2,1,7,13)    =    129.999991     0.000000     0.000000   129.999991
	   57 D(2,1,7,14)     =    -50.000009     0.000008     1.292500   -48.707509
	   58 D(2,3,4,5)      =     -0.225875     0.000007     1.054309     0.828433
	   59 D(2,3,4,10)     =    179.774125     0.000006     0.887528   180.661653
	   60 D(3,2,1,6)      =     -0.223806     0.000003     0.300737     0.076932
	   61 D(3,2,1,7)      =    179.776196     0.000010     1.622914   181.399110
	   62 D(3,4,5,6)      =     -0.225874     0.000006     0.803878     0.578004
	   63 D(3,4,5,11)     =    179.146646     0.000013     1.725395   180.872042
	   64 D(4,3,2,8)      =    177.373058     0.000027     3.890936   181.263994
	   65 D(4,5,6,12)     =    177.373055     0.000026     3.570749   180.943804
	   66 D(5,4,3,9)      =    179.146646     0.000015     2.140502   181.287148
	   67 D(5,6,1,7)      =    179.776197     0.000003     0.215365   179.991562
	   68 D(6,1,2,8)      =   -177.126287    -0.000036    -5.226545  -182.352832
	   69 D(6,1,7,13)     =    -50.000007     0.000007     1.314101   -48.685906
	   70 D(6,1,7,14)     =    129.999993     0.000015     2.606601   132.606594
	   71 D(6,5,4,10)     =    179.774126     0.000007     0.970656   180.744782
	   72 D(7,1,2,8)      =      2.873714    -0.000029    -3.904368    -1.030653
	   73 D(7,1,6,12)     =      2.873716    -0.000037    -5.480329    -2.606613
	   74 D(8,2,3,9)      =     -2.002503     0.000020     2.810143     0.807640
	   75 D(9,3,4,10)     =     -0.853354     0.000014     1.973722     1.120368
	   76 D(10,4,5,11)    =     -0.853354     0.000014     1.892174     1.038820
	   77 D(11,5,6,12)    =     -2.002504     0.000019     2.653886     0.651382
	   78 D(13,7,14,15)   =      6.269714    -0.000048    -5.906393     0.363322
	   79 D(13,7,14,16)   =   -169.237301    -0.000065    -7.904228  -177.141529
	   80 D(14,7,13,17)   =   -169.237305    -0.000072    -9.233268  -178.470573
	   81 D(14,7,13,18)   =      6.269771    -0.000056    -7.231944    -0.962173
	 ---------------------------------------------------------------------------
	Successfully symmetrized geometry.

  ==> Convergence Check <==

  Measures of convergence in internal coordinates in au.
  Criteria marked as inactive (o), active & met (*), and active & unmet ( ).
  --------------------------------------------------------------------------------------------- ~
   Step     Total Energy     Delta E     MAX Force     RMS Force      MAX Disp      RMS Disp    ~
  --------------------------------------------------------------------------------------------- ~
    Convergence Criteria    1.00e-06 *    3.00e-04 *             o    1.20e-03 *             o  ~
  --------------------------------------------------------------------------------------------- ~
      1    -381.46496450   -3.81e+02      4.14e-03      1.45e-03 o    1.61e-01      4.99e-02 o  ~
  ---------------------------------------------------------------------------------------------

	Writing optimization data to binary file.
	Structure for next step:
	Cartesian Geometry (in Angstrom)
	    C    -0.0177872506  -0.0038698335  -0.1767414232
	    C     0.0079774844   1.2161118128   0.5197259450
	    C     0.0311773645   1.2108937794   1.9121510188
	    C     0.0046236983  -0.0003138987   2.6090874141
	    C    -0.0278691588  -1.2134419482   1.9157767326
	    C    -0.0218321297  -1.2223724003   0.5234295492
	    C    -0.0112085886  -0.0062955848  -1.6492632552
	    H     0.0496530725   2.1614910127  -0.0184780301
	    H     0.0774635860   2.1513146420   2.4528060589
	    H     0.0120018480   0.0011151557   3.6946545325
	    H    -0.0627218680  -2.1524805407   2.4590511943
	    H    -0.0627693367  -2.1690139482  -0.0125183627
	    N     0.8574016840  -0.7694295372  -2.3035532575
	    N    -0.8565662847   0.7740436092  -2.3138071540
	    H    -0.8827499612   0.8197553661  -3.3321136166
	    H    -1.4877293938   1.3869468575  -1.7970824757
	    H     1.4855532852  -1.3818653299  -1.7828966933
	    H     0.9053829495  -0.8025902142  -3.3192281771
			--------------------------
			 OPTKING Finished Execution 
			--------------------------

    Structure for next step:
    Molecular point group: c1
    Full point group: C1

    Geometry (in Angstrom), charge = 1, multiplicity = 1:

    C           -0.017787250592    -0.003869833526    -0.176741423189
    C            0.007977484352     1.216111812841     0.519725945049
    C            0.031177364479     1.210893779399     1.912151018818
    C            0.004623698296    -0.000313898660     2.609087414082
    C           -0.027869158788    -1.213441948220     1.915776732624
    C           -0.021832129669    -1.222372400252     0.523429549180
    C           -0.011208588594    -0.006295584797    -1.649263255219
    H            0.049653072463     2.161491012749    -0.018478030065
    H            0.077463585981     2.151314641968     2.452806058944
    H            0.012001848023     0.001115155746     3.694654532548
    H           -0.062721868019    -2.152480540661     2.459051194276
    H           -0.062769336749    -2.169013948182    -0.012518362709
    N            0.857401683968    -0.769429537204    -2.303553257489
    N           -0.856566284727     0.774043609249    -2.313807154025
    H           -0.882749961247     0.819755366089    -3.332113616622
    H           -1.487729393843     1.386946857537    -1.797082475731
    H            1.485553285211    -1.381865329877    -1.782896693347
    H            0.905382949457    -0.802590214200    -3.319228177124

gradient() will perform analytic gradient computation.

*** tstart() called on arancio.prib.upf.edu
*** at Sat Sep 29 20:51:50 2018

   => Loading Basis Set <=

    Name: 6-31G*
    Role: ORBITAL
    Keyword: BASIS
    atoms 1-7         entry C          line   111 file /shared/joao/test_parameterize/miniconda3/share/psi4/basis/6-31gs.gbs 
    atoms 8-12, 15-18 entry H          line    44 file /shared/joao/test_parameterize/miniconda3/share/psi4/basis/6-31gs.gbs 
    atoms 13-14       entry N          line   128 file /shared/joao/test_parameterize/miniconda3/share/psi4/basis/6-31gs.gbs 


         ---------------------------------------------------------
                                   SCF
            by Justin Turney, Rob Parrish, Andy Simmonett
                             and Daniel Smith
                              RKS Reference
                        4 Threads,   2861 MiB Core
         ---------------------------------------------------------

  ==> Geometry <==

    Molecular point group: c1
    Full point group: C1

    Geometry (in Angstrom), charge = 1, multiplicity = 1:

       Center              X                  Y                   Z               Mass       
    ------------   -----------------  -----------------  -----------------  -----------------
         C           -0.017787250592    -0.003869833526    -0.176741423189    12.000000000000
         C            0.007977484352     1.216111812841     0.519725945049    12.000000000000
         C            0.031177364479     1.210893779399     1.912151018818    12.000000000000
         C            0.004623698296    -0.000313898660     2.609087414082    12.000000000000
         C           -0.027869158788    -1.213441948220     1.915776732624    12.000000000000
         C           -0.021832129669    -1.222372400252     0.523429549180    12.000000000000
         C           -0.011208588594    -0.006295584797    -1.649263255219    12.000000000000
         H            0.049653072463     2.161491012749    -0.018478030065     1.007825032070
         H            0.077463585981     2.151314641968     2.452806058944     1.007825032070
         H            0.012001848023     0.001115155746     3.694654532548     1.007825032070
         H           -0.062721868019    -2.152480540661     2.459051194276     1.007825032070
         H           -0.062769336749    -2.169013948182    -0.012518362709     1.007825032070
         N            0.857401683968    -0.769429537204    -2.303553257489    14.003074004780
         N           -0.856566284727     0.774043609249    -2.313807154025    14.003074004780
         H           -0.882749961247     0.819755366089    -3.332113616622     1.007825032070
         H           -1.487729393843     1.386946857537    -1.797082475731     1.007825032070
         H            1.485553285211    -1.381865329877    -1.782896693347     1.007825032070
         H            0.905382949457    -0.802590214200    -3.319228177124     1.007825032070

  Running in c1 symmetry.

  Rotational constants: A =      0.12191  B =      0.03882  C =      0.03180 [cm^-1]
  Rotational constants: A =   3654.78527  B =   1163.70750  C =    953.21810 [MHz]
  Nuclear repulsion =  416.496593453388527

  Charge       = 1
  Multiplicity = 1
  Electrons    = 64
  Nalpha       = 32
  Nbeta        = 32

  ==> Algorithm <==

  SCF Algorithm Type is DF.
  DIIS enabled.
  MOM disabled.
  Fractional occupation disabled.
  Guess Type is READ.
  Energy threshold   = 1.00e-08
  Density threshold  = 1.00e-08
  Integral threshold = 0.00e+00

  ==> Primary Basis <==

  Basis Set: 6-31G*
    Blend: 6-31G*
    Number of shells: 72
    Number of basis function: 153
    Number of Cartesian functions: 153
    Spherical Harmonics?: false
    Max angular momentum: 2

  ==> DFT Potential <==

   => Composite Functional: B3LYP-D3ZERO <= 

    B3LYP-d3zero Hyb-GGA Exchange-Correlation Functional

    P. J. Stephens, F. J. Devlin, C. F. Chabalowski, and M. J. Frisch, J. Phys. Chem. 98, 11623 (1994)

    Deriv               =              1
    GGA                 =           TRUE
    Meta                =          FALSE

    Exchange Hybrid     =           TRUE
    MP2 Hybrid          =          FALSE

   => Exchange Functionals <=

    0.0800   Slater exchange
    0.7200         Becke 88

   => Exact (HF) Exchange <=

    0.2000               HF 

   => Correlation Functionals <=

    0.1900   Vosko, Wilk & Nusair (VWN5_RPA)
    0.8100   Lee, Yang & Parr

   => Molecular Quadrature <=

    Radial Scheme       =       TREUTLER
    Pruning Scheme      =           FLAT
    Nuclear Scheme      =       TREUTLER

    BS radius alpha     =              1
    Pruning alpha       =              1
    Radial Points       =             75
    Spherical Points    =            302
    Total Points        =         397009
    Total Blocks        =           2988
    Max Points          =            256
    Max Functions       =            149

   => -D3ZERO: Empirical Dispersion <=

    Grimme's -D3 (zero-damping) Dispersion Correction
    Grimme S.; Antony J.; Ehrlich S.; Krieg H. (2010), J. Chem. Phys., 132: 154104

        S6 =   1.000000E+00
        S8 =   1.703000E+00
       SR6 =   1.261000E+00
       SR8 =   1.000000E+00
    ALPHA6 =   1.400000E+01

   => Loading Basis Set <=

    Name: (6-31G* AUX)
    Role: JKFIT
    Keyword: DF_BASIS_SCF
    atoms 1-7         entry C          line   121 file /shared/joao/test_parameterize/miniconda3/share/psi4/basis/cc-pvdz-jkfit.gbs 
    atoms 8-12, 15-18 entry H          line    51 file /shared/joao/test_parameterize/miniconda3/share/psi4/basis/cc-pvdz-jkfit.gbs 
    atoms 13-14       entry N          line   171 file /shared/joao/test_parameterize/miniconda3/share/psi4/basis/cc-pvdz-jkfit.gbs 

  Reading orbitals from file 180, no projection.

  ==> Pre-Iterations <==

   -------------------------------------------------------
    Irrep   Nso     Nmo     Nalpha   Nbeta   Ndocc  Nsocc
   -------------------------------------------------------
     A        153     153       0       0       0       0
   -------------------------------------------------------
    Total     153     153      32      32      32       0
   -------------------------------------------------------

  ==> Integral Setup <==

  ==> DiskDFJK: Density-Fitted J/K Matrices <==

    J tasked:                  Yes
    K tasked:                  Yes
    wK tasked:                  No
    OpenMP threads:              4
    Integrals threads:           4
    Memory (MB):              2002
    Algorithm:                Core
    Integral Cache:           NONE
    Schwarz Cutoff:          1E-12
    Fitting Condition:       1E-12

   => Auxiliary Basis Set <=

  Basis Set: (6-31G* AUX)
    Blend: CC-PVDZ-JKFIT
    Number of shells: 297
    Number of basis function: 954
    Number of Cartesian functions: 954
    Spherical Harmonics?: false
    Max angular momentum: 3

  Minimum eigenvalue in the overlap matrix is 4.8634956185E-04.
  Using Symmetric Orthogonalization.

  SCF Guess: Orbitals guess was supplied from a previous computation.

  ==> Iterations <==

                           Total Energy        Delta E     RMS |[F,P]|

   @DF-RKS iter   0:  -381.44844153961213   -3.81448e+02   1.22246e-03 
   @DF-RKS iter   1:  -381.46824248480783   -1.98009e-02   1.57765e-04 
   @DF-RKS iter   2:  -381.46826204727313   -1.95625e-05   1.80408e-04 DIIS
   @DF-RKS iter   3:  -381.46836097150140   -9.89242e-05   6.15784e-05 DIIS
   @DF-RKS iter   4:  -381.46837186396641   -1.08925e-05   2.63571e-05 DIIS
   @DF-RKS iter   5:  -381.46837382554969   -1.96158e-06   5.48905e-06 DIIS
   @DF-RKS iter   6:  -381.46837391738717   -9.18375e-08   1.33731e-06 DIIS
   @DF-RKS iter   7:  -381.46837392181902   -4.43185e-09   3.77571e-07 DIIS
   @DF-RKS iter   8:  -381.46837392214053   -3.21506e-10   1.75685e-07 DIIS
   @DF-RKS iter   9:  -381.46837392222074   -8.02061e-11   3.94886e-08 DIIS
   @DF-RKS iter  10:  -381.46837392222511   -4.37694e-12   9.42953e-09 DIIS

  ==> Post-Iterations <==

    Orbital Energies [Eh]
    ---------------------

    Doubly Occupied:                                                      

       1A    -14.571805     2A    -14.571684     3A    -10.499513  
       4A    -10.372554     5A    -10.354364     6A    -10.354109  
       7A    -10.339416     8A    -10.338506     9A    -10.338329  
      10A     -1.185369    11A     -1.092664    12A     -1.012801  
      13A     -0.925111    14A     -0.900005    15A     -0.844282  
      16A     -0.785882    17A     -0.771073    18A     -0.744524  
      19A     -0.731338    20A     -0.686122    21A     -0.668175  
      22A     -0.622787    23A     -0.621010    24A     -0.584973  
      25A     -0.577141    26A     -0.571950    27A     -0.517170  
      28A     -0.503437    29A     -0.496272    30A     -0.473576  
      31A     -0.408877    32A     -0.403530  

    Virtual:                                                              

      33A     -0.208937    34A     -0.156313    35A     -0.141047  
      36A     -0.111796    37A     -0.068884    38A     -0.065563  
      39A     -0.039971    40A     -0.036428    41A      0.006879  
      42A      0.019242    43A      0.021375    44A      0.057434  
      45A      0.062436    46A      0.077987    47A      0.130432  
      48A      0.151280    49A      0.159294    50A      0.162018  
      51A      0.201388    52A      0.236904    53A      0.296360  
      54A      0.346384    55A      0.355839    56A      0.382127  
      57A      0.387341    58A      0.398238    59A      0.415483  
      60A      0.424425    61A      0.445679    62A      0.446819  
      63A      0.451737    64A      0.469018    65A      0.472894  
      66A      0.477173    67A      0.484765    68A      0.509724  
      69A      0.521094    70A      0.532091    71A      0.539526  
      72A      0.577352    73A      0.601537    74A      0.652670  
      75A      0.655530    76A      0.677842    77A      0.681482  
      78A      0.703630    79A      0.709727    80A      0.713722  
      81A      0.733491    82A      0.764864    83A      0.776667  
      84A      0.797707    85A      0.811749    86A      0.834553  
      87A      0.849607    88A      0.939083    89A      0.969560  
      90A      0.997138    91A      1.003245    92A      1.027601  
      93A      1.041210    94A      1.070933    95A      1.147953  
      96A      1.188166    97A      1.230554    98A      1.276816  
      99A      1.288113   100A      1.311237   101A      1.319261  
     102A      1.342006   103A      1.359847   104A      1.371460  
     105A      1.421085   106A      1.452965   107A      1.488942  
     108A      1.594208   109A      1.631844   110A      1.653305  
     111A      1.672003   112A      1.736489   113A      1.756683  
     114A      1.794493   115A      1.828546   116A      1.854168  
     117A      1.903427   118A      1.908623   119A      1.958390  
     120A      1.978108   121A      1.998775   122A      2.015996  
     123A      2.040966   124A      2.095175   125A      2.114879  
     126A      2.136805   127A      2.150431   128A      2.180613  
     129A      2.226422   130A      2.256773   131A      2.360238  
     132A      2.368715   133A      2.429275   134A      2.452418  
     135A      2.492239   136A      2.544470   137A      2.559157  
     138A      2.589989   139A      2.605551   140A      2.627132  
     141A      2.732422   142A      2.883086   143A      2.963075  
     144A      3.259366   145A      3.633565   146A      3.650112  
     147A      3.924570   148A      3.954928   149A      3.966517  
     150A      4.071344   151A      4.179690   152A      4.258170  
     153A      4.546732  

    Final Occupation by Irrep:
              A 
    DOCC [    32 ]

  Energy converged.

  @DF-RKS Final Energy:  -381.46837392222511

   => Energetics <=

    Nuclear Repulsion Energy =            416.4965934533885275
    One-Electron Energy =               -1328.2530732401141904
    Two-Electron Energy =                 574.6947607128923892
    DFT Exchange-Correlation Energy =     -44.3946953583918784
    Empirical Dispersion Energy =          -0.0119594900000000
    VV10 Nonlocal Energy =                  0.0000000000000000
    Total Energy =                       -381.4683739222251120



Properties will be evaluated at   0.000000,   0.000000,   0.000000 [a0]

Properties computed using the SCF density matrix

  Nuclear Dipole Moment: [e a0]
     X:    -0.3205      Y:    -0.1299      Z:    -0.0989

  Electronic Dipole Moment: [e a0]
     X:     0.3312      Y:     0.1354      Z:    -2.2625

  Dipole Moment: [e a0]
     X:     0.0107      Y:     0.0054      Z:    -2.3614     Total:     2.3614

  Dipole Moment: [D]
     X:     0.0273      Y:     0.0138      Z:    -6.0020     Total:     6.0021


*** tstop() called on arancio.prib.upf.edu at Sat Sep 29 20:52:09 2018
Module time:
	user time   =      69.99 seconds =       1.17 minutes
	system time =       0.36 seconds =       0.01 minutes
	total time  =         19 seconds =       0.32 minutes
Total time:
	user time   =     186.08 seconds =       3.10 minutes
	system time =       1.08 seconds =       0.02 minutes
	total time  =         51 seconds =       0.85 minutes

*** tstart() called on arancio.prib.upf.edu
*** at Sat Sep 29 20:52:09 2018


         ------------------------------------------------------------
                                   SCF GRAD                          
                          Rob Parrish, Justin Turney,                
                       Andy Simmonett, and Alex Sokolov              
         ------------------------------------------------------------

  ==> Geometry <==

    Molecular point group: c1
    Full point group: C1

    Geometry (in Angstrom), charge = 1, multiplicity = 1:

       Center              X                  Y                   Z               Mass       
    ------------   -----------------  -----------------  -----------------  -----------------
         C           -0.017787250592    -0.003869833526    -0.176741423189    12.000000000000
         C            0.007977484352     1.216111812841     0.519725945049    12.000000000000
         C            0.031177364479     1.210893779399     1.912151018818    12.000000000000
         C            0.004623698296    -0.000313898660     2.609087414082    12.000000000000
         C           -0.027869158788    -1.213441948220     1.915776732624    12.000000000000
         C           -0.021832129669    -1.222372400252     0.523429549180    12.000000000000
         C           -0.011208588594    -0.006295584797    -1.649263255219    12.000000000000
         H            0.049653072463     2.161491012749    -0.018478030065     1.007825032070
         H            0.077463585981     2.151314641968     2.452806058944     1.007825032070
         H            0.012001848023     0.001115155746     3.694654532548     1.007825032070
         H           -0.062721868019    -2.152480540661     2.459051194276     1.007825032070
         H           -0.062769336749    -2.169013948182    -0.012518362709     1.007825032070
         N            0.857401683968    -0.769429537204    -2.303553257489    14.003074004780
         N           -0.856566284727     0.774043609249    -2.313807154025    14.003074004780
         H           -0.882749961247     0.819755366089    -3.332113616622     1.007825032070
         H           -1.487729393843     1.386946857537    -1.797082475731     1.007825032070
         H            1.485553285211    -1.381865329877    -1.782896693347     1.007825032070
         H            0.905382949457    -0.802590214200    -3.319228177124     1.007825032070

  Nuclear repulsion =  416.496593453388527

  ==> Basis Set <==

  Basis Set: 6-31G*
    Blend: 6-31G*
    Number of shells: 72
    Number of basis function: 153
    Number of Cartesian functions: 153
    Spherical Harmonics?: false
    Max angular momentum: 2

  ==> DFJKGrad: Density-Fitted SCF Gradients <==

    Gradient:                    1
    J tasked:                  Yes
    K tasked:                  Yes
    wK tasked:                  No
    OpenMP threads:              4
    Integrals threads:           4
    Memory (MB):              2002
    Schwarz Cutoff:          0E+00
    Fitting Condition:       1E-12

   => Auxiliary Basis Set <=

  Basis Set: (6-31G* AUX)
    Blend: CC-PVDZ-JKFIT
    Number of shells: 297
    Number of basis function: 954
    Number of Cartesian functions: 954
    Spherical Harmonics?: false
    Max angular momentum: 3

  ==> DFT Potential <==

   => Composite Functional: B3LYP-D3ZERO <= 

    B3LYP-d3zero Hyb-GGA Exchange-Correlation Functional

    P. J. Stephens, F. J. Devlin, C. F. Chabalowski, and M. J. Frisch, J. Phys. Chem. 98, 11623 (1994)

    Deriv               =              1
    GGA                 =           TRUE
    Meta                =          FALSE

    Exchange Hybrid     =           TRUE
    MP2 Hybrid          =          FALSE

   => Exchange Functionals <=

    0.0800   Slater exchange
    0.7200         Becke 88

   => Exact (HF) Exchange <=

    0.2000               HF 

   => Correlation Functionals <=

    0.1900   Vosko, Wilk & Nusair (VWN5_RPA)
    0.8100   Lee, Yang & Parr

   => Molecular Quadrature <=

    Radial Scheme       =       TREUTLER
    Pruning Scheme      =           FLAT
    Nuclear Scheme      =       TREUTLER

    BS radius alpha     =              1
    Pruning alpha       =              1
    Radial Points       =             75
    Spherical Points    =            302
    Total Points        =         397009
    Total Blocks        =           2988
    Max Points          =            256
    Max Functions       =            149


  -Total Gradient:
     Atom            X                  Y                   Z
    ------   -----------------  -----------------  -----------------
       1       -0.001173490804     0.001005627980    -0.000440658705
       2        0.001514264314    -0.001929888345     0.000782034758
       3        0.000104288328    -0.000198031073    -0.000225423450
       4       -0.000069872203    -0.000094898585     0.000079142111
       5       -0.000158773923     0.000263772116    -0.000119069602
       6       -0.000321235979     0.001493642902     0.000841745916
       7       -0.001446343102    -0.002264454672     0.001606404479
       8       -0.000096896261     0.001299821547    -0.000336007902
       9        0.000302321918     0.000270904867     0.000265161384
      10        0.000029878181    -0.000001893186     0.000008978132
      11       -0.000310460872    -0.000107623726     0.000101835847
      12        0.000278221234    -0.001219966624    -0.000378281306
      13       -0.000520109075     0.006742494080    -0.001416469307
      14        0.001395459049    -0.005569631881    -0.000059732164
      15       -0.000568664228    -0.001811294761    -0.005283250501
      16       -0.002461762807     0.006060988850     0.004072690530
      17        0.002799377630    -0.005901175819     0.003670718440
      18        0.000706545977     0.001960575645    -0.003214925916


*** tstop() called on arancio.prib.upf.edu at Sat Sep 29 20:52:15 2018
Module time:
	user time   =      23.82 seconds =       0.40 minutes
	system time =       0.21 seconds =       0.00 minutes
	total time  =          6 seconds =       0.10 minutes
Total time:
	user time   =     209.97 seconds =       3.50 minutes
	system time =       1.30 seconds =       0.02 minutes
	total time  =         57 seconds =       0.95 minutes

			-----------------------------------------
			 OPTKING 2.0: for geometry optimizations 
			  - R.A. King,  Bethel University        
			-----------------------------------------
	At level 1: Red. Int., RFO, no backsteps, dynamic trust

	Previous internal coordinate definitions found.
	---Fragment 1 Geometry and Gradient---
	 C          -0.0336130323       -0.0073129255       -0.3339928862
	 C           0.0150752607        2.2981182732        0.9821397003
	 C           0.0589166804        2.2882576191        3.6134417503
	 C           0.0087375235       -0.0005931825        4.9304606694
	 C          -0.0526650777       -2.2930729603        3.6202933564
	 C          -0.0412567460       -2.3099490689        0.9891384978
	 C          -0.0211811628       -0.0118969311       -3.1166558734
	 H           0.0938307086        4.0846260528       -0.0349184163
	 H           0.1463849628        4.0653954990        4.6351317085
	 H           0.0226802059        0.0021073390        6.9818852221
	 H          -0.1185271531       -4.0675987282        4.6469333039
	 H          -0.1186168560       -4.0988423405       -0.0236562772
	 N           1.6202543686       -1.4540111039       -4.3530847892
	 N          -1.6186756928        1.4627304364       -4.3724618454
	 H          -1.6681556706        1.5491131379       -6.2967821791
	 H          -2.8114011142        2.6209497216       -3.3959937173
	 H           2.8072888649       -2.6113470260       -3.3691864737
	 H           1.7109258199       -1.5166757018       -6.2724322273
	            -0.0011734908        0.0010056280       -0.0004406587
	             0.0015142643       -0.0019298883        0.0007820348
	             0.0001042883       -0.0001980311       -0.0002254234
	            -0.0000698722       -0.0000948986        0.0000791421
	            -0.0001587739        0.0002637721       -0.0001190696
	            -0.0003212360        0.0014936429        0.0008417459
	            -0.0014463431       -0.0022644547        0.0016064045
	            -0.0000968963        0.0012998215       -0.0003360079
	             0.0003023219        0.0002709049        0.0002651614
	             0.0000298782       -0.0000018932        0.0000089781
	            -0.0003104609       -0.0001076237        0.0001018358
	             0.0002782212       -0.0012199666       -0.0003782813
	            -0.0005201091        0.0067424941       -0.0014164693
	             0.0013954590       -0.0055696319       -0.0000597322
	            -0.0005686642       -0.0018112948       -0.0052832505
	            -0.0024617628        0.0060609888        0.0040726905
	             0.0027993776       -0.0059011758        0.0036707184
	             0.0007065460        0.0019605756       -0.0032149259

	---Fragment 1 Intrafragment Coordinates---
	 - Coordinate -           - BOHR/RAD -       - ANG/DEG -
	 R(1,2)           =         2.655106	       1.405022
	 R(1,6)           =         2.655724	       1.405348
	 R(1,7)           =         2.782695	       1.472539
	 R(2,3)           =         2.631686	       1.392628
	 R(2,8)           =         2.057236	       1.088642
	 R(3,4)           =         2.641192	       1.397659
	 R(3,9)           =         2.051760	       1.085745
	 R(4,5)           =         2.641169	       1.397646
	 R(4,10)          =         2.051474	       1.085593
	 R(5,6)           =         2.631234	       1.392389
	 R(5,11)          =         2.051163	       1.085429
	 R(6,12)          =         2.057153	       1.088598
	 R(7,13)          =         2.510530	       1.328515
	 R(7,14)          =         2.510690	       1.328600
	 R(13,17)         =         1.927831	       1.020164
	 R(13,18)         =         1.922509	       1.017348
	 R(14,15)         =         1.926894	       1.019668
	 R(14,16)         =         1.928096	       1.020305
	 B(1,2,3)         =         2.085961	     119.516781
	 B(1,2,8)         =         2.105600	     120.642007
	 B(1,6,5)         =         2.085935	     119.515256
	 B(1,6,12)        =         2.104589	     120.584055
	 B(1,7,13)        =         2.090196	     119.759395
	 B(1,7,14)        =         2.090206	     119.759987
	 B(2,1,6)         =         2.101272	     120.394022
	 B(2,1,7)         =         2.090982	     119.804460
	 B(2,3,4)         =         2.096132	     120.099522
	 B(2,3,9)         =         2.089034	     119.692831
	 B(3,2,8)         =         2.090848	     119.796759
	 B(3,4,5)         =         2.100496	     120.349570
	 B(3,4,10)        =         2.091354	     119.825745
	 B(4,3,9)         =         2.097992	     120.206066
	 B(4,5,6)         =         2.096136	     120.099769
	 B(4,5,11)        =         2.098301	     120.223796
	 B(5,4,10)        =         2.091332	     119.824475
	 B(5,6,12)        =         2.091774	     119.849802
	 B(6,1,7)         =         2.090701	     119.788361
	 B(6,5,11)        =         2.088736	     119.675786
	 B(7,13,17)       =         2.089866	     119.740503
	 B(7,13,18)       =         2.142716	     122.768559
	 B(7,14,15)       =         2.143831	     122.832495
	 B(7,14,16)       =         2.086454	     119.545024
	 B(13,7,14)       =         2.102561	     120.467871
	 B(15,14,16)      =         2.052118	     117.577674
	 B(17,13,18)      =         2.049826	     117.446365
	 D(1,2,3,4)       =        -0.019983	      -1.144968
	 D(1,2,3,9)       =         3.113644	     178.398679
	 D(1,6,5,4)       =        -0.028537	      -1.635038
	 D(1,6,5,11)      =         3.107952	     178.072540
	 D(1,7,13,17)     =         0.049414	       2.831224
	 D(1,7,13,18)     =        -3.135665	    -179.660376
	 D(1,7,14,15)     =         3.125213	     179.061517
	 D(1,7,14,16)     =         0.027169	       1.556666
	 D(2,1,6,5)       =         0.022925	       1.313527
	 D(2,1,6,12)      =         3.119171	     178.715352
	*D(2,1,7,13)      =         2.268928	     129.999991
	 D(2,1,7,14)      =        -0.850106	     -48.707509
	 D(2,3,4,5)       =         0.014459	       0.828433
	 D(2,3,4,10)      =        -3.130045	    -179.338347
	 D(3,2,1,6)       =         0.001343	       0.076932
	 D(3,2,1,7)       =        -3.117174	    -178.600890
	 D(3,4,5,6)       =         0.010088	       0.578004
	 D(3,4,5,11)      =        -3.126373	    -179.127958
	 D(4,3,2,8)       =        -3.119532	    -178.736006
	 D(4,5,6,12)      =        -3.125120	    -179.056196
	 D(5,4,3,9)       =        -3.119128	    -178.712852
	 D(5,6,1,7)       =         3.141445	     179.991562
	 D(6,1,2,8)       =         3.100528	     177.647168
	 D(6,1,7,13)      =        -0.849729	     -48.685906
	 D(6,1,7,14)      =         2.314422	     132.606594
	 D(6,5,4,10)      =        -3.128594	    -179.255218
	 D(7,1,2,8)       =        -0.017988	      -1.030653
	 D(7,1,6,12)      =        -0.045494	      -2.606613
	 D(8,2,3,9)       =         0.014096	       0.807640
	 D(9,3,4,10)      =         0.019554	       1.120368
	 D(10,4,5,11)     =         0.018131	       1.038820
	 D(11,5,6,12)     =         0.011369	       0.651382
	 D(13,7,14,15)    =         0.006341	       0.363322
	 D(13,7,14,16)    =        -3.091703	    -177.141529
	 D(14,7,13,17)    =        -3.114899	    -178.470573
	 D(14,7,13,18)    =        -0.016793	      -0.962173

	Current energy   :      -381.4683739222

	Energy change for the previous step:
		Projected    :        -0.0007408377
		Actual       :        -0.0034094260
	Energy ratio indicates good step: Trust radius increased to 1.000e+00.


	Performing BFGS update.
	Previous computed or guess Hessian on step 1.
	Steps to be used in Hessian update: 1
	Taking RFO optimization step.
	Going to follow RFO solution 1.
	Using RFO vector 1.
	Norm of target step-size    0.34779
	Projected energy change by RFO approximation:        -0.0005269309

	Back-transformation to cartesian coordinates...
	Could not converge backtransformation.
	Using first guess instead.

	Back-transformation to cartesian coordinates to adjust frozen coordinates...
	Successfully converged to displaced geometry.

	--- Internal Coordinate Step in ANG or DEG, aJ/ANG or AJ/DEG ---
	 ---------------------------------------------------------------------------
	   Coordinate                Previous        Force       Change         New 
	   ----------                --------       ------       ------       ------
	    1 R(1,2)          =      1.405022    -0.000616    -0.000517     1.404505
	    2 R(1,6)          =      1.405348    -0.001696    -0.000592     1.404757
	    3 R(1,7)          =      1.472539    -0.005008    -0.000132     1.472406
	    4 R(2,3)          =      1.392628    -0.000911     0.000169     1.392798
	    5 R(2,8)          =      1.088642    -0.010627    -0.001566     1.087076
	    6 R(3,4)          =      1.397659     0.001783     0.000326     1.397985
	    7 R(3,9)          =      1.085745    -0.003137    -0.000448     1.085297
	    8 R(4,5)          =      1.397646     0.002617     0.000439     1.398085
	    9 R(4,10)         =      1.085593    -0.000096     0.000014     1.085607
	   10 R(5,6)          =      1.392389    -0.000149     0.000356     1.392745
	   11 R(5,11)         =      1.085429    -0.001280    -0.000063     1.085366
	   12 R(6,12)         =      1.088598    -0.010179    -0.001451     1.087147
	   13 R(7,13)         =      1.328515    -0.006681    -0.001034     1.327482
	   14 R(7,14)         =      1.328600    -0.007397    -0.000875     1.327725
	   15 R(13,17)        =      1.020164    -0.058828    -0.002604     1.017561
	   16 R(13,18)        =      1.017348    -0.026172     0.000212     1.017561
	   17 R(14,15)        =      1.019668    -0.042898    -0.000513     1.019155
	   18 R(14,16)        =      1.020305    -0.059551    -0.000487     1.019818
	   19 B(1,2,3)        =    119.516781    -0.000030    -0.145298   119.371483
	   20 B(1,2,8)        =    120.642007    -0.000012    -0.081679   120.560328
	   21 B(1,6,5)        =    119.515256    -0.000026    -0.122562   119.392694
	   22 B(1,6,12)       =    120.584055    -0.000008    -0.100476   120.483579
	   23 B(1,7,13)       =    119.759395    -0.000082    -0.378896   119.380499
	   24 B(1,7,14)       =    119.759987    -0.000087    -0.388987   119.371000
	   25 B(2,1,6)        =    120.394022     0.000057     0.249704   120.643726
	   26 B(2,1,7)        =    119.804460    -0.000043    -0.211262   119.593198
	   27 B(2,3,4)        =    120.099522    -0.000005    -0.007547   120.091975
	   28 B(2,3,9)        =    119.692831    -0.000005    -0.040016   119.652815
	   29 B(3,2,8)        =    119.796759     0.000042     0.228097   120.024856
	   30 B(3,4,5)        =    120.349570     0.000016     0.075724   120.425295
	   31 B(3,4,10)       =    119.825745    -0.000008    -0.036475   119.789270
	   32 B(4,3,9)        =    120.206066     0.000010     0.043881   120.249947
	   33 B(4,5,6)        =    120.099769    -0.000011    -0.038411   120.061357
	   34 B(4,5,11)       =    120.223796     0.000008     0.034168   120.257964
	   35 B(5,4,10)       =    119.824475    -0.000008    -0.039470   119.785005
	   36 B(5,6,12)       =    119.849802     0.000034     0.216430   120.066231
	   37 B(6,1,7)        =    119.788361    -0.000014    -0.096622   119.691738
	   38 B(6,5,11)       =    119.675786     0.000003     0.003112   119.678898
	   39 B(7,13,17)      =    119.740503    -0.000031    -0.485990   119.254513
	   40 B(7,13,18)      =    122.768559     0.000086     0.428149   123.196708
	   41 B(7,14,15)      =    122.832495     0.000077     0.454630   123.287125
	   42 B(7,14,16)      =    119.545024     0.000003    -0.557998   118.987025
	   43 B(13,7,14)      =    120.467871     0.000169     0.757660   121.225531
	   44 B(15,14,16)     =    117.577674    -0.000077     0.147801   117.725474
	   45 B(17,13,18)     =    117.446365    -0.000054     0.093917   117.540282
	   46 D(1,2,3,4)      =     -1.144968     0.000006     1.158443     0.013475
	   47 D(1,2,3,9)      =    178.398679     0.000004     0.782406   179.181084
	   48 D(1,6,5,4)      =     -1.635038     0.000004     0.675490    -0.959548
	   49 D(1,6,5,11)     =    178.072540     0.000003     0.483826   178.556366
	   50 D(1,7,13,17)    =      2.831224    -0.000033    -7.003977    -4.172753
	   51 D(1,7,13,18)    =   -179.660376    -0.000026    -5.599819  -185.260195
	   52 D(1,7,14,15)    =    179.061517    -0.000026    -5.735039   173.326479
	   53 D(1,7,14,16)    =      1.556666    -0.000039    -8.458394    -6.901727
	   54 D(2,1,6,5)      =      1.313527    -0.000001     0.109697     1.423224
	   55 D(2,1,6,12)     =    178.715352     0.000001    -0.047731   178.667621
	   56 *D(2,1,7,13)    =    129.999991     0.000000    -0.000000   129.999991
	   57 D(2,1,7,14)     =    -48.707509     0.000001     0.429122   -48.278387
	   58 D(2,3,4,5)      =      0.828433    -0.000002    -0.385643     0.442790
	   59 D(2,3,4,10)     =   -179.338347    -0.000002    -0.458010  -179.796357
	   60 D(3,2,1,6)      =      0.076932    -0.000004    -1.026511    -0.949579
	   61 D(3,2,1,7)      =   -178.600890     0.000002     0.732092  -177.868799
	   62 D(3,4,5,6)      =      0.578004    -0.000003    -0.541302     0.036702
	   63 D(3,4,5,11)     =   -179.127958    -0.000002    -0.348424  -179.476382
	   64 D(4,3,2,8)      =   -178.736006     0.000004     1.129935  -177.606071
	   65 D(4,5,6,12)     =   -179.056196     0.000003     0.840550  -178.215646
	   66 D(5,4,3,9)      =   -178.712852    -0.000001    -0.006953  -178.719805
	   67 D(5,6,1,7)      =    179.991562    -0.000007    -1.652137   178.339424
	   68 D(6,1,2,8)      =    177.647168    -0.000002    -0.990241   176.656927
	   69 D(6,1,7,13)     =    -48.685906     0.000006     1.737039   -46.948868
	   70 D(6,1,7,14)     =    132.606594     0.000007     2.166161   134.772754
	   71 D(6,5,4,10)     =   -179.255218    -0.000002    -0.468943  -179.724161
	   72 D(7,1,2,8)      =     -1.030653     0.000004     0.768361    -0.262292
	   73 D(7,1,6,12)     =     -2.606613    -0.000005    -1.809565    -4.416179
	   74 D(8,2,3,9)      =      0.807640     0.000003     0.753898     1.561538
	   75 D(9,3,4,10)     =      1.120368    -0.000001    -0.079320     1.041048
	   76 D(10,4,5,11)    =      1.038820    -0.000002    -0.276065     0.762755
	   77 D(11,5,6,12)    =      0.651382     0.000002     0.648886     1.300267
	   78 D(13,7,14,15)   =      0.363322    -0.000025    -5.282500    -4.919178
	   79 D(13,7,14,16)   =   -177.141529    -0.000038    -8.005855  -185.147384
	   80 D(14,7,13,17)   =   -178.470573    -0.000034    -7.456687  -185.927260
	   81 D(14,7,13,18)   =     -0.962173    -0.000028    -6.052529    -7.014702
	 ---------------------------------------------------------------------------
	Successfully symmetrized geometry.

  ==> Convergence Check <==

  Measures of convergence in internal coordinates in au.
  Criteria marked as inactive (o), active & met (*), and active & unmet ( ).
  ---------------------------------------------------------------------------------------------
   Step     Total Energy     Delta E     MAX Force     RMS Force      MAX Disp      RMS Disp   
  ---------------------------------------------------------------------------------------------
    Convergence Criteria    1.00e-06 *    3.00e-04 *             o    1.20e-03 *             o
  ---------------------------------------------------------------------------------------------
      2    -381.46837392   -3.41e-03      7.23e-03      1.52e-03 o    1.48e-01      3.85e-02 o  ~
  ---------------------------------------------------------------------------------------------

	Writing optimization data to binary file.
	Structure for next step:
	Cartesian Geometry (in Angstrom)
	    C    -0.0385030694  -0.0048077831  -0.1791893918
	    C     0.0020807132   1.2160566202   0.5139753118
	    C     0.0272526509   1.2104532325   1.9065341043
	    C     0.0124020319  -0.0016125508   2.6029806296
	    C    -0.0184085665  -1.2157536547   1.9104819656
	    C    -0.0337626706  -1.2244211486   0.5178484547
	    C    -0.0176479196  -0.0061087952  -1.6514471805
	    H     0.0529414279   2.1574817983  -0.0271955071
	    H     0.0721082554   2.1507978511   2.4465421819
	    H     0.0288049673  -0.0001730894   3.6884624304
	    H    -0.0384424956  -2.1550124917   2.4539982078
	    H    -0.0870016683  -2.1674710554  -0.0204005217
	    N     0.8461595679  -0.7861563012  -2.2898593227
	    N    -0.8394350990   0.7983359601  -2.3150640880
	    H    -0.8082516168   0.9189533026  -3.3265762285
	    H    -1.5427893440   1.3236558442  -1.7960653278
	    H     1.5232626369  -1.3226674470  -1.7521631589
	    H     0.8592311983  -0.8915512920  -3.3018625594
			--------------------------
			 OPTKING Finished Execution 
			--------------------------

    Structure for next step:
    Molecular point group: c1
    Full point group: C1

    Geometry (in Angstrom), charge = 1, multiplicity = 1:

    C           -0.038503069444    -0.004807783069    -0.179189391768
    C            0.002080713156     1.216056620234     0.513975311839
    C            0.027252650932     1.210453232486     1.906534104339
    C            0.012402031891    -0.001612550790     2.602980629615
    C           -0.018408566457    -1.215753654692     1.910481965559
    C           -0.033762670607    -1.224421148646     0.517848454739
    C           -0.017647919580    -0.006108795176    -1.651447180514
    H            0.052941427890     2.157481798295    -0.027195507104
    H            0.072108255408     2.150797851083     2.446542181936
    H            0.028804967320    -0.000173089443     3.688462430441
    H           -0.038442495562    -2.155012491651     2.453998207848
    H           -0.087001668281    -2.167471055373    -0.020400521725
    N            0.846159567904    -0.786156301188    -2.289859322652
    N           -0.839435099002     0.798335960061    -2.315064088024
    H           -0.808251616799     0.918953302626    -3.326576228528
    H           -1.542789343985     1.323655844244    -1.796065327776
    H            1.523262636910    -1.322667447033    -1.752163158877
    H            0.859231198306    -0.891551291970    -3.301862559350

gradient() will perform analytic gradient computation.

*** tstart() called on arancio.prib.upf.edu
*** at Sat Sep 29 20:52:15 2018

   => Loading Basis Set <=

    Name: 6-31G*
    Role: ORBITAL
    Keyword: BASIS
    atoms 1-7         entry C          line   111 file /shared/joao/test_parameterize/miniconda3/share/psi4/basis/6-31gs.gbs 
    atoms 8-12, 15-18 entry H          line    44 file /shared/joao/test_parameterize/miniconda3/share/psi4/basis/6-31gs.gbs 
    atoms 13-14       entry N          line   128 file /shared/joao/test_parameterize/miniconda3/share/psi4/basis/6-31gs.gbs 


         ---------------------------------------------------------
                                   SCF
            by Justin Turney, Rob Parrish, Andy Simmonett
                             and Daniel Smith
                              RKS Reference
                        4 Threads,   2861 MiB Core
         ---------------------------------------------------------

  ==> Geometry <==

    Molecular point group: c1
    Full point group: C1

    Geometry (in Angstrom), charge = 1, multiplicity = 1:

       Center              X                  Y                   Z               Mass       
[...]
	            -0.0000042575        0.0000004092       -0.0000006538
	             0.0000034150        0.0000012699        0.0000025326
	            -0.0000048242        0.0000045767       -0.0000003439
	             0.0021076009        0.0022987260        0.0000312906
	             0.0000007502       -0.0000352603        0.0000187843
	             0.0000084298        0.0000119982       -0.0000223694
	            -0.0000068488        0.0000095480       -0.0000097350
	             0.0000064824       -0.0000059398       -0.0000034761
	            -0.0000023210       -0.0000087283       -0.0000193544

	---Fragment 1 Intrafragment Coordinates---
	 - Coordinate -           - BOHR/RAD -       - ANG/DEG -
	 R(1,2)           =         2.656984	       1.406016
	 R(1,6)           =         2.657159	       1.406108
	 R(1,7)           =         2.777314	       1.469691
	 R(2,3)           =         2.630976	       1.392253
	 R(2,8)           =         2.052908	       1.086352
	 R(3,4)           =         2.641921	       1.398045
	 R(3,9)           =         2.050732	       1.085201
	 R(4,5)           =         2.642638	       1.398424
	 R(4,10)          =         2.051587	       1.085653
	 R(5,6)           =         2.630334	       1.391913
	 R(5,11)          =         2.050719	       1.085194
	 R(6,12)          =         2.053286	       1.086552
	 R(7,13)          =         2.509761	       1.328108
	 R(7,14)          =         2.510120	       1.328298
	 R(13,17)         =         1.912345	       1.011969
	 R(13,18)         =         1.915823	       1.013810
	 R(14,15)         =         1.915730	       1.013761
	 R(14,16)         =         1.912445	       1.012022
	 B(1,2,3)         =         2.083955	     119.401854
	 B(1,2,8)         =         2.101113	     120.384929
	 B(1,6,5)         =         2.084502	     119.433178
	 B(1,6,12)        =         2.100360	     120.341766
	 B(1,7,13)        =         2.087074	     119.580545
	 B(1,7,14)        =         2.087109	     119.582560
	 B(2,1,6)         =         2.104137	     120.558158
	 B(2,1,7)         =         2.086050	     119.521851
	 B(2,3,4)         =         2.095503	     120.063455
	 B(2,3,9)         =         2.089493	     119.719124
	 B(3,2,8)         =         2.097597	     120.183457
	 B(3,4,5)         =         2.103018	     120.494067
	 B(3,4,10)        =         2.090121	     119.755090
	 B(4,3,9)         =         2.098146	     120.214919
	 B(4,5,6)         =         2.094925	     120.030369
	 B(4,5,11)        =         2.098102	     120.212372
	 B(5,4,10)        =         2.090040	     119.750492
	 B(5,6,12)        =         2.097413	     120.172935
	 B(6,1,7)         =         2.091322	     119.823945
	 B(6,5,11)        =         2.090154	     119.757015
	 B(7,13,17)       =         2.086220	     119.531604
	 B(7,13,18)       =         2.149885	     123.179313
	 B(7,14,15)       =         2.150119	     123.192762
	 B(7,14,16)       =         2.085866	     119.511312
	 B(13,7,14)       =         2.108307	     120.797074
	 B(15,14,16)      =         2.046171	     117.236973
	 B(17,13,18)      =         2.047071	     117.288535
	 D(1,2,3,4)       =        -0.003925	      -0.224903
	 D(1,2,3,9)       =         3.127648	     179.201004
	 D(1,6,5,4)       =        -0.023227	      -1.330837
	 D(1,6,5,11)      =         3.115234	     178.489787
	 D(1,7,13,17)     =        -0.102936	      -5.897785
	 D(1,7,13,18)     =         3.043489	     174.379059
	 D(1,7,14,15)     =         3.019443	     173.001331
	 D(1,7,14,16)     =        -0.172273	      -9.870496
	 D(2,1,6,5)       =         0.028683	       1.643436
	 D(2,1,6,12)      =         3.124533	     179.022562
	*D(2,1,7,13)      =         2.268928	     129.999991
	 D(2,1,7,14)      =        -0.832933	     -47.723534
	 D(2,3,4,5)       =         0.009293	       0.532466
	 D(2,3,4,10)      =        -3.136075	    -179.683869
	 D(3,2,1,6)       =        -0.015080	      -0.864048
	 D(3,2,1,7)       =        -3.094375	    -177.294621
	 D(3,4,5,6)       =         0.004469	       0.256076
	 D(3,4,5,11)      =        -3.133978	    -179.563725
	 D(4,3,2,8)       =        -3.111023	    -178.248515
	 D(4,5,6,12)      =        -3.119156	    -178.714467
	 D(5,4,3,9)       =        -3.122229	    -178.890569
	 D(5,6,1,7)       =         3.107790	     178.063257
	 D(6,1,2,8)       =         3.091947	     177.155501
	 D(6,1,7,13)      =        -0.810830	     -46.457130
	 D(6,1,7,14)      =         2.370495	     135.819345
	 D(6,5,4,10)      =        -3.133348	    -179.527600
	 D(7,1,2,8)       =         0.012652	       0.724927
	 D(7,1,6,12)      =        -0.079545	      -4.557618
	 D(8,2,3,9)       =         0.020549	       1.177392
	 D(9,3,4,10)      =         0.015587	       0.893096
	 D(10,4,5,11)     =         0.011390	       0.652600
	 D(11,5,6,12)     =         0.019306	       1.106158
	 D(13,7,14,15)    =        -0.081924	      -4.693884
	 D(13,7,14,16)    =         3.009546	     172.434289
	 D(14,7,13,17)    =         2.998432	     171.797476
	 D(14,7,13,18)    =        -0.138329	      -7.925679

	Current energy   :      -381.4696759210

	Energy change for the previous step:
		Projected    :        -0.0000018946
		Actual       :        -0.0000002755
	Energy ratio indicates iffy step: Trust radius decreased to 6.250e-02.


	Performing BFGS update.
	Previous computed or guess Hessian on step 1.
	Steps to be used in Hessian update: 6 5
	Taking RFO optimization step.
	Going to follow RFO solution 1.
	Rejecting RFO root 1 because normalization gives large value.
	Rejecting RFO root 2 because normalization gives large value.
	Rejecting RFO root 3 because normalization gives large value.
	Using RFO vector 4.
	Norm of target step-size    0.00145
	Projected energy change by RFO approximation:        -0.0000000755

	Back-transformation to cartesian coordinates...
	Successfully converged to displaced geometry.

	Back-transformation to cartesian coordinates to adjust frozen coordinates...
	Successfully converged to displaced geometry.

	--- Internal Coordinate Step in ANG or DEG, aJ/ANG or AJ/DEG ---
	 ---------------------------------------------------------------------------
	   Coordinate                Previous        Force       Change         New 
	   ----------                --------       ------       ------       ------
	    1 R(1,2)          =      1.406016    -0.000073    -0.000008     1.406007
	    2 R(1,6)          =      1.406108    -0.000136    -0.000016     1.406092
	    3 R(1,7)          =      1.469691     0.000237     0.000050     1.469741
	    4 R(2,3)          =      1.392253     0.000033     0.000005     1.392257
	    5 R(2,8)          =      1.086352     0.000038     0.000006     1.086358
	    6 R(3,4)          =      1.398045    -0.000007    -0.000001     1.398043
	    7 R(3,9)          =      1.085201     0.000006     0.000001     1.085202
	    8 R(4,5)          =      1.398424    -0.000004    -0.000000     1.398423
	    9 R(4,10)         =      1.085653    -0.000003    -0.000001     1.085652
	   10 R(5,6)          =      1.391913     0.000035     0.000006     1.391918
	   11 R(5,11)         =      1.085194    -0.000006    -0.000001     1.085193
	   12 R(6,12)         =      1.086552     0.000034     0.000005     1.086557
	   13 R(7,13)         =      1.328108    -0.000136    -0.000014     1.328094
	   14 R(7,14)         =      1.328298     0.000020     0.000002     1.328300
	   15 R(13,17)        =      1.011969    -0.000041    -0.000002     1.011967
	   16 R(13,18)        =      1.013810    -0.000159    -0.000019     1.013791
	   17 R(14,15)        =      1.013761    -0.000185    -0.000021     1.013740
	   18 R(14,16)        =      1.012022    -0.000055    -0.000003     1.012020
	   19 B(1,2,3)        =    119.401854    -0.000000    -0.000208   119.401646
	   20 B(1,2,8)        =    120.384929     0.000000     0.001755   120.386685
	   21 B(1,6,5)        =    119.433178    -0.000000    -0.000680   119.432498
	   22 B(1,6,12)       =    120.341766     0.000000     0.001024   120.342790
	   23 B(1,7,13)       =    119.580545    -0.000002    -0.004553   119.575992
	   24 B(1,7,14)       =    119.582560    -0.000001    -0.002468   119.580093
	   25 B(2,1,6)        =    120.558158     0.000001     0.000826   120.558984
	   26 B(2,1,7)        =    119.521851     0.000001     0.001890   119.523741
	   27 B(2,3,4)        =    120.063455     0.000000     0.000261   120.063716
	   28 B(2,3,9)        =    119.719124    -0.000000    -0.001062   119.718063
	   29 B(3,2,8)        =    120.183457    -0.000000    -0.001280   120.182177
	   30 B(3,4,5)        =    120.494067    -0.000000    -0.000980   120.493087
	   31 B(3,4,10)       =    119.755090     0.000000     0.000486   119.755575
	   32 B(4,3,9)        =    120.214919     0.000000     0.000626   120.215545
	   33 B(4,5,6)        =    120.030369     0.000000     0.000966   120.031335
	   34 B(4,5,11)       =    120.212372     0.000000     0.000510   120.212882
	   35 B(5,4,10)       =    119.750492     0.000000     0.000474   119.750966
	   36 B(5,6,12)       =    120.172935    -0.000000    -0.000952   120.171983
	   37 B(6,1,7)        =    119.823945    -0.000001    -0.002385   119.821561
	   38 B(6,5,11)       =    119.757015    -0.000000    -0.001534   119.755481
	   39 B(7,13,17)      =    119.531604    -0.000001    -0.003258   119.528346
	   40 B(7,13,18)      =    123.179313     0.000000     0.001304   123.180617
	   41 B(7,14,15)      =    123.192762     0.000000     0.002214   123.194976
	   42 B(7,14,16)      =    119.511312    -0.000001    -0.006500   119.504811
	   43 B(13,7,14)      =    120.797074     0.000003     0.006771   120.803844
	   44 B(15,14,16)     =    117.236973     0.000001     0.003576   117.240548
	   45 B(17,13,18)     =    117.288535     0.000000     0.001845   117.290381
	   46 D(1,2,3,4)      =     -0.224903     0.000000     0.022422    -0.202481
	   47 D(1,2,3,9)      =    179.201004     0.000000     0.002774   179.203778
	   48 D(1,6,5,4)      =     -1.330837     0.000000     0.015956    -1.314881
	   49 D(1,6,5,11)     =    178.489787     0.000000    -0.004154   178.485634
	   50 D(1,7,13,17)    =     -5.897785     0.000000     0.002970    -5.894815
	   51 D(1,7,13,18)    =    174.379059     0.000000     0.029178   174.408238
	   52 D(1,7,14,15)    =    173.001331     0.000000     0.014119   173.015450
	   53 D(1,7,14,16)    =     -9.870496    -0.000000    -0.003030    -9.873526
	   54 D(2,1,6,5)      =      1.643436     0.000000    -0.001760     1.641676
	   55 D(2,1,6,12)     =    179.022562     0.000000    -0.017016   179.005546
	   56 *D(2,1,7,13)    =    129.999991     0.000000     0.000000   129.999991
	   57 D(2,1,7,14)     =    -47.723534     0.000000     0.006955   -47.716579
	   58 D(2,3,4,5)      =      0.532466    -0.000000    -0.008413     0.524053
	   59 D(2,3,4,10)     =   -179.683869    -0.000000    -0.014349  -179.698218
	   60 D(3,2,1,6)      =     -0.864048    -0.000000    -0.017471    -0.881518
	   61 D(3,2,1,7)      =   -177.294621    -0.000000    -0.023550  -177.318171
	   62 D(3,4,5,6)      =      0.256076    -0.000000    -0.011041     0.245034
	   63 D(3,4,5,11)     =   -179.563725    -0.000000     0.009165  -179.554560
	   64 D(4,3,2,8)      =   -178.248515     0.000000     0.013501  -178.235014
	   65 D(4,5,6,12)     =   -178.714467     0.000000     0.031132  -178.683335
	   66 D(5,4,3,9)      =   -178.890569     0.000000     0.011344  -178.879226
	   67 D(5,6,1,7)      =    178.063257    -0.000000     0.004490   178.067746
	   68 D(6,1,2,8)      =    177.155501    -0.000000    -0.008592   177.146909
	   69 D(6,1,7,13)     =    -46.457130     0.000000    -0.006148   -46.463278
	   70 D(6,1,7,14)     =    135.819345     0.000000     0.000806   135.820151
	   71 D(6,5,4,10)     =   -179.527600    -0.000000    -0.005105  -179.532704
	   72 D(7,1,2,8)      =      0.724927    -0.000000    -0.014671     0.710256
	   73 D(7,1,6,12)     =     -4.557618     0.000000    -0.010766    -4.568384
	   74 D(8,2,3,9)      =      1.177392    -0.000000    -0.006147     1.171244
	   75 D(9,3,4,10)     =      0.893096     0.000000     0.005407     0.898503
	   76 D(10,4,5,11)    =      0.652600     0.000000     0.015101     0.667702
	   77 D(11,5,6,12)    =      1.106158    -0.000000     0.011022     1.117180
	   78 D(13,7,14,15)   =     -4.693884     0.000000     0.021428    -4.672457
	   79 D(13,7,14,16)   =    172.434289     0.000000     0.004278   172.438567
	   80 D(14,7,13,17)   =    171.797476    -0.000000    -0.004291   171.793185
	   81 D(14,7,13,18)   =     -7.925679     0.000000     0.021918    -7.903762
	 ---------------------------------------------------------------------------
	Successfully symmetrized geometry.

  ==> Convergence Check <==

  Measures of convergence in internal coordinates in au.
  Criteria marked as inactive (o), active & met (*), and active & unmet ( ).
  ---------------------------------------------------------------------------------------------
   Step     Total Energy     Delta E     MAX Force     RMS Force      MAX Disp      RMS Disp   
  ---------------------------------------------------------------------------------------------
    Convergence Criteria    1.00e-06 *    3.00e-04 *             o    1.20e-03 *             o
  ---------------------------------------------------------------------------------------------
      7    -381.46967592   -2.75e-07 *    3.52e-05 *    8.69e-06 o    5.43e-04 *    1.61e-04 o  ~
  ---------------------------------------------------------------------------------------------


  **** Optimization is complete! (in 7 steps) ****

  ==> Optimization Summary <==

  Measures of convergence in internal coordinates in au.
  --------------------------------------------------------------------------------------------------------------- ~
   Step         Total Energy             Delta E       MAX Force       RMS Force        MAX Disp        RMS Disp  ~
  --------------------------------------------------------------------------------------------------------------- ~
      1    -381.464964496210   -381.464964496210      0.00414243      0.00144808      0.16115094      0.04994502  ~
      2    -381.468373922225     -0.003409426015      0.00722820      0.00151649      0.14762682      0.03854895  ~
      3    -381.469487079438     -0.001113157213      0.00679563      0.00118427      0.03786798      0.00867624  ~
      4    -381.469666307391     -0.000179227953      0.00096841      0.00015710      0.01227779      0.00281298  ~
      5    -381.469674162592     -0.000007855201      0.00020691      0.00005878      0.00575295      0.00142071  ~
      6    -381.469675645542     -0.000001482950      0.00011215      0.00002449      0.00225653      0.00054017  ~
      7    -381.469675921002     -0.000000275460      0.00003521      0.00000869      0.00054336      0.00016127  ~
  --------------------------------------------------------------------------------------------------------------- ~

	Writing optimization data to binary file.
	Final energy is   -381.4696759210021
	Final (previous) structure:
	Cartesian Geometry (in Angstrom)
	    C    -0.0459126206  -0.0071201021  -0.1779385755
	    C    -0.0020623716   1.2150450140   0.5157973727
	    C     0.0316911904   1.2101092477   1.9076320465
	    C     0.0171392080  -0.0019247820   2.6042598536
	    C    -0.0200690179  -1.2171507857   1.9132968986
	    C    -0.0375451581  -1.2268807028   0.5215279998
	    C    -0.0212662472  -0.0070225080  -1.6474230730
	    H     0.0378401314   2.1545386331  -0.0281883347
	    H     0.0787302622   2.1500454392   2.4479728690
	    H     0.0384139807   0.0001953542   3.6897024387
	    H    -0.0383705996  -2.1551248143   2.4587460363
	    H    -0.0875138026  -2.1690191796  -0.0174281533
	    N     0.8398207565  -0.7887592585  -2.2887411620
	    N    -0.8287426371   0.8080562903  -2.3167548785
	    H    -0.7863858782   0.9286156593  -3.3224298249
	    H    -1.5544637871   1.3091566059  -1.8203511044
	    H     1.5298955491  -1.3084549626  -1.7616785043
	    H     0.8488020417  -0.8943061480  -3.2970019045
	Saving final (previous) structure.
	Removing binary optimization data file.
			--------------------------
			 OPTKING Finished Execution 
			--------------------------

    Final optimized geometry and variables:
    Molecular point group: c1
    Full point group: C1

    Geometry (in Angstrom), charge = 1, multiplicity = 1:

    C           -0.045912620583    -0.007120102116    -0.177938575549
    C           -0.002062371631     1.215045013952     0.515797372677
    C            0.031691190383     1.210109247681     1.907632046491
    C            0.017139207964    -0.001924782037     2.604259853562
    C           -0.020069017947    -1.217150785718     1.913296898621
    C           -0.037545158113    -1.226880702810     0.521527999765
    C           -0.021266247246    -0.007022507990    -1.647423073014
    H            0.037840131446     2.154538633058    -0.028188334668
    H            0.078730262193     2.150045439174     2.447972868975
    H            0.038413980705     0.000195354165     3.689702438658
    H           -0.038370599557    -2.155124814313     2.458746036321
    H           -0.087513802628    -2.169019179555    -0.017428153270
    N            0.839820756547    -0.788759258513    -2.288741162027
    N           -0.828742637060     0.808056290330    -2.316754878459
    H           -0.786385878165     0.928615659312    -3.322429824878
    H           -1.554463787095     1.309156605945    -1.820351104412
    H            1.529895549062    -1.308454962579    -1.761678504291
    H            0.848802041724    -0.894306147986    -3.297001904502

	Removing binary optimization data file.
	Cleaning optimization helper files.


Properties will be evaluated at   0.000000,   0.000000,   0.000000 [a0]
OEProp: No title given, name of density matrix used for the following properties is 'SCF density'
  Nuclear Dipole Moment: [e a0]
     X:    -0.6116      Y:    -0.1114      Z:    -0.1251

  Electronic Dipole Moment: [e a0]
     X:     0.6243      Y:     0.1129      Z:    -2.2002

  Dipole Moment: [e a0]
     X:     0.0127      Y:     0.0015      Z:    -2.3253     Total:     2.3254

  Dipole Moment: [D]
     X:     0.0323      Y:     0.0039      Z:    -5.9104     Total:     5.9105

  Quadrupole Moment: [D A]
    XX:   -47.8437     YY:   -39.3947     ZZ:   -13.4830
    XY:    -6.0910     XZ:     0.1127     YZ:    -0.2051

  Traceless Quadrupole Moment: [D A]
    XX:   -14.2699     YY:    -5.8209     ZZ:    20.0908
    XY:    -6.0910     XZ:     0.1127     YZ:    -0.2051

  Mulliken Charges: (a.u.)
   Center  Symbol    Alpha    Beta     Spin     Total
       1     C     2.96834  2.96834  0.00000  0.06332
       2     C     3.07726  3.07726  0.00000 -0.15452
       3     C     3.06224  3.06224  0.00000 -0.12448
       4     C     3.05197  3.05197  0.00000 -0.10395
       5     C     3.06297  3.06297  0.00000 -0.12594
       6     C     3.08029  3.08029  0.00000 -0.16058
       7     C     2.73024  2.73024  0.00000  0.53953
       8     H     0.41359  0.41359  0.00000  0.17282
       9     H     0.40585  0.40585  0.00000  0.18829
      10     H     0.40460  0.40460  0.00000  0.19079
      11     H     0.40587  0.40587  0.00000  0.18825
      12     H     0.41358  0.41358  0.00000  0.17285
      13     N     3.85689  3.85689  0.00000 -0.71379
      14     N     3.85824  3.85824  0.00000 -0.71649
      15     H     0.30557  0.30557  0.00000  0.38886
      16     H     0.29848  0.29848  0.00000  0.40304
      17     H     0.29844  0.29844  0.00000  0.40311
      18     H     0.30556  0.30556  0.00000  0.38888

   Total alpha = 32.00000, Total beta = 32.00000, Total charge =  1.00000


    Psi4 stopped on: Saturday, 29 September 2018 08:54PM
    Psi4 wall time for execution: 0:02:58.97

*** Psi4 exiting successfully. Buy a developer a beer!
