
    -----------------------------------------------------------------------
          Psi4: An Open-Source Ab Initio Electronic Structure Package
                               Psi4 1.2.1 release

                         Git: Rev {HEAD} 406f4de 


    R. M. Parrish, L. A. Burns, D. G. A. Smith, A. C. Simmonett,
    A. E. DePrince III, E. G. Hohenstein, U. Bozkaya, A. Yu. Sokolov,
    R. Di Remigio, R. M. Richard, J. F. Gonthier, A. M. James,
    H. R. McAlexander, A. Kumar, M. Saitow, X. Wang, B. P. Pritchard,
    P. Verma, H. F. Schaefer III, K. Patkowski, R. A. King, E. F. Valeev,
    F. A. Evangelista, J. M. Turney, T. D. Crawford, and C. D. Sherrill,
    J. Chem. Theory Comput. 13(7) pp 3185--3197 (2017).
    (doi: 10.1021/acs.jctc.7b00174)


                         Additional Contributions by
    P. Kraus, H. Kruse, M. H. Lechner, M. C. Schieber, and R. A. Shaw

    -----------------------------------------------------------------------


    Psi4 started on: Saturday, 29 September 2018 08:45PM

    Process ID: 493
    Host:       arancio.prib.upf.edu
    PSIDATADIR: /shared/joao/test_parameterize/miniconda3/share/psi4
    Memory:     500.0 MiB
    Threads:    1
    
  ==> Input File <==

--------------------------------------------------------------------------
set_num_threads(4)
set_memory('3000 MB')

set { scf_mem_safety_factor 0.7 }

set { reference rks }
set { basis 6-31G* }

molecule MOL {
    1 1
    noreorient
    nocom
    symmetry c1
    C   -0.000000  -0.000000  -0.177864
    C    0.036678   1.219374   0.524165
    C    0.031765   1.213120   1.915444
    C    0.000000   0.000000   2.610107
    C   -0.031765  -1.213120   1.915444
    C   -0.036678  -1.219375   0.524165
    C   -0.000000   0.000000  -1.644734
    H    0.018170   2.164705  -0.010854
    H    0.042402   2.152895   2.457886
    H    0.000000   0.000000   3.695756
    H   -0.042402  -2.152895   2.457886
    H   -0.018170  -2.164705  -0.010853
    N   -0.714007   0.904833  -2.308460
    N    0.714007  -0.904833  -2.308461
    H    0.820900  -0.890289  -3.315997
    H    1.122369  -1.686726  -1.813317
    H   -1.122369   1.686726  -1.813316
    H   -0.820900   0.890290  -3.315997
}

set optking { frozen_dihedral = (" 2 1 7 13 ") }

set optking { dynamic_level = 1 
 geom_maxiter = 250
 print_trajectory_xyz_file = True }

energy, wfn = optimize('B3LYP-D3', return_wfn=True)

import os
os.chdir(os.environ['HTMD_PSI4_WORKDIR'])

oeprop(wfn, 'DIPOLE', 'QUADRUPOLE', 'MULLIKEN_CHARGES')

with open('psi4out.xyz', 'w') as f:
    f.write('18 ' )
    f.write('%.12f\n' % energy)
    f.write(MOL.save_string_xyz())
--------------------------------------------------------------------------
  Threads set to 4 by Python driver.

  Memory set to   2.794 GiB by Python driver.
gradient() will perform analytic gradient computation.

*** tstart() called on arancio.prib.upf.edu
*** at Sat Sep 29 20:45:33 2018

   => Loading Basis Set <=

    Name: 6-31G*
    Role: ORBITAL
    Keyword: BASIS
    atoms 1-7         entry C          line   111 file /shared/joao/test_parameterize/miniconda3/share/psi4/basis/6-31gs.gbs 
    atoms 8-12, 15-18 entry H          line    44 file /shared/joao/test_parameterize/miniconda3/share/psi4/basis/6-31gs.gbs 
    atoms 13-14       entry N          line   128 file /shared/joao/test_parameterize/miniconda3/share/psi4/basis/6-31gs.gbs 


         ---------------------------------------------------------
                                   SCF
            by Justin Turney, Rob Parrish, Andy Simmonett
                             and Daniel Smith
                              RKS Reference
                        4 Threads,   2861 MiB Core
         ---------------------------------------------------------

  ==> Geometry <==

    Molecular point group: c1
    Full point group: C1

    Geometry (in Angstrom), charge = 1, multiplicity = 1:

       Center              X                  Y                   Z               Mass       
    ------------   -----------------  -----------------  -----------------  -----------------
         C            0.000000000000     0.000000000000    -0.177864000000    12.000000000000
         C            0.036678000000     1.219374000000     0.524165000000    12.000000000000
         C            0.031765000000     1.213120000000     1.915444000000    12.000000000000
         C            0.000000000000     0.000000000000     2.610107000000    12.000000000000
         C           -0.031765000000    -1.213120000000     1.915444000000    12.000000000000
         C           -0.036678000000    -1.219375000000     0.524165000000    12.000000000000
         C            0.000000000000     0.000000000000    -1.644734000000    12.000000000000
         H            0.018170000000     2.164705000000    -0.010854000000     1.007825032070
         H            0.042402000000     2.152895000000     2.457886000000     1.007825032070
         H            0.000000000000     0.000000000000     3.695756000000     1.007825032070
         H           -0.042402000000    -2.152895000000     2.457886000000     1.007825032070
         H           -0.018170000000    -2.164705000000    -0.010853000000     1.007825032070
         N           -0.714007000000     0.904833000000    -2.308460000000    14.003074004780
         N            0.714007000000    -0.904833000000    -2.308461000000    14.003074004780
         H            0.820900000000    -0.890289000000    -3.315997000000     1.007825032070
         H            1.122369000000    -1.686726000000    -1.813317000000     1.007825032070
         H           -1.122369000000     1.686726000000    -1.813316000000     1.007825032070
         H           -0.820900000000     0.890290000000    -3.315997000000     1.007825032070

  Running in c1 symmetry.

  Rotational constants: A =      0.12190  B =      0.03946  C =      0.03136 [cm^-1]
  Rotational constants: A =   3654.48807  B =   1182.86874  C =    940.27214 [MHz]
  Nuclear repulsion =  416.921289779880965

  Charge       = 1
  Multiplicity = 1
  Electrons    = 64
  Nalpha       = 32
  Nbeta        = 32

  ==> Algorithm <==

  SCF Algorithm Type is DF.
  DIIS enabled.
  MOM disabled.
  Fractional occupation disabled.
  Guess Type is SAD.
  Energy threshold   = 1.00e-08
  Density threshold  = 1.00e-08
  Integral threshold = 0.00e+00

  ==> Primary Basis <==

  Basis Set: 6-31G*
    Blend: 6-31G*
    Number of shells: 72
    Number of basis function: 153
    Number of Cartesian functions: 153
    Spherical Harmonics?: false
    Max angular momentum: 2

  ==> DFT Potential <==

   => Composite Functional: B3LYP-D3ZERO <= 

    B3LYP-d3zero Hyb-GGA Exchange-Correlation Functional

    P. J. Stephens, F. J. Devlin, C. F. Chabalowski, and M. J. Frisch, J. Phys. Chem. 98, 11623 (1994)

    Deriv               =              1
    GGA                 =           TRUE
    Meta                =          FALSE

    Exchange Hybrid     =           TRUE
    MP2 Hybrid          =          FALSE

   => Exchange Functionals <=

    0.0800   Slater exchange
    0.7200         Becke 88

   => Exact (HF) Exchange <=

    0.2000               HF 

   => Correlation Functionals <=

    0.1900   Vosko, Wilk & Nusair (VWN5_RPA)
    0.8100   Lee, Yang & Parr

   => Molecular Quadrature <=

    Radial Scheme       =       TREUTLER
    Pruning Scheme      =           FLAT
    Nuclear Scheme      =       TREUTLER

    BS radius alpha     =              1
    Pruning alpha       =              1
    Radial Points       =             75
    Spherical Points    =            302
    Total Points        =         396864
    Total Blocks        =           2987
    Max Points          =            256
    Max Functions       =            149

   => -D3ZERO: Empirical Dispersion <=

    Grimme's -D3 (zero-damping) Dispersion Correction
    Grimme S.; Antony J.; Ehrlich S.; Krieg H. (2010), J. Chem. Phys., 132: 154104

        S6 =   1.000000E+00
        S8 =   1.703000E+00
       SR6 =   1.261000E+00
       SR8 =   1.000000E+00
    ALPHA6 =   1.400000E+01

   => Loading Basis Set <=

    Name: (6-31G* AUX)
    Role: JKFIT
    Keyword: DF_BASIS_SCF
    atoms 1-7         entry C          line   121 file /shared/joao/test_parameterize/miniconda3/share/psi4/basis/cc-pvdz-jkfit.gbs 
    atoms 8-12, 15-18 entry H          line    51 file /shared/joao/test_parameterize/miniconda3/share/psi4/basis/cc-pvdz-jkfit.gbs 
    atoms 13-14       entry N          line   171 file /shared/joao/test_parameterize/miniconda3/share/psi4/basis/cc-pvdz-jkfit.gbs 

  ==> Pre-Iterations <==

   -------------------------------------------------------
    Irrep   Nso     Nmo     Nalpha   Nbeta   Ndocc  Nsocc
   -------------------------------------------------------
     A        153     153       0       0       0       0
   -------------------------------------------------------
    Total     153     153      32      32      32       0
   -------------------------------------------------------

  ==> Integral Setup <==

  ==> DiskDFJK: Density-Fitted J/K Matrices <==

    J tasked:                  Yes
    K tasked:                  Yes
    wK tasked:                  No
    OpenMP threads:              4
    Integrals threads:           4
    Memory (MB):              2002
    Algorithm:                Core
    Integral Cache:           NONE
    Schwarz Cutoff:          1E-12
    Fitting Condition:       1E-12

   => Auxiliary Basis Set <=

  Basis Set: (6-31G* AUX)
    Blend: CC-PVDZ-JKFIT
    Number of shells: 297
    Number of basis function: 954
    Number of Cartesian functions: 954
    Spherical Harmonics?: false
    Max angular momentum: 3

  Minimum eigenvalue in the overlap matrix is 4.8497089667E-04.
  Using Symmetric Orthogonalization.

  SCF Guess: Superposition of Atomic Densities via on-the-fly atomic UHF.

  ==> Iterations <==

                           Total Energy        Delta E     RMS |[F,P]|

   @DF-RKS iter   0:  -379.48132650620101   -3.79481e+02   6.67309e-02 
   @DF-RKS iter   1:  -381.00792640513833   -1.52660e+00   1.23264e-02 
   @DF-RKS iter   2:  -380.89525317049259    1.12673e-01   1.38007e-02 DIIS
   @DF-RKS iter   3:  -381.45393753450645   -5.58684e-01   2.04990e-03 DIIS
   @DF-RKS iter   4:  -381.46305521968316   -9.11769e-03   9.01987e-04 DIIS
   @DF-RKS iter   5:  -381.46508288807058   -2.02767e-03   2.49079e-04 DIIS
   @DF-RKS iter   6:  -381.46523719812785   -1.54310e-04   7.99912e-05 DIIS
   @DF-RKS iter   7:  -381.46525434811019   -1.71500e-05   1.93651e-05 DIIS
   @DF-RKS iter   8:  -381.46525541345255   -1.06534e-06   7.22224e-06 DIIS
   @DF-RKS iter   9:  -381.46525557939077   -1.65938e-07   2.16618e-06 DIIS
   @DF-RKS iter  10:  -381.46525559281963   -1.34289e-08   6.13109e-07 DIIS
   @DF-RKS iter  11:  -381.46525559387555   -1.05592e-09   1.24561e-07 DIIS
   @DF-RKS iter  12:  -381.46525559390284   -2.72848e-11   8.57207e-08 DIIS
   @DF-RKS iter  13:  -381.46525559392808   -2.52385e-11   1.55490e-08 DIIS
   @DF-RKS iter  14:  -381.46525559392768    3.97904e-13   7.70307e-09 DIIS

  ==> Post-Iterations <==

    Orbital Energies [Eh]
    ---------------------

    Doubly Occupied:                                                      

       1A    -14.569926     2A    -14.569919     3A    -10.500217  
       4A    -10.374124     5A    -10.356999     6A    -10.356990  
       7A    -10.341422     8A    -10.340378     9A    -10.340239  
      10A     -1.186032    11A     -1.094059    12A     -1.014485  
      13A     -0.927143    14A     -0.902683    15A     -0.847012  
      16A     -0.786934    17A     -0.775408    18A     -0.742528  
      19A     -0.734557    20A     -0.690344    21A     -0.669112  
      22A     -0.628037    23A     -0.618201    24A     -0.588730  
      25A     -0.578701    26A     -0.576468    27A     -0.516449  
      28A     -0.507022    29A     -0.498659    30A     -0.472995  
      31A     -0.409074    32A     -0.405443  

    Virtual:                                                              

      33A     -0.214453    34A     -0.157221    35A     -0.137910  
      36A     -0.110921    37A     -0.073555    38A     -0.065081  
      39A     -0.038673    40A     -0.036247    41A      0.010315  
      42A      0.022591    43A      0.026049    44A      0.063190  
      45A      0.066563    46A      0.080278    47A      0.122546  
      48A      0.153640    49A      0.156840    50A      0.163857  
      51A      0.209293    52A      0.238072    53A      0.297807  
      54A      0.347560    55A      0.352656    56A      0.376793  
      57A      0.389601    58A      0.397363    59A      0.419155  
      60A      0.423499    61A      0.445027    62A      0.448069  
      63A      0.448475    64A      0.470360    65A      0.470546  
      66A      0.475108    67A      0.483797    68A      0.502470  
      69A      0.511150    70A      0.542331    71A      0.545922  
      72A      0.581661    73A      0.611196    74A      0.649649  
      75A      0.662213    76A      0.679827    77A      0.688725  
      78A      0.705717    79A      0.716650    80A      0.729050  
      81A      0.759578    82A      0.776860    83A      0.777417  
      84A      0.798757    85A      0.816290    86A      0.845652  
      87A      0.848565    88A      0.936485    89A      0.970750  
      90A      0.993328    91A      1.001125    92A      1.024457  
      93A      1.027401    94A      1.057397    95A      1.138751  
      96A      1.181391    97A      1.231922    98A      1.273996  
      99A      1.274783   100A      1.308130   101A      1.321922  
     102A      1.341508   103A      1.359252   104A      1.369904  
     105A      1.391081   106A      1.453085   107A      1.506105  
     108A      1.616416   109A      1.620631   110A      1.650504  
     111A      1.683184   112A      1.736634   113A      1.754151  
     114A      1.801407   115A      1.820866   116A      1.857842  
     117A      1.898130   118A      1.902000   119A      1.945556  
     120A      1.977423   121A      1.994720   122A      2.020987  
     123A      2.037109   124A      2.075169   125A      2.130922  
     126A      2.135650   127A      2.154958   128A      2.186732  
     129A      2.225500   130A      2.258091   131A      2.348293  
     132A      2.366742   133A      2.441974   134A      2.449284  
     135A      2.491065   136A      2.533034   137A      2.546680  
     138A      2.589998   139A      2.607840   140A      2.630754  
     141A      2.735873   142A      2.883044   143A      2.979454  
     144A      3.257391   145A      3.634463   146A      3.659121  
     147A      3.917082   148A      3.950262   149A      3.964107  
     150A      4.058809   151A      4.173927   152A      4.257248  
     153A      4.545095  

    Final Occupation by Irrep:
              A 
    DOCC [    32 ]

  Energy converged.

  @DF-RKS Final Energy:  -381.46525559392768

   => Energetics <=

    Nuclear Repulsion Energy =            416.9212897798809649
    One-Electron Energy =               -1328.9849409700495926
    Two-Electron Energy =                 575.0159425685209271
    DFT Exchange-Correlation Energy =     -44.4057238222799526
    Empirical Dispersion Energy =          -0.0118231500000000
    VV10 Nonlocal Energy =                  0.0000000000000000
    Total Energy =                       -381.4652555939276795



Properties will be evaluated at   0.000000,   0.000000,   0.000000 [a0]

Properties computed using the SCF density matrix

  Nuclear Dipole Moment: [e a0]
     X:     0.0000      Y:    -0.0000      Z:     0.0248

  Electronic Dipole Moment: [e a0]
     X:    -0.0000      Y:     0.0000      Z:    -2.3395

  Dipole Moment: [e a0]
     X:    -0.0000      Y:     0.0000      Z:    -2.3148     Total:     2.3148

  Dipole Moment: [D]
     X:    -0.0000      Y:     0.0000      Z:    -5.8836     Total:     5.8836


*** tstop() called on arancio.prib.upf.edu at Sat Sep 29 20:45:59 2018
Module time:
	user time   =      93.61 seconds =       1.56 minutes
	system time =       0.57 seconds =       0.01 minutes
	total time  =         26 seconds =       0.43 minutes
Total time:
	user time   =      93.61 seconds =       1.56 minutes
	system time =       0.57 seconds =       0.01 minutes
	total time  =         26 seconds =       0.43 minutes

*** tstart() called on arancio.prib.upf.edu
*** at Sat Sep 29 20:45:59 2018


         ------------------------------------------------------------
                                   SCF GRAD                          
                          Rob Parrish, Justin Turney,                
                       Andy Simmonett, and Alex Sokolov              
         ------------------------------------------------------------

  ==> Geometry <==

    Molecular point group: c1
    Full point group: C1

    Geometry (in Angstrom), charge = 1, multiplicity = 1:

       Center              X                  Y                   Z               Mass       
    ------------   -----------------  -----------------  -----------------  -----------------
         C            0.000000000000     0.000000000000    -0.177864000000    12.000000000000
         C            0.036678000000     1.219374000000     0.524165000000    12.000000000000
         C            0.031765000000     1.213120000000     1.915444000000    12.000000000000
         C            0.000000000000     0.000000000000     2.610107000000    12.000000000000
         C           -0.031765000000    -1.213120000000     1.915444000000    12.000000000000
         C           -0.036678000000    -1.219375000000     0.524165000000    12.000000000000
         C            0.000000000000     0.000000000000    -1.644734000000    12.000000000000
         H            0.018170000000     2.164705000000    -0.010854000000     1.007825032070
         H            0.042402000000     2.152895000000     2.457886000000     1.007825032070
         H            0.000000000000     0.000000000000     3.695756000000     1.007825032070
         H           -0.042402000000    -2.152895000000     2.457886000000     1.007825032070
         H           -0.018170000000    -2.164705000000    -0.010853000000     1.007825032070
         N           -0.714007000000     0.904833000000    -2.308460000000    14.003074004780
         N            0.714007000000    -0.904833000000    -2.308461000000    14.003074004780
         H            0.820900000000    -0.890289000000    -3.315997000000     1.007825032070
         H            1.122369000000    -1.686726000000    -1.813317000000     1.007825032070
         H           -1.122369000000     1.686726000000    -1.813316000000     1.007825032070
         H           -0.820900000000     0.890290000000    -3.315997000000     1.007825032070

  Nuclear repulsion =  416.921289779880965

  ==> Basis Set <==

  Basis Set: 6-31G*
    Blend: 6-31G*
    Number of shells: 72
    Number of basis function: 153
    Number of Cartesian functions: 153
    Spherical Harmonics?: false
    Max angular momentum: 2

  ==> DFJKGrad: Density-Fitted SCF Gradients <==

    Gradient:                    1
    J tasked:                  Yes
    K tasked:                  Yes
    wK tasked:                  No
    OpenMP threads:              4
    Integrals threads:           4
    Memory (MB):              2002
    Schwarz Cutoff:          0E+00
    Fitting Condition:       1E-12

   => Auxiliary Basis Set <=

  Basis Set: (6-31G* AUX)
    Blend: CC-PVDZ-JKFIT
    Number of shells: 297
    Number of basis function: 954
    Number of Cartesian functions: 954
    Spherical Harmonics?: false
    Max angular momentum: 3

  ==> DFT Potential <==

   => Composite Functional: B3LYP-D3ZERO <= 

    B3LYP-d3zero Hyb-GGA Exchange-Correlation Functional

    P. J. Stephens, F. J. Devlin, C. F. Chabalowski, and M. J. Frisch, J. Phys. Chem. 98, 11623 (1994)

    Deriv               =              1
    GGA                 =           TRUE
    Meta                =          FALSE

    Exchange Hybrid     =           TRUE
    MP2 Hybrid          =          FALSE

   => Exchange Functionals <=

    0.0800   Slater exchange
    0.7200         Becke 88

   => Exact (HF) Exchange <=

    0.2000               HF 

   => Correlation Functionals <=

    0.1900   Vosko, Wilk & Nusair (VWN5_RPA)
    0.8100   Lee, Yang & Parr

   => Molecular Quadrature <=

    Radial Scheme       =       TREUTLER
    Pruning Scheme      =           FLAT
    Nuclear Scheme      =       TREUTLER

    BS radius alpha     =              1
    Pruning alpha       =              1
    Radial Points       =             75
    Spherical Points    =            302
    Total Points        =         396864
    Total Blocks        =           2987
    Max Points          =            256
    Max Functions       =            149


  -Total Gradient:
     Atom            X                  Y                   Z
    ------   -----------------  -----------------  -----------------
       1       -0.000000015482     0.000000448261    -0.004695600541
       2        0.008415475821     0.002023884506     0.001125294969
       3        0.000495050431     0.000329686881    -0.000458268212
       4       -0.000000001078    -0.000000089147     0.000193304156
       5       -0.000495045429    -0.000329473200    -0.000458194184
       6       -0.008415476520    -0.002025278193     0.001124949989
       7       -0.000000168042     0.000000244036     0.003924396050
       8       -0.004191367910    -0.000736997502    -0.000758191492
       9       -0.000923338112     0.000002287166     0.000027546589
      10       -0.000000000520     0.000000006813     0.000073386368
      11        0.000923336582    -0.000002268777     0.000027477087
      12        0.004191347351     0.000737789895    -0.000757689685
      13       -0.004540648079    -0.002064434724    -0.000070358184
      14        0.004540976008     0.002064136440    -0.000071581331
      15        0.002959425588     0.002048039972     0.000273440631
      16       -0.004370457542    -0.002501338669     0.000111797149
      17        0.004370431739     0.002501378704     0.000111749517
      18       -0.002959524867    -0.002048022359     0.000272588858


*** tstop() called on arancio.prib.upf.edu at Sat Sep 29 20:46:06 2018
Module time:
	user time   =      26.52 seconds =       0.44 minutes
	system time =       0.21 seconds =       0.00 minutes
	total time  =          7 seconds =       0.12 minutes
Total time:
	user time   =     120.20 seconds =       2.00 minutes
	system time =       0.79 seconds =       0.01 minutes
	total time  =         33 seconds =       0.55 minutes

			-----------------------------------------
			 OPTKING 2.0: for geometry optimizations 
			  - R.A. King,  Bethel University        
			-----------------------------------------
	At level 1: Red. Int., RFO, no backsteps, dynamic trust

	Internal coordinates to be generated automatically.
	Detected frag 1 with atoms:  1 2 3 4 5 6 7 8 9 10 11 12 13 14 15 16 17 18
	---Fragment 1 Bond Connectivity---
	 1 : 2 6 7
	 2 : 1 3 8
	 3 : 2 4 9
	 4 : 3 5 10
	 5 : 4 6 11
	 6 : 1 5 12
	 7 : 1 13 14
	 8 : 2
	 9 : 3
	 10 : 4
	 11 : 5
	 12 : 6
	 13 : 7 17 18
	 14 : 7 15 16
	 15 : 14
	 16 : 14
	 17 : 13
	 18 : 13

	Assuming in current code that numbering for constraints corresponds to unified fragment.
	Frozen dihedral atom list: 
	     2     1     7    13
	---Fragment 1 Geometry and Gradient---
	 C           0.0000000000        0.0000000000       -0.3361142489
	 C           0.0693113751        2.3042829136        0.9905282984
	 C           0.0600271506        2.2924645663        3.6196645829
	 C           0.0000000000        0.0000000000        4.9323874075
	 C          -0.0600271506       -2.2924645663        3.6196645829
	 C          -0.0693113751       -2.3042848033        0.9905282984
	 C           0.0000000000        0.0000000000       -3.1080968214
	 H           0.0343363238        4.0906996085       -0.0205110874
	 H           0.0801281675        4.0683819429        4.6447314059
	 H           0.0000000000        0.0000000000        6.9839666940
	 H          -0.0801281675       -4.0683819429        4.6447314059
	 H          -0.0343363238       -4.0906996085       -0.0205091977
	 N          -1.3492776870        1.7098865660       -4.3623571887
	 N           1.3492776870       -1.7098865660       -4.3623590784
	 H           1.5512761825       -1.6824023891       -6.2663261875
	 H           2.1209700300       -3.1874502012       -3.4266725221
	 H          -2.1209700300        3.1874502012       -3.4266706324
	 H          -1.5512761825        1.6824042788       -6.2663261875
	            -0.0000000155        0.0000004483       -0.0046956005
	             0.0084154758        0.0020238845        0.0011252950
	             0.0004950504        0.0003296869       -0.0004582682
	            -0.0000000011       -0.0000000891        0.0001933042
	            -0.0004950454       -0.0003294732       -0.0004581942
	            -0.0084154765       -0.0020252782        0.0011249500
	            -0.0000001680        0.0000002440        0.0039243960
	            -0.0041913679       -0.0007369975       -0.0007581915
	            -0.0009233381        0.0000022872        0.0000275466
	            -0.0000000005        0.0000000068        0.0000733864
	             0.0009233366       -0.0000022688        0.0000274771
	             0.0041913474        0.0007377899       -0.0007576897
	            -0.0045406481       -0.0020644347       -0.0000703582
	             0.0045409760        0.0020641364       -0.0000715813
	             0.0029594256        0.0020480400        0.0002734406
	            -0.0043704575       -0.0025013387        0.0001117971
	             0.0043704317        0.0025013787        0.0001117495
	            -0.0029595249       -0.0020480224        0.0002725889

	Previous optimization step data not found.  Starting new optimization.

	---Fragment 1 Intrafragment Coordinates---
	 - Coordinate -           - BOHR/RAD -       - ANG/DEG -
	 R(1,2)           =         2.659794	       1.407502
	 R(1,6)           =         2.659796	       1.407503
	 R(1,7)           =         2.771983	       1.466870
	 R(2,3)           =         2.629179	       1.391302
	 R(2,8)           =         2.052976	       1.086388
	 R(3,4)           =         2.642393	       1.398294
	 R(3,9)           =         2.050622	       1.085142
	 R(4,5)           =         2.642393	       1.398294
	 R(4,10)          =         2.051579	       1.085649
	 R(5,6)           =         2.629179	       1.391302
	 R(5,11)          =         2.050622	       1.085142
	 R(6,12)          =         2.052973	       1.086386
	 R(7,13)          =         2.513450	       1.330061
	 R(7,14)          =         2.513451	       1.330061
	 R(13,17)         =         1.911600	       1.011575
	 R(13,18)         =         1.914852	       1.013296
	 R(14,15)         =         1.914850	       1.013295
	 R(14,16)         =         1.911600	       1.011575
	 B(1,2,3)         =         2.088380	     119.655376
	 B(1,2,8)         =         2.103396	     120.515689
	 B(1,6,5)         =         2.088379	     119.655315
	 B(1,6,12)        =         2.103396	     120.515729
	 B(1,7,13)        =         2.093263	     119.935145
	 B(1,7,14)        =         2.093264	     119.935183
	 B(2,1,6)         =         2.097220	     120.161857
	 B(2,1,7)         =         2.092983	     119.919082
	 B(2,3,4)         =         2.095279	     120.050636
	 B(2,3,9)         =         2.089719	     119.732108
	 B(3,2,8)         =         2.090149	     119.756722
	 B(3,4,5)         =         2.101793	     120.423859
	 B(3,4,10)        =         2.090696	     119.788070
	 B(4,3,9)         =         2.098135	     120.214297
	 B(4,5,6)         =         2.095280	     120.050677
	 B(4,5,11)        =         2.098135	     120.214297
	 B(5,4,10)        =         2.090696	     119.788070
	 B(5,6,12)        =         2.090149	     119.756743
	 B(6,1,7)         =         2.092982	     119.919061
	 B(6,5,11)        =         2.089719	     119.732067
	 B(7,13,17)       =         2.092412	     119.886381
	 B(7,13,18)       =         2.144861	     122.891461
	 B(7,14,15)       =         2.144861	     122.891455
	 B(7,14,16)       =         2.092411	     119.886344
	 B(13,7,14)       =         2.096658	     120.129672
	 B(15,14,16)      =         2.043399	     117.078146
	 B(17,13,18)      =         2.043398	     117.078100
	 D(1,2,3,4)       =         0.007799	       0.446825
	 D(1,2,3,9)       =        -3.122896	    -178.928735
	 D(1,6,5,4)       =         0.007799	       0.446822
	 D(1,6,5,11)      =        -3.122896	    -178.928737
	 D(1,7,13,17)     =         0.187844	      10.762671
	 D(1,7,13,18)     =        -3.032165	    -173.730259
	 D(1,7,14,15)     =        -3.032164	    -173.730212
	 D(1,7,14,16)     =         0.187844	      10.762667
	 D(2,1,6,5)       =        -0.003906	      -0.223802
	 D(2,1,6,12)      =        -3.091437	    -177.126283
	*D(2,1,7,13)      =        -0.698132	     -40.000000
	 D(2,1,7,14)      =         2.443461	     140.000000
	 D(2,3,4,5)       =        -0.003942	      -0.225875
	 D(2,3,4,10)      =         3.137650	     179.774125
	 D(3,2,1,6)       =        -0.003906	      -0.223806
	 D(3,2,1,7)       =         3.137687	     179.776196
	 D(3,4,5,6)       =        -0.003942	      -0.225874
	 D(3,4,5,11)      =         3.126699	     179.146646
	 D(4,3,2,8)       =         3.095744	     177.373058
	 D(4,5,6,12)      =         3.095744	     177.373055
	 D(5,4,3,9)       =         3.126699	     179.146646
	 D(5,6,1,7)       =         3.137687	     179.776197
	 D(6,1,2,8)       =        -3.091437	    -177.126287
	 D(6,1,7,13)      =         2.443461	     140.000001
	 D(6,1,7,14)      =        -0.698132	     -39.999999
	 D(6,5,4,10)      =         3.137650	     179.774126
	 D(7,1,2,8)       =         0.050156	       2.873714
	 D(7,1,6,12)      =         0.050156	       2.873716
	 D(8,2,3,9)       =        -0.034950	      -2.002503
	 D(9,3,4,10)      =        -0.014894	      -0.853354
	 D(10,4,5,11)     =        -0.014894	      -0.853354
	 D(11,5,6,12)     =        -0.034950	      -2.002504
	 D(13,7,14,15)    =         0.109428	       6.269788
	 D(13,7,14,16)    =        -2.953749	    -169.237333
	 D(14,7,13,17)    =        -2.953749	    -169.237329
	 D(14,7,13,18)    =         0.109428	       6.269741

	Current energy   :      -381.4652555939

	Generating empirical Hessian (Schlegel '84) for each fragment.
	Taking RFO optimization step.
	Going to follow RFO solution 1.
	Using RFO vector 1.
	Norm of target step-size    0.46079
	Projected energy change by RFO approximation:        -0.0010105336

	Back-transformation to cartesian coordinates...
	Could not converge backtransformation.
	Using first guess instead.

	Back-transformation to cartesian coordinates to adjust frozen coordinates...
	Successfully converged to displaced geometry.

	--- Internal Coordinate Step in ANG or DEG, aJ/ANG or AJ/DEG ---
	 ---------------------------------------------------------------------------
	   Coordinate                Previous        Force       Change         New 
	   ----------                --------       ------       ------       ------
	    1 R(1,2)          =      1.407502    -0.006087    -0.000870     1.406632
	    2 R(1,6)          =      1.407503    -0.006090    -0.000894     1.406609
	    3 R(1,7)          =      1.466870     0.037516     0.006574     1.473444
	    4 R(2,3)          =      1.391302     0.002376     0.000462     1.391764
	    5 R(2,8)          =      1.086388     0.001620     0.003086     1.089474
	    6 R(3,4)          =      1.398294    -0.007097    -0.000891     1.397403
	    7 R(3,9)          =      1.085142    -0.000056     0.000760     1.085902
	    8 R(4,5)          =      1.398294    -0.007096    -0.000892     1.397402
	    9 R(4,10)         =      1.085649    -0.000606    -0.000108     1.085541
	   10 R(5,6)          =      1.391302     0.002377     0.000478     1.391779
	   11 R(5,11)         =      1.085142    -0.000056     0.000818     1.085960
	   12 R(6,12)         =      1.086386     0.001627     0.003191     1.089577
	   13 R(7,13)         =      1.330061    -0.003519    -0.000298     1.329762
	   14 R(7,14)         =      1.330061    -0.003523    -0.000246     1.329815
	   15 R(13,17)        =      1.011575    -0.001844     0.010502     1.022077
	   16 R(13,18)        =      1.013296    -0.000580     0.004214     1.017510
	   17 R(14,15)        =      1.013295    -0.000573     0.004162     1.017457
	   18 R(14,16)        =      1.011575    -0.001844     0.010789     1.022364
	   19 B(1,2,3)        =    119.655376     0.000037     0.136356   119.791732
	   20 B(1,2,8)        =    120.515689     0.000072     0.331362   120.847051
	   21 B(1,6,5)        =    119.655315     0.000037     0.138346   119.793661
	   22 B(1,6,12)       =    120.515729     0.000072     0.339312   120.855041
	   23 B(1,7,13)       =    119.935145     0.000073     0.213553   120.148699
	   24 B(1,7,14)       =    119.935183     0.000073     0.209963   120.145146
	   25 B(2,1,6)        =    120.161857    -0.000064    -0.227798   119.934059
	   26 B(2,1,7)        =    119.919082     0.000032     0.112094   120.031176
	   27 B(2,3,4)        =    120.050636     0.000013     0.021832   120.072468
	   28 B(2,3,9)        =    119.732108    -0.000009    -0.017514   119.714594
	   29 B(3,2,8)        =    119.756722    -0.000099    -0.469838   119.286884
	   30 B(3,4,5)        =    120.423859    -0.000034    -0.112485   120.311374
	   31 B(3,4,10)       =    119.788070     0.000017     0.056522   119.844592
	   32 B(4,3,9)        =    120.214297    -0.000003    -0.002799   120.211497
	   33 B(4,5,6)        =    120.050677     0.000013     0.020994   120.071671
	   34 B(4,5,11)       =    120.214297    -0.000003    -0.003465   120.210831
	   35 B(5,4,10)       =    119.788070     0.000017     0.055951   119.844022
	   36 B(5,6,12)       =    119.756743    -0.000099    -0.477835   119.278908
	   37 B(6,1,7)        =    119.919061     0.000032     0.114969   120.034030
	   38 B(6,5,11)       =    119.732067    -0.000010    -0.016278   119.715789
	   39 B(7,13,17)      =    119.886381     0.000094     0.217678   120.104059
	   40 B(7,13,18)      =    122.891461    -0.000046    -0.379905   122.511556
	   41 B(7,14,15)      =    122.891455    -0.000046    -0.392979   122.498476
	   42 B(7,14,16)      =    119.886344     0.000094     0.231770   120.118114
	   43 B(13,7,14)      =    120.129672    -0.000145    -0.424227   119.705445
	   44 B(15,14,16)     =    117.078146    -0.000042     0.281051   117.359197
	   45 B(17,13,18)     =    117.078100    -0.000042     0.282103   117.360203
	   46 D(1,2,3,4)      =      0.446825    -0.000014    -1.982543    -1.535718
	   47 D(1,2,3,9)      =   -178.928735    -0.000022    -3.042787  -181.971523
	   48 D(1,6,5,4)      =      0.446822    -0.000014    -1.866889    -1.420067
	   49 D(1,6,5,11)     =   -178.928737    -0.000022    -2.965804  -181.894541
	   50 D(1,7,13,17)    =     10.762671    -0.000073    -9.039751     1.722919
	   51 D(1,7,13,18)    =   -173.730259    -0.000051    -6.383488  -180.113748
	   52 D(1,7,14,15)    =   -173.730212    -0.000049    -6.074835  -179.805047
	   53 D(1,7,14,16)    =     10.762667    -0.000071    -8.729850     2.032817
	   54 D(2,1,6,5)      =     -0.223802     0.000006     0.818337     0.594536
	   55 D(2,1,6,12)     =   -177.126283    -0.000038    -5.395455  -182.521737
	   56 *D(2,1,7,13)    =    -40.000000    -0.000000    -0.000000   -40.000000
	   57 D(2,1,7,14)     =    140.000000    -0.000002    -0.307444   139.692555
	   58 D(2,3,4,5)      =     -0.225875     0.000007     0.941341     0.715465
	   59 D(2,3,4,10)     =    179.774125     0.000007     0.980786   180.754910
	   60 D(3,2,1,6)      =     -0.223806     0.000008     1.108420     0.884614
	   61 D(3,2,1,7)      =    179.776196     0.000006     0.796654   180.572850
	   62 D(3,4,5,6)      =     -0.225874     0.000007     1.000676     0.774801
	   63 D(3,4,5,11)     =    179.146646     0.000015     2.104998   181.251645
	   64 D(4,3,2,8)      =    177.373058     0.000031     4.199328   181.572386
	   65 D(4,5,6,12)     =    177.373055     0.000032     4.273866   181.646921
	   66 D(5,4,3,9)      =    179.146646     0.000015     2.006808   181.153454
	   67 D(5,6,1,7)      =    179.776197     0.000008     1.130112   180.906309
	   68 D(6,1,2,8)      =   -177.126287    -0.000037    -5.146640  -182.272927
	   69 D(6,1,7,13)     =    140.000001    -0.000002    -0.312080   139.687921
	   70 D(6,1,7,14)     =    -39.999999    -0.000004    -0.619524   -40.619523
	   71 D(6,5,4,10)     =    179.774126     0.000007     0.961231   180.735357
	   72 D(7,1,2,8)      =      2.873714    -0.000038    -5.458406    -2.584691
	   73 D(7,1,6,12)     =      2.873716    -0.000036    -5.083680    -2.209964
	   74 D(8,2,3,9)      =     -2.002503     0.000023     3.139084     1.136581
	   75 D(9,3,4,10)     =     -0.853354     0.000015     2.046253     1.192899
	   76 D(10,4,5,11)    =     -0.853354     0.000015     2.065554     1.212200
	   77 D(11,5,6,12)    =     -2.002504     0.000024     3.174951     1.172447
	   78 D(13,7,14,15)   =      6.269788    -0.000051    -6.380913    -0.111125
	   79 D(13,7,14,16)   =   -169.237333    -0.000073    -9.035928  -178.273261
	   80 D(14,7,13,17)   =   -169.237329    -0.000071    -8.733662  -177.970992
	   81 D(14,7,13,18)   =      6.269741    -0.000049    -6.077399     0.192342
	 ---------------------------------------------------------------------------
	Successfully symmetrized geometry.

  ==> Convergence Check <==

  Measures of convergence in internal coordinates in au.
  Criteria marked as inactive (o), active & met (*), and active & unmet ( ).
  --------------------------------------------------------------------------------------------- ~
   Step     Total Energy     Delta E     MAX Force     RMS Force      MAX Disp      RMS Disp    ~
  --------------------------------------------------------------------------------------------- ~
    Convergence Criteria    1.00e-06 *    3.00e-04 *             o    1.20e-03 *             o  ~
  --------------------------------------------------------------------------------------------- ~
      1    -381.46525559   -3.81e+02      4.55e-03      1.49e-03 o    1.58e-01      5.11e-02 o  ~
  ---------------------------------------------------------------------------------------------

	Writing optimization data to binary file.
	Structure for next step:
	Cartesian Geometry (in Angstrom)
	    C     0.0021622045  -0.0009519879  -0.1760748969
	    C     0.0268736931   1.2169074919   0.5273604386
	    C     0.0418143630   1.2114548169   1.9190336538
	    C    -0.0001147043   0.0004283467   2.6150161538
	    C    -0.0421474564  -1.2112509217   1.9201781160
	    C    -0.0261671653  -1.2180429217   0.5285071353
	    C    -0.0009900559  -0.0015474870  -1.6495155238
	    H     0.0860410135   2.1669910400  -0.0025388275
	    H     0.0933206122   2.1513430045   2.4604582106
	    H    -0.0006817829   0.0009552701   3.7005565830
	    H    -0.0951819587  -2.1506016968   2.4625038588
	    H    -0.0866729630  -2.1686803559  -0.0004596822
	    N    -0.7246256712   0.8929655229  -2.3161981422
	    N     0.7246339052  -0.8927795597  -2.3185321137
	    H     0.7511368597  -0.9237152550  -3.3351730067
	    H     1.2624961083  -1.5999823108  -1.8127685770
	    H    -1.2600738129   1.6002383399  -1.8085539719
	    H    -0.7518231889   0.9262686636  -3.3327994080
			--------------------------
			 OPTKING Finished Execution 
			--------------------------

    Structure for next step:
    Molecular point group: c1
    Full point group: C1

    Geometry (in Angstrom), charge = 1, multiplicity = 1:

    C            0.002162204457    -0.000951987942    -0.176074896911
    C            0.026873693149     1.216907491914     0.527360438580
    C            0.041814363004     1.211454816880     1.919033653808
    C           -0.000114704285     0.000428346745     2.615016153825
    C           -0.042147456353    -1.211250921718     1.920178116036
    C           -0.026167165317    -1.218042921694     0.528507135312
    C           -0.000990055918    -0.001547486972    -1.649515523764
    H            0.086041013469     2.166991039962    -0.002538827524
    H            0.093320612180     2.151343004513     2.460458210579
    H           -0.000681782856     0.000955270148     3.700556582969
    H           -0.095181958656    -2.150601696783     2.462503858784
    H           -0.086672962992    -2.168680355874    -0.000459682220
    N           -0.724625671175     0.892965522930    -2.316198142213
    N            0.724633905216    -0.892779559702    -2.318532113683
    H            0.751136859653    -0.923715254999    -3.335173006735
    H            1.262496108262    -1.599982310844    -1.812768576997
    H           -1.260073812925     1.600238339876    -1.808553971867
    H           -0.751823188911     0.926268663558    -3.332799407979

gradient() will perform analytic gradient computation.

*** tstart() called on arancio.prib.upf.edu
*** at Sat Sep 29 20:46:07 2018

   => Loading Basis Set <=

    Name: 6-31G*
    Role: ORBITAL
    Keyword: BASIS
    atoms 1-7         entry C          line   111 file /shared/joao/test_parameterize/miniconda3/share/psi4/basis/6-31gs.gbs 
    atoms 8-12, 15-18 entry H          line    44 file /shared/joao/test_parameterize/miniconda3/share/psi4/basis/6-31gs.gbs 
    atoms 13-14       entry N          line   128 file /shared/joao/test_parameterize/miniconda3/share/psi4/basis/6-31gs.gbs 


         ---------------------------------------------------------
                                   SCF
            by Justin Turney, Rob Parrish, Andy Simmonett
                             and Daniel Smith
                              RKS Reference
                        4 Threads,   2861 MiB Core
         ---------------------------------------------------------

  ==> Geometry <==

    Molecular point group: c1
    Full point group: C1

    Geometry (in Angstrom), charge = 1, multiplicity = 1:

       Center              X                  Y                   Z               Mass       
    ------------   -----------------  -----------------  -----------------  -----------------
         C            0.002162204457    -0.000951987942    -0.176074896911    12.000000000000
         C            0.026873693149     1.216907491914     0.527360438580    12.000000000000
         C            0.041814363004     1.211454816880     1.919033653808    12.000000000000
         C           -0.000114704285     0.000428346745     2.615016153825    12.000000000000
         C           -0.042147456353    -1.211250921718     1.920178116036    12.000000000000
         C           -0.026167165317    -1.218042921694     0.528507135312    12.000000000000
         C           -0.000990055918    -0.001547486972    -1.649515523764    12.000000000000
         H            0.086041013469     2.166991039962    -0.002538827524     1.007825032070
         H            0.093320612180     2.151343004513     2.460458210579     1.007825032070
         H           -0.000681782856     0.000955270148     3.700556582969     1.007825032070
         H           -0.095181958656    -2.150601696783     2.462503858784     1.007825032070
         H           -0.086672962992    -2.168680355874    -0.000459682220     1.007825032070
         N           -0.724625671175     0.892965522930    -2.316198142213    14.003074004780
         N            0.724633905216    -0.892779559702    -2.318532113683    14.003074004780
         H            0.751136859653    -0.923715254999    -3.335173006735     1.007825032070
         H            1.262496108262    -1.599982310844    -1.812768576997     1.007825032070
         H           -1.260073812925     1.600238339876    -1.808553971867     1.007825032070
         H           -0.751823188911     0.926268663558    -3.332799407979     1.007825032070

  Running in c1 symmetry.

  Rotational constants: A =      0.12221  B =      0.03915  C =      0.03130 [cm^-1]
  Rotational constants: A =   3663.63877  B =   1173.64326  C =    938.30934 [MHz]
  Nuclear repulsion =  416.332233294828143

  Charge       = 1
  Multiplicity = 1
  Electrons    = 64
  Nalpha       = 32
  Nbeta        = 32

  ==> Algorithm <==

  SCF Algorithm Type is DF.
  DIIS enabled.
  MOM disabled.
  Fractional occupation disabled.
  Guess Type is READ.
  Energy threshold   = 1.00e-08
  Density threshold  = 1.00e-08
  Integral threshold = 0.00e+00

  ==> Primary Basis <==

  Basis Set: 6-31G*
    Blend: 6-31G*
    Number of shells: 72
    Number of basis function: 153
    Number of Cartesian functions: 153
    Spherical Harmonics?: false
    Max angular momentum: 2

  ==> DFT Potential <==

   => Composite Functional: B3LYP-D3ZERO <= 

    B3LYP-d3zero Hyb-GGA Exchange-Correlation Functional

    P. J. Stephens, F. J. Devlin, C. F. Chabalowski, and M. J. Frisch, J. Phys. Chem. 98, 11623 (1994)

    Deriv               =              1
    GGA                 =           TRUE
    Meta                =          FALSE

    Exchange Hybrid     =           TRUE
    MP2 Hybrid          =          FALSE

   => Exchange Functionals <=

    0.0800   Slater exchange
    0.7200         Becke 88

   => Exact (HF) Exchange <=

    0.2000               HF 

   => Correlation Functionals <=

    0.1900   Vosko, Wilk & Nusair (VWN5_RPA)
    0.8100   Lee, Yang & Parr

   => Molecular Quadrature <=

    Radial Scheme       =       TREUTLER
    Pruning Scheme      =           FLAT
    Nuclear Scheme      =       TREUTLER

    BS radius alpha     =              1
    Pruning alpha       =              1
    Radial Points       =             75
    Spherical Points    =            302
    Total Points        =         396918
    Total Blocks        =           3008
    Max Points          =            256
    Max Functions       =            149

   => -D3ZERO: Empirical Dispersion <=

    Grimme's -D3 (zero-damping) Dispersion Correction
    Grimme S.; Antony J.; Ehrlich S.; Krieg H. (2010), J. Chem. Phys., 132: 154104

        S6 =   1.000000E+00
        S8 =   1.703000E+00
       SR6 =   1.261000E+00
       SR8 =   1.000000E+00
    ALPHA6 =   1.400000E+01

   => Loading Basis Set <=

    Name: (6-31G* AUX)
    Role: JKFIT
    Keyword: DF_BASIS_SCF
    atoms 1-7         entry C          line   121 file /shared/joao/test_parameterize/miniconda3/share/psi4/basis/cc-pvdz-jkfit.gbs 
    atoms 8-12, 15-18 entry H          line    51 file /shared/joao/test_parameterize/miniconda3/share/psi4/basis/cc-pvdz-jkfit.gbs 
    atoms 13-14       entry N          line   171 file /shared/joao/test_parameterize/miniconda3/share/psi4/basis/cc-pvdz-jkfit.gbs 

  Reading orbitals from file 180, no projection.

  ==> Pre-Iterations <==

   -------------------------------------------------------
    Irrep   Nso     Nmo     Nalpha   Nbeta   Ndocc  Nsocc
   -------------------------------------------------------
     A        153     153       0       0       0       0
   -------------------------------------------------------
    Total     153     153      32      32      32       0
   -------------------------------------------------------

  ==> Integral Setup <==

  ==> DiskDFJK: Density-Fitted J/K Matrices <==

    J tasked:                  Yes
    K tasked:                  Yes
    wK tasked:                  No
    OpenMP threads:              4
    Integrals threads:           4
    Memory (MB):              2002
    Algorithm:                Core
    Integral Cache:           NONE
    Schwarz Cutoff:          1E-12
    Fitting Condition:       1E-12

   => Auxiliary Basis Set <=

  Basis Set: (6-31G* AUX)
    Blend: CC-PVDZ-JKFIT
    Number of shells: 297
    Number of basis function: 954
    Number of Cartesian functions: 954
    Spherical Harmonics?: false
    Max angular momentum: 3

  Minimum eigenvalue in the overlap matrix is 4.8534356847E-04.
  Using Symmetric Orthogonalization.

  SCF Guess: Orbitals guess was supplied from a previous computation.

  ==> Iterations <==

                           Total Energy        Delta E     RMS |[F,P]|

   @DF-RKS iter   0:  -381.44080226096003   -3.81441e+02   1.28589e-03 
   @DF-RKS iter   1:  -381.46858539660548   -2.77831e-02   1.80778e-04 
   @DF-RKS iter   2:  -381.46860567957037   -2.02830e-05   2.11618e-04 DIIS
   @DF-RKS iter   3:  -381.46874336288852   -1.37683e-04   6.87117e-05 DIIS
   @DF-RKS iter   4:  -381.46875689509233   -1.35322e-05   3.04879e-05 DIIS
   @DF-RKS iter   5:  -381.46875947638341   -2.58129e-06   6.80080e-06 DIIS
   @DF-RKS iter   6:  -381.46875961388821   -1.37505e-07   1.69571e-06 DIIS
   @DF-RKS iter   7:  -381.46875962174545   -7.85724e-09   3.49281e-07 DIIS
   @DF-RKS iter   8:  -381.46875962204189   -2.96438e-10   1.39299e-07 DIIS
   @DF-RKS iter   9:  -381.46875962209691   -5.50244e-11   3.02968e-08 DIIS
   @DF-RKS iter  10:  -381.46875962209970   -2.78533e-12   1.47117e-08 DIIS
   @DF-RKS iter  11:  -381.46875962209998   -2.84217e-13   3.84014e-09 DIIS

  ==> Post-Iterations <==

    Orbital Energies [Eh]
    ---------------------

    Doubly Occupied:                                                      

       1A    -14.570200     2A    -14.570173     3A    -10.499035  
       4A    -10.374467     5A    -10.356150     6A    -10.356134  
       7A    -10.341221     8A    -10.339846     9A    -10.339739  
      10A     -1.184186    11A     -1.090547    12A     -1.013886  
      13A     -0.925851    14A     -0.901497    15A     -0.844607  
      16A     -0.785412    17A     -0.772417    18A     -0.741530  
      19A     -0.733040    20A     -0.684573    21A     -0.668386  
      22A     -0.624959    23A     -0.619450    24A     -0.588347  
      25A     -0.578472    26A     -0.573416    27A     -0.517474  
      28A     -0.505266    29A     -0.497651    30A     -0.471920  
      31A     -0.410131    32A     -0.404956  

    Virtual:                                                              

      33A     -0.212856    34A     -0.157395    35A     -0.134021  
      36A     -0.112172    37A     -0.070548    38A     -0.066252  
      39A     -0.039911    40A     -0.037875    41A      0.006958  
      42A      0.020785    43A      0.021969    44A      0.059517  
      45A      0.062863    46A      0.079648    47A      0.125606  
      48A      0.152307    49A      0.158524    50A      0.158965  
      51A      0.202934    52A      0.240369    53A      0.297639  
      54A      0.348254    55A      0.353947    56A      0.380446  
      57A      0.388172    58A      0.397783    59A      0.419016  
      60A      0.422737    61A      0.443732    62A      0.447813  
      63A      0.452856    64A      0.469447    65A      0.471834  
      66A      0.475556    67A      0.484642    68A      0.506376  
      69A      0.521300    70A      0.535033    71A      0.539388  
      72A      0.585355    73A      0.605084    74A      0.652647  
      75A      0.657075    76A      0.676371    77A      0.684320  
      78A      0.704521    79A      0.714639    80A      0.716114  
      81A      0.744120    82A      0.775942    83A      0.776670  
      84A      0.799092    85A      0.812864    86A      0.836714  
      87A      0.848294    88A      0.940188    89A      0.968094  
      90A      0.996485    91A      0.998684    92A      1.027993  
      93A      1.049494    94A      1.068415    95A      1.144327  
      96A      1.184769    97A      1.237505    98A      1.270015  
      99A      1.283519   100A      1.306140   101A      1.318392  
     102A      1.342839   103A      1.362703   104A      1.365860  
     105A      1.412870   106A      1.456381   107A      1.490303  
     108A      1.597155   109A      1.622222   110A      1.654256  
     111A      1.672775   112A      1.734985   113A      1.752505  
     114A      1.795159   115A      1.825487   116A      1.851908  
     117A      1.904355   118A      1.909771   119A      1.954956  
     120A      1.976338   121A      1.996839   122A      2.020315  
     123A      2.037405   124A      2.088790   125A      2.108649  
     126A      2.132731   127A      2.150540   128A      2.194449  
     129A      2.223617   130A      2.255140   131A      2.346160  
     132A      2.364396   133A      2.439660   134A      2.450267  
     135A      2.488300   136A      2.526970   137A      2.552563  
     138A      2.589147   139A      2.608369   140A      2.626024  
     141A      2.734964   142A      2.882796   143A      2.975083  
     144A      3.257995   145A      3.633609   146A      3.654607  
     147A      3.915065   148A      3.950689   149A      3.963586  
     150A      4.060627   151A      4.175037   152A      4.257171  
     153A      4.545002  

    Final Occupation by Irrep:
              A 
    DOCC [    32 ]

  Energy converged.

  @DF-RKS Final Energy:  -381.46875962209998

   => Energetics <=

    Nuclear Repulsion Energy =            416.3322332948281428
    One-Electron Energy =               -1327.8938163259877001
    Two-Electron Energy =                 574.4968898528616137
    DFT Exchange-Correlation Energy =     -44.3921784538020532
    Empirical Dispersion Energy =          -0.0118879900000000
    VV10 Nonlocal Energy =                  0.0000000000000000
    Total Energy =                       -381.4687596220999808



Properties will be evaluated at   0.000000,   0.000000,   0.000000 [a0]

Properties computed using the SCF density matrix

  Nuclear Dipole Moment: [e a0]
     X:     0.0136      Y:    -0.0263      Z:    -0.0092

  Electronic Dipole Moment: [e a0]
     X:    -0.0141      Y:     0.0262      Z:    -2.2963

  Dipole Moment: [e a0]
     X:    -0.0004      Y:    -0.0001      Z:    -2.3055     Total:     2.3055

  Dipole Moment: [D]
     X:    -0.0011      Y:    -0.0002      Z:    -5.8599     Total:     5.8599


*** tstop() called on arancio.prib.upf.edu at Sat Sep 29 20:46:28 2018
Module time:
	user time   =      77.03 seconds =       1.28 minutes
	system time =       0.37 seconds =       0.01 minutes
	total time  =         21 seconds =       0.35 minutes
Total time:
	user time   =     198.23 seconds =       3.30 minutes
	system time =       1.23 seconds =       0.02 minutes
	total time  =         55 seconds =       0.92 minutes

*** tstart() called on arancio.prib.upf.edu
*** at Sat Sep 29 20:46:28 2018


         ------------------------------------------------------------
                                   SCF GRAD                          
                          Rob Parrish, Justin Turney,                
                       Andy Simmonett, and Alex Sokolov              
         ------------------------------------------------------------

  ==> Geometry <==

    Molecular point group: c1
    Full point group: C1

    Geometry (in Angstrom), charge = 1, multiplicity = 1:

       Center              X                  Y                   Z               Mass       
    ------------   -----------------  -----------------  -----------------  -----------------
         C            0.002162204457    -0.000951987942    -0.176074896911    12.000000000000
         C            0.026873693149     1.216907491914     0.527360438580    12.000000000000
         C            0.041814363004     1.211454816880     1.919033653808    12.000000000000
         C           -0.000114704285     0.000428346745     2.615016153825    12.000000000000
         C           -0.042147456353    -1.211250921718     1.920178116036    12.000000000000
         C           -0.026167165317    -1.218042921694     0.528507135312    12.000000000000
         C           -0.000990055918    -0.001547486972    -1.649515523764    12.000000000000
         H            0.086041013469     2.166991039962    -0.002538827524     1.007825032070
         H            0.093320612180     2.151343004513     2.460458210579     1.007825032070
         H           -0.000681782856     0.000955270148     3.700556582969     1.007825032070
         H           -0.095181958656    -2.150601696783     2.462503858784     1.007825032070
         H           -0.086672962992    -2.168680355874    -0.000459682220     1.007825032070
         N           -0.724625671175     0.892965522930    -2.316198142213    14.003074004780
         N            0.724633905216    -0.892779559702    -2.318532113683    14.003074004780
         H            0.751136859653    -0.923715254999    -3.335173006735     1.007825032070
         H            1.262496108262    -1.599982310844    -1.812768576997     1.007825032070
         H           -1.260073812925     1.600238339876    -1.808553971867     1.007825032070
         H           -0.751823188911     0.926268663558    -3.332799407979     1.007825032070

  Nuclear repulsion =  416.332233294828143

  ==> Basis Set <==

  Basis Set: 6-31G*
    Blend: 6-31G*
    Number of shells: 72
    Number of basis function: 153
    Number of Cartesian functions: 153
    Spherical Harmonics?: false
    Max angular momentum: 2

  ==> DFJKGrad: Density-Fitted SCF Gradients <==

    Gradient:                    1
    J tasked:                  Yes
    K tasked:                  Yes
    wK tasked:                  No
    OpenMP threads:              4
    Integrals threads:           4
    Memory (MB):              2002
    Schwarz Cutoff:          0E+00
    Fitting Condition:       1E-12

   => Auxiliary Basis Set <=

  Basis Set: (6-31G* AUX)
    Blend: CC-PVDZ-JKFIT
    Number of shells: 297
    Number of basis function: 954
    Number of Cartesian functions: 954
    Spherical Harmonics?: false
    Max angular momentum: 3

  ==> DFT Potential <==

   => Composite Functional: B3LYP-D3ZERO <= 

    B3LYP-d3zero Hyb-GGA Exchange-Correlation Functional

    P. J. Stephens, F. J. Devlin, C. F. Chabalowski, and M. J. Frisch, J. Phys. Chem. 98, 11623 (1994)

    Deriv               =              1
    GGA                 =           TRUE
    Meta                =          FALSE

    Exchange Hybrid     =           TRUE
    MP2 Hybrid          =          FALSE

   => Exchange Functionals <=

    0.0800   Slater exchange
    0.7200         Becke 88

   => Exact (HF) Exchange <=

    0.2000               HF 

   => Correlation Functionals <=

    0.1900   Vosko, Wilk & Nusair (VWN5_RPA)
    0.8100   Lee, Yang & Parr

   => Molecular Quadrature <=

    Radial Scheme       =       TREUTLER
    Pruning Scheme      =           FLAT
    Nuclear Scheme      =       TREUTLER

    BS radius alpha     =              1
    Pruning alpha       =              1
    Radial Points       =             75
    Spherical Points    =            302
    Total Points        =         396918
    Total Blocks        =           3008
    Max Points          =            256
    Max Functions       =            149


  -Total Gradient:
     Atom            X                  Y                   Z
    ------   -----------------  -----------------  -----------------
       1        0.000572279359     0.000085866339     0.000562018049
       2       -0.000287537437    -0.002342892755     0.001439093608
       3        0.000204262321    -0.000283461866    -0.000223854618
       4        0.000021804021     0.000022913781    -0.000295868586
       5       -0.000225661602     0.000293187156    -0.000269922922
       6        0.000049996709     0.002436554889     0.001493133516
       7       -0.000659351515    -0.000402634752     0.000413360887
       8       -0.000258346637     0.001850461057    -0.000385847118
       9        0.000386833368     0.000378813747     0.000373449956
      10       -0.000004870802    -0.000001214008    -0.000043214445
      11       -0.000391062376    -0.000413059345     0.000394723862
      12        0.000195902199    -0.001922441509    -0.000377549437
      13        0.001803107389    -0.007272476033    -0.002489869992
      14       -0.001641569162     0.007631599212    -0.002640102570
      15        0.000837184127     0.002023513755    -0.003703983499
      16        0.002758790785    -0.008065939718     0.004777816663
      17       -0.002532671550     0.007949716198     0.004709878957
      18       -0.000829118936    -0.001967814264    -0.003754945201


*** tstop() called on arancio.prib.upf.edu at Sat Sep 29 20:46:35 2018
Module time:
	user time   =      27.52 seconds =       0.46 minutes
	system time =       0.20 seconds =       0.00 minutes
	total time  =          7 seconds =       0.12 minutes
Total time:
	user time   =     225.86 seconds =       3.76 minutes
	system time =       1.44 seconds =       0.02 minutes
	total time  =         62 seconds =       1.03 minutes

			-----------------------------------------
			 OPTKING 2.0: for geometry optimizations 
			  - R.A. King,  Bethel University        
			-----------------------------------------
	At level 1: Red. Int., RFO, no backsteps, dynamic trust

	Previous internal coordinate definitions found.
	---Fragment 1 Geometry and Gradient---
	 C           0.0040859743       -0.0017989965       -0.3327333340
	 C           0.0507839202        2.2996218888        0.9965668022
	 C           0.0790176945        2.2893178263        3.6264480455
	 C          -0.0002167597        0.0008094580        4.9416643638
	 C          -0.0796471497       -2.2889325203        3.6286107657
	 C          -0.0494487761       -2.3017675401        0.9987337450
	 C          -0.0018709345       -0.0029243266       -3.1171325919
	 H           0.1625939517        4.0950195979       -0.0047976887
	 H           0.1763503996        4.0654490964        4.6495921794
	 H          -0.0012883829        0.0018051990        6.9930384811
	 H          -0.1798678347       -4.0640482278        4.6534578943
	 H          -0.1637881632       -4.0982119424       -0.0008686735
	 N          -1.3693440674        1.6874602844       -4.3769801583
	 N           1.3693596275       -1.6871088649       -4.3813907252
	 H           1.4194429531       -1.7455688567       -6.3025635885
	 H           2.3857718884       -3.0235283850       -3.4256361528
	 H          -2.3811944136        3.0240122097       -3.4176717034
	 H          -1.4207399274        1.7503940996       -6.2980781369
	             0.0005722794        0.0000858663        0.0005620180
	            -0.0002875374       -0.0023428928        0.0014390936
	             0.0002042623       -0.0002834619       -0.0002238546
	             0.0000218040        0.0000229138       -0.0002958686
	            -0.0002256616        0.0002931872       -0.0002699229
	             0.0000499967        0.0024365549        0.0014931335
	            -0.0006593515       -0.0004026348        0.0004133609
	            -0.0002583466        0.0018504611       -0.0003858471
	             0.0003868334        0.0003788137        0.0003734500
	            -0.0000048708       -0.0000012140       -0.0000432144
	            -0.0003910624       -0.0004130593        0.0003947239
	             0.0001959022       -0.0019224415       -0.0003775494
	             0.0018031074       -0.0072724760       -0.0024898700
	            -0.0016415692        0.0076315992       -0.0026401026
	             0.0008371841        0.0020235138       -0.0037039835
	             0.0027587908       -0.0080659397        0.0047778167
	            -0.0025326715        0.0079497162        0.0047098790
	            -0.0008291189       -0.0019678143       -0.0037549452

	---Fragment 1 Intrafragment Coordinates---
	 - Coordinate -           - BOHR/RAD -       - ANG/DEG -
	 R(1,2)           =         2.658149	       1.406632
	 R(1,6)           =         2.658106	       1.406609
	 R(1,7)           =         2.784406	       1.473444
	 R(2,3)           =         2.630053	       1.391764
	 R(2,8)           =         2.058807	       1.089474
	 R(3,4)           =         2.640709	       1.397403
	 R(3,9)           =         2.052057	       1.085902
	 R(4,5)           =         2.640708	       1.397402
	 R(4,10)          =         2.051375	       1.085541
	 R(5,6)           =         2.630082	       1.391779
	 R(5,11)          =         2.052168	       1.085960
	 R(6,12)          =         2.059002	       1.089577
	 R(7,13)          =         2.512887	       1.329762
	 R(7,14)          =         2.512986	       1.329815
	 R(13,17)         =         1.931446	       1.022077
	 R(13,18)         =         1.922816	       1.017510
	 R(14,15)         =         1.922715	       1.017457
	 R(14,16)         =         1.931988	       1.022364
	 B(1,2,3)         =         2.090760	     119.791732
	 B(1,2,8)         =         2.109179	     120.847051
	 B(1,6,5)         =         2.090794	     119.793661
	 B(1,6,12)        =         2.109318	     120.855041
	 B(1,7,13)        =         2.096990	     120.148699
	 B(1,7,14)        =         2.096928	     120.145146
	 B(2,1,6)         =         2.093244	     119.934059
	 B(2,1,7)         =         2.094939	     120.031176
	 B(2,3,4)         =         2.095660	     120.072468
	 B(2,3,9)         =         2.089414	     119.714594
	 B(3,2,8)         =         2.081949	     119.286884
	 B(3,4,5)         =         2.099830	     120.311374
	 B(3,4,10)        =         2.091683	     119.844592
	 B(4,3,9)         =         2.098086	     120.211497
	 B(4,5,6)         =         2.095646	     120.071671
	 B(4,5,11)        =         2.098075	     120.210831
	 B(5,4,10)        =         2.091673	     119.844022
	 B(5,6,12)        =         2.081810	     119.278908
	 B(6,1,7)         =         2.094989	     120.034030
	 B(6,5,11)        =         2.089435	     119.715789
	 B(7,13,17)       =         2.096211	     120.104059
	 B(7,13,18)       =         2.138230	     122.511556
	 B(7,14,15)       =         2.138002	     122.498476
	 B(7,14,16)       =         2.096457	     120.118114
	 B(13,7,14)       =         2.089254	     119.705445
	 B(15,14,16)      =         2.048304	     117.359197
	 B(17,13,18)      =         2.048322	     117.360203
	 D(1,2,3,4)       =        -0.026803	      -1.535718
	 D(1,2,3,9)       =         3.107183	     178.028477
	 D(1,6,5,4)       =        -0.024785	      -1.420067
	 D(1,6,5,11)      =         3.108527	     178.105459
	 D(1,7,13,17)     =         0.030071	       1.722919
	 D(1,7,13,18)     =         3.139607	     179.886252
	 D(1,7,14,15)     =        -3.138190	    -179.805047
	 D(1,7,14,16)     =         0.035479	       2.032817
	 D(2,1,6,5)       =         0.010377	       0.594536
	 D(2,1,6,12)      =         3.097580	     177.478263
	*D(2,1,7,13)      =        -0.698132	     -40.000000
	 D(2,1,7,14)      =         2.438095	     139.692555
	 D(2,3,4,5)       =         0.012487	       0.715465
	 D(2,3,4,10)      =        -3.128417	    -179.245090
	 D(3,2,1,6)       =         0.015439	       0.884614
	 D(3,2,1,7)       =        -3.131595	    -179.427150
	 D(3,4,5,6)       =         0.013523	       0.774801
	 D(3,4,5,11)      =        -3.119747	    -178.748355
	 D(4,3,2,8)       =        -3.114149	    -178.427614
	 D(4,5,6,12)      =        -3.112848	    -178.353079
	 D(5,4,3,9)       =        -3.121461	    -178.846546
	 D(5,6,1,7)       =        -3.125775	    -179.093691
	 D(6,1,2,8)       =         3.101923	     177.727073
	 D(6,1,7,13)      =         2.438014	     139.687921
	 D(6,1,7,14)      =        -0.708944	     -40.619523
	 D(6,5,4,10)      =        -3.128758	    -179.264643
	 D(7,1,2,8)       =        -0.045111	      -2.584691
	 D(7,1,6,12)      =        -0.038571	      -2.209964
	 D(8,2,3,9)       =         0.019837	       1.136581
	 D(9,3,4,10)      =         0.020820	       1.192899
	 D(10,4,5,11)     =         0.021157	       1.212200
	 D(11,5,6,12)     =         0.020463	       1.172447
	 D(13,7,14,15)    =        -0.001939	      -0.111125
	 D(13,7,14,16)    =        -3.111455	    -178.273261
	 D(14,7,13,17)    =        -3.106180	    -177.970992
	 D(14,7,13,18)    =         0.003357	       0.192342

	Current energy   :      -381.4687596221

	Energy change for the previous step:
		Projected    :        -0.0010105336
		Actual       :        -0.0035040282
	Energy ratio indicates good step: Trust radius increased to 1.000e+00.


	Performing BFGS update.
	Previous computed or guess Hessian on step 1.
	Steps to be used in Hessian update: 1
	Taking RFO optimization step.
	Going to follow RFO solution 1.
	Using RFO vector 1.
	Norm of target step-size    0.36835
	Projected energy change by RFO approximation:        -0.0012661657

	Back-transformation to cartesian coordinates...
	Could not converge backtransformation.
	Using first guess instead.

	Back-transformation to cartesian coordinates to adjust frozen coordinates...
	Successfully converged to displaced geometry.

	--- Internal Coordinate Step in ANG or DEG, aJ/ANG or AJ/DEG ---
	 ---------------------------------------------------------------------------
	   Coordinate                Previous        Force       Change         New 
	   ----------                --------       ------       ------       ------
	    1 R(1,2)          =      1.406632    -0.004948    -0.001156     1.405476
	    2 R(1,6)          =      1.406609    -0.005097    -0.001217     1.405392
	    3 R(1,7)          =      1.473444    -0.022080    -0.003418     1.470026
	    4 R(2,3)          =      1.391764     0.000190     0.000225     1.391989
	    5 R(2,8)          =      1.089474    -0.014720    -0.001643     1.087831
	    6 R(3,4)          =      1.397403     0.004240     0.000653     1.398056
	    7 R(3,9)          =      1.085902    -0.004391    -0.000613     1.085289
	    8 R(4,5)          =      1.397402     0.004009     0.000611     1.398013
	    9 R(4,10)         =      1.085541     0.000346     0.000056     1.085597
	   10 R(5,6)          =      1.391779     0.000251     0.000237     1.392016
	   11 R(5,11)         =      1.085960    -0.004730    -0.000643     1.085318
	   12 R(6,12)         =      1.089577    -0.015234    -0.001791     1.087787
	   13 R(7,13)         =      1.329762    -0.006160    -0.000792     1.328970
	   14 R(7,14)         =      1.329815    -0.006490    -0.000539     1.329276
	   15 R(13,17)        =      1.022077    -0.075531    -0.001038     1.021039
	   16 R(13,18)        =      1.017510    -0.030551     0.000196     1.017706
	   17 R(14,15)        =      1.017457    -0.030154     0.000919     1.018376
	   18 R(14,16)        =      1.022364    -0.077404    -0.002108     1.020256
	   19 B(1,2,3)        =    119.791732    -0.000047    -0.161922   119.629810
	   20 B(1,2,8)        =    120.847051    -0.000020    -0.098765   120.748286
	   21 B(1,6,5)        =    119.793661    -0.000046    -0.156065   119.637596
	   22 B(1,6,12)       =    120.855041    -0.000023    -0.120029   120.735012
	   23 B(1,7,13)       =    120.148699    -0.000128    -0.435144   119.713555
	   24 B(1,7,14)       =    120.145146    -0.000138    -0.491106   119.654040
	   25 B(2,1,6)        =    119.934059     0.000100     0.310915   120.244974
	   26 B(2,1,7)        =    120.031176    -0.000042    -0.128594   119.902582
	   27 B(2,3,4)        =    120.072468    -0.000003     0.008178   120.080646
	   28 B(2,3,9)        =    119.714594    -0.000009    -0.066891   119.647703
	   29 B(3,2,8)        =    119.286884     0.000067     0.233228   119.520112
	   30 B(3,4,5)        =    120.311374     0.000002     0.018290   120.329664
	   31 B(3,4,10)       =    119.844592    -0.000001    -0.009275   119.835317
	   32 B(4,3,9)        =    120.211497     0.000012     0.053507   120.265004
	   33 B(4,5,6)        =    120.071671    -0.000004     0.002352   120.074023
	   34 B(4,5,11)       =    120.210831     0.000012     0.056815   120.267647
	   35 B(5,4,10)       =    119.844022    -0.000001    -0.009062   119.834960
	   36 B(5,6,12)       =    119.278908     0.000070     0.248637   119.527545
	   37 B(6,1,7)        =    120.034030    -0.000058    -0.182802   119.851228
	   38 B(6,5,11)       =    119.715789    -0.000008    -0.063322   119.652467
	   39 B(7,13,17)      =    120.104059    -0.000030    -0.497057   119.607001
	   40 B(7,13,18)      =    122.511556     0.000101     0.407575   122.919131
	   41 B(7,14,15)      =    122.498476     0.000105     0.457543   122.956018
	   42 B(7,14,16)      =    120.118114    -0.000034    -0.555843   119.562272
	   43 B(13,7,14)      =    119.705445     0.000265     0.923736   120.629181
	   44 B(15,14,16)     =    117.359197    -0.000069     0.118829   117.478026
	   45 B(17,13,18)     =    117.360203    -0.000070     0.105635   117.465839
	   46 D(1,2,3,4)      =     -1.535718     0.000007     1.094554    -0.441164
	   47 D(1,2,3,9)      =    178.028477     0.000005     0.595029   178.623506
	   48 D(1,6,5,4)      =     -1.420067     0.000006     0.844728    -0.575339
	   49 D(1,6,5,11)     =    178.105459     0.000004     0.440837   178.546296
	   50 D(1,7,13,17)    =      1.722919    -0.000039    -8.105666    -6.382747
	   51 D(1,7,13,18)    =    179.886252    -0.000024    -5.211392   174.674860
	   52 D(1,7,14,15)    =   -179.805047    -0.000029    -6.256764  -186.061811
	   53 D(1,7,14,16)    =      2.032817    -0.000041    -8.810969    -6.778152
	   54 D(2,1,6,5)      =      0.594536    -0.000002    -0.138862     0.455674
	   55 D(2,1,6,12)     =    177.478263     0.000000    -0.672761   176.805502
	   56 *D(2,1,7,13)    =    -40.000000     0.000000    -0.000000   -40.000000
	   57 D(2,1,7,14)     =    139.692555     0.000004     0.956484   140.649039
	   58 D(2,3,4,5)      =      0.715465    -0.000003    -0.392002     0.323464
	   59 D(2,3,4,10)     =   -179.245090    -0.000003    -0.519921  -179.765011
	   60 D(3,2,1,6)      =      0.884614    -0.000004    -0.831518     0.053096
	   61 D(3,2,1,7)      =   -179.427150    -0.000002    -0.117990  -179.545140
	   62 D(3,4,5,6)      =      0.774801    -0.000003    -0.584753     0.190048
	   63 D(3,4,5,11)     =   -178.748355    -0.000002    -0.177778  -178.926133
	   64 D(4,3,2,8)      =   -178.427614     0.000005     1.626610  -176.801004
	   65 D(4,5,6,12)     =   -178.353079     0.000005     1.383476  -176.969603
	   66 D(5,4,3,9)      =   -178.846546    -0.000001     0.111165  -178.735381
	   67 D(5,6,1,7)      =   -179.093691    -0.000004    -0.852192  -179.945882
	   68 D(6,1,2,8)      =    177.727073    -0.000002    -1.359779   176.367294
	   69 D(6,1,7,13)     =    139.687921     0.000003     0.712248   140.400169
	   70 D(6,1,7,14)     =    -40.619523     0.000007     1.668732   -38.950791
	   71 D(6,5,4,10)     =   -179.264643    -0.000003    -0.456835  -179.721478
	   72 D(7,1,2,8)      =     -2.584691     0.000000    -0.646251    -3.230943
	   73 D(7,1,6,12)     =     -2.209964    -0.000002    -1.386091    -3.596055
	   74 D(8,2,3,9)      =      1.136581     0.000004     1.127085     2.263666
	   75 D(9,3,4,10)     =      1.192899    -0.000001    -0.016754     1.176145
	   76 D(10,4,5,11)    =      1.212200    -0.000002    -0.049859     1.162341
	   77 D(11,5,6,12)    =      1.172447     0.000003     0.979585     2.152032
	   78 D(13,7,14,15)   =     -0.111125    -0.000025    -5.295588    -5.406713
	   79 D(13,7,14,16)   =   -178.273261    -0.000037    -7.849793  -186.123054
	   80 D(14,7,13,17)   =   -177.970992    -0.000043    -9.067241  -187.038233
	   81 D(14,7,13,18)   =      0.192342    -0.000028    -6.172968    -5.980626
	 ---------------------------------------------------------------------------
	Successfully symmetrized geometry.

  ==> Convergence Check <==

  Measures of convergence in internal coordinates in au.
  Criteria marked as inactive (o), active & met (*), and active & unmet ( ).
  ---------------------------------------------------------------------------------------------
   Step     Total Energy     Delta E     MAX Force     RMS Force      MAX Disp      RMS Disp   
  ---------------------------------------------------------------------------------------------
    Convergence Criteria    1.00e-06 *    3.00e-04 *             o    1.20e-03 *             o
  ---------------------------------------------------------------------------------------------
      2    -381.46875962   -3.50e-03      9.40e-03      1.85e-03 o    1.58e-01      4.08e-02 o  ~
  ---------------------------------------------------------------------------------------------

	Writing optimization data to binary file.
	Structure for next step:
	Cartesian Geometry (in Angstrom)
	    C    -0.0017102473   0.0027073881  -0.1796567114
	    C     0.0319940466   1.2200572253   0.5219749459
	    C     0.0370654043   1.2121910446   1.9139328352
	    C    -0.0005609267  -0.0008498562   2.6079621650
	    C    -0.0366430755  -1.2121655897   1.9109309046
	    C    -0.0312816126  -1.2164016905   0.5189313620
	    C     0.0028683606   0.0037404635  -1.6496748600
	    H     0.1142267526   2.1659338574  -0.0089974336
	    H     0.0857314703   2.1511928113   2.4559294554
	    H    -0.0003117487  -0.0022146356   3.6935584776
	    H    -0.0833927394  -2.1526555499   2.4505670707
	    H    -0.1095260081  -2.1611200462  -0.0146083340
	    N    -0.7106353928   0.9098653750  -2.3099865822
	    N     0.7107475116  -0.9102584182  -2.3057906437
	    H     0.6797528953  -1.0129883450  -3.3184976565
	    H     1.3257351165  -1.5380538648  -1.7875388625
	    H    -1.3323768830   1.5352028205  -1.7952907495
	    H    -0.6816829236   1.0058170106  -3.3227453829
			--------------------------
			 OPTKING Finished Execution 
			--------------------------

    Structure for next step:
    Molecular point group: c1
    Full point group: C1

    Geometry (in Angstrom), charge = 1, multiplicity = 1:

    C           -0.001710247335     0.002707388144    -0.179656711399
    C            0.031994046568     1.220057225320     0.521974945923
    C            0.037065404282     1.212191044576     1.913932835159
    C           -0.000560926740    -0.000849856156     2.607962164961
    C           -0.036643075494    -1.212165589742     1.910930904565
    C           -0.031281612633    -1.216401690547     0.518931361978
    C            0.002868360602     0.003740463502    -1.649674860022
    H            0.114226752649     2.165933857390    -0.008997433566
    H            0.085731470301     2.151192811263     2.455929455432
    H           -0.000311748739    -0.002214635626     3.693558477578
    H           -0.083392739425    -2.152655549899     2.450567070662
    H           -0.109526008067    -2.161120046247    -0.014608333980
    N           -0.710635392762     0.909865375018    -2.309986582242
    N            0.710747511607    -0.910258418213    -2.305790643657
    H            0.679752895329    -1.012988345032    -3.318497656519
    H            1.325735116534    -1.538053864807    -1.787538862516
    H           -1.332376883027     1.535202820500    -1.795290749501
    H           -0.681682923648     1.005817010558    -3.322745382857

gradient() will perform analytic gradient computation.

*** tstart() called on arancio.prib.upf.edu
*** at Sat Sep 29 20:46:35 2018

   => Loading Basis Set <=

    Name: 6-31G*
    Role: ORBITAL
    Keyword: BASIS
    atoms 1-7         entry C          line   111 file /shared/joao/test_parameterize/miniconda3/share/psi4/basis/6-31gs.gbs 
    atoms 8-12, 15-18 entry H          line    44 file /shared/joao/test_parameterize/miniconda3/share/psi4/basis/6-31gs.gbs 
    atoms 13-14       entry N          line   128 file /shared/joao/test_parameterize/miniconda3/share/psi4/basis/6-31gs.gbs 


         ---------------------------------------------------------
                                   SCF
            by Justin Turney, Rob Parrish, Andy Simmonett
                             and Daniel Smith
                              RKS Reference
                        4 Threads,   2861 MiB Core
         ---------------------------------------------------------

  ==> Geometry <==

    Molecular point group: c1
    Full point group: C1

    Geometry (in Angstrom), charge = 1, multiplicity = 1:

[...]
	            -0.0000210764       -0.0000071161        0.0000017716
	             0.0014176035        0.0007587740        0.0000457415
	            -0.0000076262       -0.0000057456       -0.0000067237
	             0.0000004014       -0.0000004682       -0.0000000031
	            -0.0000035314        0.0000001638        0.0000000444
	             0.0000026655        0.0000000996        0.0000000092
	             0.0000024117        0.0000037918       -0.0000037058
	            -0.0007196994       -0.0005451429       -0.0000009735
	             0.0000478169        0.0000181513        0.0000251474
	            -0.0000216740       -0.0000156662       -0.0000080058
	            -0.0000371018        0.0000106122       -0.0000253871
	             0.0000130684       -0.0000045109       -0.0000150751
	             0.0000124416        0.0000058595        0.0000045906

	---Fragment 1 Intrafragment Coordinates---
	 - Coordinate -           - BOHR/RAD -       - ANG/DEG -
	 R(1,2)           =         2.659071	       1.407120
	 R(1,6)           =         2.659068	       1.407118
	 R(1,7)           =         2.772949	       1.467381
	 R(2,3)           =         2.629627	       1.391539
	 R(2,8)           =         2.053037	       1.086420
	 R(3,4)           =         2.642290	       1.398240
	 R(3,9)           =         2.050657	       1.085161
	 R(4,5)           =         2.642500	       1.398351
	 R(4,10)          =         2.051595	       1.085657
	 R(5,6)           =         2.629481	       1.391462
	 R(5,11)          =         2.050662	       1.085164
	 R(6,12)          =         2.053016	       1.086409
	 R(7,13)          =         2.512523	       1.329570
	 R(7,14)          =         2.512497	       1.329556
	 R(13,17)         =         1.911806	       1.011684
	 R(13,18)         =         1.915083	       1.013418
	 R(14,15)         =         1.915125	       1.013441
	 R(14,16)         =         1.911746	       1.011653
	 B(1,2,3)         =         2.087195	     119.587465
	 B(1,2,8)         =         2.102479	     120.463197
	 B(1,6,5)         =         2.087003	     119.576490
	 B(1,6,12)        =         2.102459	     120.462030
	 B(1,7,13)        =         2.091157	     119.814461
	 B(1,7,14)        =         2.091982	     119.861765
	 B(2,1,6)         =         2.099381	     120.285675
	 B(2,1,7)         =         2.090962	     119.803275
	 B(2,3,4)         =         2.095130	     120.042109
	 B(2,3,9)         =         2.089873	     119.740927
	 B(3,2,8)         =         2.092495	     119.891124
	 B(3,4,5)         =         2.102266	     120.450951
	 B(3,4,10)        =         2.090487	     119.776091
	 B(4,3,9)         =         2.098132	     120.214090
	 B(4,5,6)         =         2.095317	     120.052816
	 B(4,5,11)        =         2.098046	     120.209186
	 B(5,4,10)        =         2.090432	     119.772939
	 B(5,6,12)        =         2.092534	     119.893342
	 B(6,1,7)         =         2.092732	     119.904704
	 B(6,5,11)        =         2.089789	     119.736062
	 B(7,13,17)       =         2.090774	     119.792506
	 B(7,13,18)       =         2.146602	     122.991246
	 B(7,14,15)       =         2.146095	     122.962181
	 B(7,14,16)       =         2.090713	     119.789014
	 B(13,7,14)       =         2.100000	     120.321109
	 B(15,14,16)      =         2.044367	     117.133629
	 B(17,13,18)      =         2.044525	     117.142647
	 D(1,2,3,4)       =        -0.006724	      -0.385254
	 D(1,2,3,9)       =         3.124128	     178.999352
	 D(1,6,5,4)       =        -0.012540	      -0.718479
	 D(1,6,5,11)      =         3.120238	     178.776481
	 D(1,7,13,17)     =        -0.166000	      -9.511105
	 D(1,7,13,18)     =         3.031634	     173.699832
	 D(1,7,14,15)     =         3.028160	     173.500761
	 D(1,7,14,16)     =        -0.183527	     -10.515320
	 D(2,1,6,5)       =         0.011194	       0.641396
	 D(2,1,6,12)      =         3.100343	     177.636591
	*D(2,1,7,13)      =        -0.698132	     -40.000000
	 D(2,1,7,14)      =         2.453791	     140.591842
	 D(2,3,4,5)       =         0.005404	       0.309634
	 D(2,3,4,10)      =        -3.137070	    -179.740876
	 D(3,2,1,6)       =        -0.001546	      -0.088599
	 D(3,2,1,7)       =        -3.127130	    -179.171351
	 D(3,4,5,6)       =         0.004343	       0.248821
	 D(3,4,5,11)      =        -3.128393	    -179.243729
	 D(4,3,2,8)       =        -3.100119	    -177.623750
	 D(4,5,6,12)      =        -3.101991	    -177.730982
	 D(5,4,3,9)       =        -3.125397	    -179.072033
	 D(5,6,1,7)       =         3.136762	     179.723216
	 D(6,1,2,8)       =         3.091568	     177.133805
	 D(6,1,7,13)      =         2.459408	     140.913719
	 D(6,1,7,14)      =        -0.671855	     -38.494439
	 D(6,5,4,10)      =        -3.136368	    -179.700671
	 D(7,1,2,8)       =        -0.034016	      -1.948947
	 D(7,1,6,12)      =        -0.057275	      -3.281589
	 D(8,2,3,9)       =         0.030733	       1.760856
	 D(9,3,4,10)      =         0.015315	       0.877457
	 D(10,4,5,11)     =         0.014081	       0.806780
	 D(11,5,6,12)     =         0.030787	       1.763978
	 D(13,7,14,15)    =        -0.103051	      -5.904359
	 D(13,7,14,16)    =         2.968448	     170.079560
	 D(14,7,13,17)    =         2.965215	     169.894297
	 D(14,7,13,18)    =        -0.120336	      -6.894767

	Current energy   :      -381.4704484967

	Energy change for the previous step:
		Projected    :        -0.0000007176
		Actual       :        -0.0000005004

	Performing BFGS update.
	Previous computed or guess Hessian on step 1.
	Steps to be used in Hessian update: 6 5
	Taking RFO optimization step.
	Going to follow RFO solution 1.
	Using RFO vector 1.
	Norm of target step-size    0.00343
	Projected energy change by RFO approximation:        -0.0000001372

	Back-transformation to cartesian coordinates...
	Successfully converged to displaced geometry.

	Back-transformation to cartesian coordinates to adjust frozen coordinates...
	Successfully converged to displaced geometry.

	--- Internal Coordinate Step in ANG or DEG, aJ/ANG or AJ/DEG ---
	 ---------------------------------------------------------------------------
	   Coordinate                Previous        Force       Change         New 
	   ----------                --------       ------       ------       ------
	    1 R(1,2)          =      1.407120    -0.000005     0.000014     1.407134
	    2 R(1,6)          =      1.407118    -0.000015     0.000011     1.407129
	    3 R(1,7)          =      1.467381     0.000242     0.000018     1.467400
	    4 R(2,3)          =      1.391539     0.000012    -0.000003     1.391536
	    5 R(2,8)          =      1.086420     0.000023     0.000002     1.086423
	    6 R(3,4)          =      1.398240    -0.000003     0.000000     1.398240
	    7 R(3,9)          =      1.085161    -0.000001    -0.000001     1.085160
	    8 R(4,5)          =      1.398351     0.000034     0.000008     1.398359
	    9 R(4,10)         =      1.085657    -0.000010    -0.000001     1.085656
	   10 R(5,6)          =      1.391462     0.000003    -0.000007     1.391455
	   11 R(5,11)         =      1.085164    -0.000003    -0.000001     1.085163
	   12 R(6,12)         =      1.086409     0.000018     0.000002     1.086411
	   13 R(7,13)         =      1.329570     0.000019     0.000010     1.329580
	   14 R(7,14)         =      1.329556     0.000105     0.000018     1.329574
	   15 R(13,17)        =      1.011684     0.000145     0.000031     1.011715
	   16 R(13,18)        =      1.013418     0.000038     0.000011     1.013429
	   17 R(14,15)        =      1.013441    -0.000075    -0.000006     1.013434
	   18 R(14,16)        =      1.011653     0.000346     0.000060     1.011712
	   19 B(1,2,3)        =    119.587465     0.000000     0.001660   119.589125
	   20 B(1,2,8)        =    120.463197     0.000000     0.000159   120.463355
	   21 B(1,6,5)        =    119.576490     0.000000     0.001065   119.577554
	   22 B(1,6,12)       =    120.462030     0.000000    -0.002655   120.459374
	   23 B(1,7,13)       =    119.814461    -0.000000     0.001130   119.815591
	   24 B(1,7,14)       =    119.861765    -0.000002    -0.004850   119.856915
	   25 B(2,1,6)        =    120.285675    -0.000000    -0.002468   120.283207
	   26 B(2,1,7)        =    119.803275     0.000001     0.002067   119.805342
	   27 B(2,3,4)        =    120.042109     0.000000    -0.000206   120.041902
	   28 B(2,3,9)        =    119.740927    -0.000000     0.000999   119.741926
	   29 B(3,2,8)        =    119.891124    -0.000001    -0.001869   119.889255
	   30 B(3,4,5)        =    120.450951    -0.000000    -0.000560   120.450391
	   31 B(3,4,10)       =    119.776091     0.000000     0.000384   119.776475
	   32 B(4,3,9)        =    120.214090     0.000000    -0.000872   120.213217
	   33 B(4,5,6)        =    120.052816     0.000000     0.000417   120.053232
	   34 B(4,5,11)       =    120.209186    -0.000000    -0.001423   120.207763
	   35 B(5,4,10)       =    119.772939     0.000000     0.000167   119.773106
	   36 B(5,6,12)       =    119.893342    -0.000000     0.000913   119.894255
	   37 B(6,1,7)        =    119.904704    -0.000000     0.000099   119.904803
	   38 B(6,5,11)       =    119.736062    -0.000000     0.000965   119.737027
	   39 B(7,13,17)      =    119.792506    -0.000001    -0.004484   119.788022
	   40 B(7,13,18)      =    122.991246     0.000001     0.002507   122.993753
	   41 B(7,14,15)      =    122.962181     0.000001    -0.000118   122.962062
	   42 B(7,14,16)      =    119.789014    -0.000001    -0.006733   119.782282
	   43 B(13,7,14)      =    120.321109     0.000002     0.003778   120.324887
	   44 B(15,14,16)     =    117.133629     0.000000    -0.002598   117.131031
	   45 B(17,13,18)     =    117.142647     0.000000    -0.002001   117.140646
	   46 D(1,2,3,4)      =     -0.385254     0.000000     0.012524    -0.372730
	   47 D(1,2,3,9)      =    178.999352     0.000000     0.004053   179.003405
	   48 D(1,6,5,4)      =     -0.718479    -0.000000    -0.006047    -0.724526
	   49 D(1,6,5,11)     =    178.776481    -0.000000    -0.011423   178.765058
	   50 D(1,7,13,17)    =     -9.511105    -0.000000    -0.037952    -9.549057
	   51 D(1,7,13,18)    =    173.699832     0.000000     0.047671   173.747503
	   52 D(1,7,14,15)    =    173.500761     0.000000     0.099871   173.600632
	   53 D(1,7,14,16)    =    -10.515320    -0.000000    -0.061507   -10.576827
	   54 D(2,1,6,5)      =      0.641396     0.000000     0.021491     0.662887
	   55 D(2,1,6,12)     =    177.636591     0.000000     0.006622   177.643213
	   56 *D(2,1,7,13)    =    -40.000000     0.000000    -0.000000   -40.000000
	   57 D(2,1,7,14)     =    140.591842    -0.000000    -0.006497   140.585345
	   58 D(2,3,4,5)      =      0.309634    -0.000000     0.002847     0.312480
	   59 D(2,3,4,10)     =   -179.740876    -0.000000    -0.007752  -179.748628
	   60 D(3,2,1,6)      =     -0.088599    -0.000000    -0.024738    -0.113337
	   61 D(3,2,1,7)      =   -179.171351    -0.000000    -0.003185  -179.174536
	   62 D(3,4,5,6)      =      0.248821    -0.000000    -0.006132     0.242689
	   63 D(3,4,5,11)     =   -179.243729     0.000000    -0.000742  -179.244471
	   64 D(4,3,2,8)      =   -177.623750     0.000000     0.013725  -177.610024
	   65 D(4,5,6,12)     =   -177.730982     0.000000     0.008847  -177.722136
	   66 D(5,4,3,9)      =   -179.072033     0.000000     0.011346  -179.060687
	   67 D(5,6,1,7)      =    179.723216     0.000000    -0.000066   179.723150
	   68 D(6,1,2,8)      =    177.133805    -0.000000    -0.026003   177.107802
	   69 D(6,1,7,13)     =    140.913719     0.000000     0.021495   140.935214
	   70 D(6,1,7,14)     =    -38.494439    -0.000000     0.014998   -38.479441
	   71 D(6,5,4,10)     =   -179.700671     0.000000     0.004466  -179.696205
	   72 D(7,1,2,8)      =     -1.948947    -0.000000    -0.004450    -1.953397
	   73 D(7,1,6,12)     =     -3.281589    -0.000000    -0.014935    -3.296525
	   74 D(8,2,3,9)      =      1.760856     0.000000     0.005255     1.766110
	   75 D(9,3,4,10)     =      0.877457     0.000000     0.000748     0.878205
	   76 D(10,4,5,11)    =      0.806780     0.000000     0.009856     0.816636
	   77 D(11,5,6,12)    =      1.763978     0.000000     0.003470     1.767448
	   78 D(13,7,14,15)   =     -5.904359     0.000000     0.093357    -5.811002
	   79 D(13,7,14,16)   =    170.079560    -0.000000    -0.068022   170.011538
	   80 D(14,7,13,17)   =    169.894297     0.000000    -0.031476   169.862821
	   81 D(14,7,13,18)   =     -6.894767     0.000000     0.054147    -6.840619
	 ---------------------------------------------------------------------------
	Successfully symmetrized geometry.

  ==> Convergence Check <==

  Measures of convergence in internal coordinates in au.
  Criteria marked as inactive (o), active & met (*), and active & unmet ( ).
  ---------------------------------------------------------------------------------------------
   Step     Total Energy     Delta E     MAX Force     RMS Force      MAX Disp      RMS Disp   
  ---------------------------------------------------------------------------------------------
    Convergence Criteria    1.00e-06 *    3.00e-04 *             o    1.20e-03 *             o
  ---------------------------------------------------------------------------------------------
      7    -381.47044850   -5.00e-07 *    4.20e-05 *    9.20e-06 o    1.74e-03      3.82e-04 o  ~
  ---------------------------------------------------------------------------------------------


  **** Optimization is complete! (in 7 steps) ****

  ==> Optimization Summary <==

  Measures of convergence in internal coordinates in au.
  --------------------------------------------------------------------------------------------------------------- ~
   Step         Total Energy             Delta E       MAX Force       RMS Force        MAX Disp        RMS Disp  ~
  --------------------------------------------------------------------------------------------------------------- ~
      1    -381.465255593928   -381.465255593928      0.00455357      0.00148805      0.15777342      0.05109749  ~
      2    -381.468759622100     -0.003504028172      0.00939511      0.00184966      0.15825321      0.04082264  ~
      3    -381.470148063081     -0.001388440981      0.00817987      0.00144288      0.06580549      0.01373585  ~
      4    -381.470426011586     -0.000277948504      0.00110967      0.00023526      0.02585735      0.00568615  ~
      5    -381.470439671397     -0.000013659812      0.00052402      0.00013386      0.01104843      0.00238692  ~
      6    -381.470447996300     -0.000008324903      0.00009782      0.00002824      0.00290005      0.00073311  ~
      7    -381.470448496746     -0.000000500446      0.00004202      0.00000920      0.00174307      0.00038166  ~
  --------------------------------------------------------------------------------------------------------------- ~

	Writing optimization data to binary file.
	Final energy is   -381.4704484967461
	Final (previous) structure:
	Cartesian Geometry (in Angstrom)
	    C    -0.0082524265   0.0005536856  -0.1779328565
	    C     0.0352292374   1.2198780704   0.5230265220
	    C     0.0440673623   1.2125241309   1.9145176680
	    C     0.0017336944  -0.0006525895   2.6084085131
	    C    -0.0431647911  -1.2133101188   1.9135483171
	    C    -0.0407471778  -1.2196411115   0.5221032727
	    C     0.0006548997   0.0021305945  -1.6452864538
	    H     0.1071843993   2.1616044823  -0.0138933267
	    H     0.0940115976   2.1507389577   2.4575028190
	    H     0.0045651390  -0.0011934449   3.6940620171
	    H    -0.0882989256  -2.1520834678   2.4559946337
	    H    -0.1129265687  -2.1611206115  -0.0151971928
	    N    -0.7017220315   0.9148543687  -2.3096347068
	    N     0.7012677259  -0.9159744957  -2.3040308541
	    H     0.6654462943  -1.0188861916  -3.3115961457
	    H     1.3489129997  -1.5095405954  -1.8023579460
	    H    -1.3501447235   1.5106453680  -1.8115522659
	    H    -0.6578167049   1.0194729687  -3.3166820144
	Saving final (previous) structure.
	Removing binary optimization data file.
			--------------------------
			 OPTKING Finished Execution 
			--------------------------

    Final optimized geometry and variables:
    Molecular point group: c1
    Full point group: C1

    Geometry (in Angstrom), charge = 1, multiplicity = 1:

    C           -0.008252426533     0.000553685599    -0.177932856514
    C            0.035229237420     1.219878070397     0.523026521955
    C            0.044067362341     1.212524130858     1.914517668040
    C            0.001733694401    -0.000652589490     2.608408513055
    C           -0.043164791080    -1.213310118774     1.913548317118
    C           -0.040747177834    -1.219641111471     0.522103272746
    C            0.000654899684     0.002130594475    -1.645286453847
    H            0.107184399251     2.161604482304    -0.013893326701
    H            0.094011597566     2.150738957693     2.457502819040
    H            0.004565139030    -0.001193444949     3.694062017100
    H           -0.088298925566    -2.152083467835     2.455994633680
    H           -0.112926568747    -2.161120611488    -0.015197192821
    N           -0.701722031477     0.914854368687    -2.309634706762
    N            0.701267725903    -0.915974495669    -2.304030854087
    H            0.665446294331    -1.018886191570    -3.311596145661
    H            1.348912999722    -1.509540595448    -1.802357945979
    H           -1.350144723536     1.510645367962    -1.811552265949
    H           -0.657816704875     1.019472968720    -3.316682014414

	Removing binary optimization data file.
	Cleaning optimization helper files.


Properties will be evaluated at   0.000000,   0.000000,   0.000000 [a0]
OEProp: No title given, name of density matrix used for the following properties is 'SCF density'
  Nuclear Dipole Moment: [e a0]
     X:    -0.1042      Y:     0.0013      Z:    -0.0171

  Electronic Dipole Moment: [e a0]
     X:     0.1119      Y:     0.0027      Z:    -2.2549

  Dipole Moment: [e a0]
     X:     0.0077      Y:     0.0040      Z:    -2.2720     Total:     2.2720

  Dipole Moment: [D]
     X:     0.0195      Y:     0.0101      Z:    -5.7749     Total:     5.7749

  Quadrupole Moment: [D A]
    XX:   -49.6212     YY:   -37.7274     ZZ:   -13.3196
    XY:    -5.8383     XZ:    -0.0130     YZ:    -0.0433

  Traceless Quadrupole Moment: [D A]
    XX:   -16.0651     YY:    -4.1714     ZZ:    20.2365
    XY:    -5.8383     XZ:    -0.0130     YZ:    -0.0433

  Mulliken Charges: (a.u.)
   Center  Symbol    Alpha    Beta     Spin     Total
       1     C     2.96008  2.96008  0.00000  0.07985
       2     C     3.08110  3.08110  0.00000 -0.16219
       3     C     3.06242  3.06242  0.00000 -0.12485
       4     C     3.05159  3.05159  0.00000 -0.10317
       5     C     3.06265  3.06265  0.00000 -0.12531
       6     C     3.08137  3.08137  0.00000 -0.16275
       7     C     2.72412  2.72412  0.00000  0.55177
       8     H     0.41402  0.41402  0.00000  0.17196
       9     H     0.40554  0.40554  0.00000  0.18892
      10     H     0.40406  0.40406  0.00000  0.19187
      11     H     0.40554  0.40554  0.00000  0.18892
      12     H     0.41394  0.41394  0.00000  0.17212
      13     N     3.86156  3.86156  0.00000 -0.72313
      14     N     3.86199  3.86199  0.00000 -0.72399
      15     H     0.30565  0.30565  0.00000  0.38871
      16     H     0.29941  0.29941  0.00000  0.40118
      17     H     0.29928  0.29928  0.00000  0.40143
      18     H     0.30567  0.30567  0.00000  0.38865

   Total alpha = 32.00000, Total beta = 32.00000, Total charge =  1.00000


    Psi4 stopped on: Saturday, 29 September 2018 08:48PM
    Psi4 wall time for execution: 0:03:06.27

*** Psi4 exiting successfully. Buy a developer a beer!
