
    -----------------------------------------------------------------------
          Psi4: An Open-Source Ab Initio Electronic Structure Package
                               Psi4 1.2.1 release

                         Git: Rev {HEAD} 406f4de 


    R. M. Parrish, L. A. Burns, D. G. A. Smith, A. C. Simmonett,
    A. E. DePrince III, E. G. Hohenstein, U. Bozkaya, A. Yu. Sokolov,
    R. Di Remigio, R. M. Richard, J. F. Gonthier, A. M. James,
    H. R. McAlexander, A. Kumar, M. Saitow, X. Wang, B. P. Pritchard,
    P. Verma, H. F. Schaefer III, K. Patkowski, R. A. King, E. F. Valeev,
    F. A. Evangelista, J. M. Turney, T. D. Crawford, and C. D. Sherrill,
    J. Chem. Theory Comput. 13(7) pp 3185--3197 (2017).
    (doi: 10.1021/acs.jctc.7b00174)


                         Additional Contributions by
    P. Kraus, H. Kruse, M. H. Lechner, M. C. Schieber, and R. A. Shaw

    -----------------------------------------------------------------------


    Psi4 started on: Saturday, 29 September 2018 04:49PM

    Process ID: 4705
    Host:       loro.prib.upf.edu
    PSIDATADIR: /shared/joao/test_parameterize/miniconda3/share/psi4
    Memory:     500.0 MiB
    Threads:    1
    
  ==> Input File <==

--------------------------------------------------------------------------
set_num_threads(1)
set_memory('5348 MB')

set { scf_mem_safety_factor 0.7 }

set { reference rks }
set { basis cc-pVDZ }

molecule MOL {
    0 1
    noreorient
    nocom
    symmetry c1
    O    1.141000   0.017000   0.083000
    C    2.558000   0.086000  -0.005000
    C    3.192000  -0.789000   1.067000
    O    4.000995  -1.791500   0.463768
    H    0.789000   0.590000  -0.620000
    H    2.874000   1.128000   0.115000
    H    2.871000  -0.243000  -1.001000
    H    2.418940  -1.269469   1.674837
    H    3.813185  -0.183365   1.736488
    H    4.378694  -2.318158   1.189620
}

set optking { frozen_dihedral = (" 1 2 3 4 ") }

energy, wfn = energy('B3LYP-D3', return_wfn=True)

import os
os.chdir(os.environ['HTMD_PSI4_WORKDIR'])

oeprop(wfn, 'DIPOLE', 'QUADRUPOLE', 'MULLIKEN_CHARGES')

with open('psi4out.xyz', 'w') as f:
    f.write('10 ' )
    f.write('%.12f\n' % energy)
    f.write(MOL.save_string_xyz())
--------------------------------------------------------------------------
  Threads set to 1 by Python driver.

  Memory set to   4.981 GiB by Python driver.

*** tstart() called on loro.prib.upf.edu
*** at Sat Sep 29 16:49:51 2018

   => Loading Basis Set <=

    Name: CC-PVDZ
    Role: ORBITAL
    Keyword: BASIS
    atoms 1, 4 entry O          line   198 file /shared/joao/test_parameterize/miniconda3/share/psi4/basis/cc-pvdz.gbs 
    atoms 2-3  entry C          line   138 file /shared/joao/test_parameterize/miniconda3/share/psi4/basis/cc-pvdz.gbs 
    atoms 5-10 entry H          line    22 file /shared/joao/test_parameterize/miniconda3/share/psi4/basis/cc-pvdz.gbs 


         ---------------------------------------------------------
                                   SCF
            by Justin Turney, Rob Parrish, Andy Simmonett
                             and Daniel Smith
                              RKS Reference
                        1 Threads,   5100 MiB Core
         ---------------------------------------------------------

  ==> Geometry <==

    Molecular point group: c1
    Full point group: C1

    Geometry (in Angstrom), charge = 0, multiplicity = 1:

       Center              X                  Y                   Z               Mass       
    ------------   -----------------  -----------------  -----------------  -----------------
         O            1.141000000000     0.017000000000     0.083000000000    15.994914619560
         C            2.558000000000     0.086000000000    -0.005000000000    12.000000000000
         C            3.192000000000    -0.789000000000     1.067000000000    12.000000000000
         O            4.000995000000    -1.791500000000     0.463768000000    15.994914619560
         H            0.789000000000     0.590000000000    -0.620000000000     1.007825032070
         H            2.874000000000     1.128000000000     0.115000000000     1.007825032070
         H            2.871000000000    -0.243000000000    -1.001000000000     1.007825032070
         H            2.418940000000    -1.269469000000     1.674837000000     1.007825032070
         H            3.813185000000    -0.183365000000     1.736488000000     1.007825032070
         H            4.378694000000    -2.318158000000     1.189620000000     1.007825032070

  Running in c1 symmetry.

  Rotational constants: A =      0.49746  B =      0.02784  C =      0.02730 [cm^-1]
  Rotational constants: A =  14913.56246  B =    834.74138  C =    818.53142 [MHz]
  Nuclear repulsion =  130.103333368171405

  Charge       = 0
  Multiplicity = 1
  Electrons    = 34
  Nalpha       = 17
  Nbeta        = 17

  ==> Algorithm <==

  SCF Algorithm Type is DF.
  DIIS enabled.
  MOM disabled.
  Fractional occupation disabled.
  Guess Type is SAD.
  Energy threshold   = 1.00e-06
  Density threshold  = 1.00e-06
  Integral threshold = 0.00e+00

  ==> Primary Basis <==

  Basis Set: CC-PVDZ
    Blend: CC-PVDZ
    Number of shells: 42
    Number of basis function: 86
    Number of Cartesian functions: 90
    Spherical Harmonics?: true
    Max angular momentum: 2

  ==> DFT Potential <==

   => Composite Functional: B3LYP-D3ZERO <= 

    B3LYP-d3zero Hyb-GGA Exchange-Correlation Functional

    P. J. Stephens, F. J. Devlin, C. F. Chabalowski, and M. J. Frisch, J. Phys. Chem. 98, 11623 (1994)

    Deriv               =              1
    GGA                 =           TRUE
    Meta                =          FALSE

    Exchange Hybrid     =           TRUE
    MP2 Hybrid          =          FALSE

   => Exchange Functionals <=

    0.0800   Slater exchange
    0.7200         Becke 88

   => Exact (HF) Exchange <=

    0.2000               HF 

   => Correlation Functionals <=

    0.1900   Vosko, Wilk & Nusair (VWN5_RPA)
    0.8100   Lee, Yang & Parr

   => Molecular Quadrature <=

    Radial Scheme       =       TREUTLER
    Pruning Scheme      =           FLAT
    Nuclear Scheme      =       TREUTLER

    BS radius alpha     =              1
    Pruning alpha       =              1
    Radial Points       =             75
    Spherical Points    =            302
    Total Points        =         222552
    Total Blocks        =           1727
    Max Points          =            256
    Max Functions       =             86

   => -D3ZERO: Empirical Dispersion <=

    Grimme's -D3 (zero-damping) Dispersion Correction
    Grimme S.; Antony J.; Ehrlich S.; Krieg H. (2010), J. Chem. Phys., 132: 154104

        S6 =   1.000000E+00
        S8 =   1.703000E+00
       SR6 =   1.261000E+00
       SR8 =   1.000000E+00
    ALPHA6 =   1.400000E+01

   => Loading Basis Set <=

    Name: (CC-PVDZ AUX)
    Role: JKFIT
    Keyword: DF_BASIS_SCF
    atoms 1, 4 entry O          line   221 file /shared/joao/test_parameterize/miniconda3/share/psi4/basis/cc-pvdz-jkfit.gbs 
    atoms 2-3  entry C          line   121 file /shared/joao/test_parameterize/miniconda3/share/psi4/basis/cc-pvdz-jkfit.gbs 
    atoms 5-10 entry H          line    51 file /shared/joao/test_parameterize/miniconda3/share/psi4/basis/cc-pvdz-jkfit.gbs 

  ==> Pre-Iterations <==

   -------------------------------------------------------
    Irrep   Nso     Nmo     Nalpha   Nbeta   Ndocc  Nsocc
   -------------------------------------------------------
     A         86      86       0       0       0       0
   -------------------------------------------------------
    Total      86      86      17      17      17       0
   -------------------------------------------------------

  ==> Integral Setup <==

  DFHelper Memory: AOs need 0.030 [GiB]; user supplied 3.486 [GiB]. Using in-core AOs.

  ==> MemDFJK: Density-Fitted J/K Matrices <==

    J tasked:                   Yes
    K tasked:                   Yes
    wK tasked:                   No
    OpenMP threads:               1
    Memory (MB):               3570
    Algorithm:                 Core
    Schwarz Cutoff:           1E-12
    Mask sparsity (%):       0.3786
    Fitting Condition:        1E-12

   => Auxiliary Basis Set <=

  Basis Set: (CC-PVDZ AUX)
    Blend: CC-PVDZ-JKFIT
    Number of shells: 150
    Number of basis function: 418
    Number of Cartesian functions: 474
    Spherical Harmonics?: true
    Max angular momentum: 3

  Minimum eigenvalue in the overlap matrix is 4.9162084448E-03.
  Using Symmetric Orthogonalization.

  SCF Guess: Superposition of Atomic Densities via on-the-fly atomic UHF.

  ==> Iterations <==

                           Total Energy        Delta E     RMS |[F,P]|

   @DF-RKS iter   0:  -230.90114064857448   -2.30901e+02   4.00268e-02 
   @DF-RKS iter   1:  -230.16702346734169    7.34117e-01   5.34780e-03 
   @DF-RKS iter   2:  -230.10803538654906    5.89881e-02   7.25007e-03 DIIS
   @DF-RKS iter   3:  -230.25191751103512   -1.43882e-01   6.34125e-04 DIIS
   @DF-RKS iter   4:  -230.25294960190519   -1.03209e-03   2.75888e-04 DIIS
   @DF-RKS iter   5:  -230.25321178206374   -2.62180e-04   4.88840e-05 DIIS
   @DF-RKS iter   6:  -230.25321995110610   -8.16904e-06   7.95074e-06 DIIS
   @DF-RKS iter   7:  -230.25322011417822   -1.63072e-07   3.79947e-06 DIIS
   @DF-RKS iter   8:  -230.25322015100764   -3.68294e-08   9.29295e-07 DIIS

  ==> Post-Iterations <==

    Orbital Energies [Eh]
    ---------------------

    Doubly Occupied:                                                      

       1A    -19.128456     2A    -19.128413     3A    -10.225319  
       4A    -10.225130     5A     -1.017306     6A     -1.005072  
       7A     -0.732721     8A     -0.603210     9A     -0.520811  
      10A     -0.504676    11A     -0.438429    12A     -0.410775  
      13A     -0.407511    14A     -0.346513    15A     -0.320093  
      16A     -0.266205    17A     -0.255958  

    Virtual:                                                              

      18A      0.052267    19A      0.053252    20A      0.104332  
      21A      0.124447    22A      0.129071    23A      0.148149  
      24A      0.198165    25A      0.234930    26A      0.242899  
      27A      0.464623    28A      0.484276    29A      0.492885  
      30A      0.512890    31A      0.534613    32A      0.599906  
      33A      0.603592    34A      0.621488    35A      0.645788  
      36A      0.652579    37A      0.685114    38A      0.692748  
      39A      0.828946    40A      0.830990    41A      0.924123  
      42A      0.978858    43A      1.000968    44A      1.040044  
      45A      1.060771    46A      1.199406    47A      1.214619  
      48A      1.239268    49A      1.300244    50A      1.328640  
      51A      1.337210    52A      1.365559    53A      1.506719  
      54A      1.513155    55A      1.551636    56A      1.576230  
      57A      1.608715    58A      1.634755    59A      1.644416  
      60A      1.743693    61A      1.754364    62A      1.790624  
      63A      1.847993    64A      1.915698    65A      1.965696  
      66A      1.984847    67A      2.036269    68A      2.047566  
      69A      2.110802    70A      2.161200    71A      2.190993  
      72A      2.255851    73A      2.403175    74A      2.428554  
      75A      2.478659    76A      2.516784    77A      2.915894  
      78A      2.954941    79A      2.986106    80A      3.037490  
      81A      3.083634    82A      3.123525    83A      3.189663  
      84A      3.190934    85A      3.684410    86A      3.687318  

    Final Occupation by Irrep:
              A 
    DOCC [    17 ]

  Energy converged.

  @DF-RKS Final Energy:  -230.25322015100764

   => Energetics <=

    Nuclear Repulsion Energy =            130.1033333681714055
    One-Electron Energy =                -572.0055275791004306
    Two-Electron Energy =                 236.1949977054832175
    DFT Exchange-Correlation Energy =     -24.5417818455618324
    Empirical Dispersion Energy =          -0.0042418000000000
    VV10 Nonlocal Energy =                  0.0000000000000000
    Total Energy =                       -230.2532201510076106



Properties will be evaluated at   0.000000,   0.000000,   0.000000 [a0]

Properties computed using the SCF density matrix

  Nuclear Dipole Moment: [e a0]
     X:   175.3303      Y:   -39.1362      Z:    26.1559

  Electronic Dipole Moment: [e a0]
     X:  -175.1257      Y:    39.4991      Z:   -25.9815

  Dipole Moment: [e a0]
     X:     0.2046      Y:     0.3629      Z:     0.1744     Total:     0.4516

  Dipole Moment: [D]
     X:     0.5199      Y:     0.9224      Z:     0.4432     Total:     1.1478


*** tstop() called on loro.prib.upf.edu at Sat Sep 29 16:50:06 2018
Module time:
	user time   =      12.86 seconds =       0.21 minutes
	system time =       0.17 seconds =       0.00 minutes
	total time  =         15 seconds =       0.25 minutes
Total time:
	user time   =      12.86 seconds =       0.21 minutes
	system time =       0.17 seconds =       0.00 minutes
	total time  =         15 seconds =       0.25 minutes


Properties will be evaluated at   0.000000,   0.000000,   0.000000 [a0]
OEProp: No title given, name of density matrix used for the following properties is 'SCF density'
  Nuclear Dipole Moment: [e a0]
     X:   175.3303      Y:   -39.1362      Z:    26.1559

  Electronic Dipole Moment: [e a0]
     X:  -175.1257      Y:    39.4991      Z:   -25.9815

  Dipole Moment: [e a0]
     X:     0.2046      Y:     0.3629      Z:     0.1744     Total:     0.4516

  Dipole Moment: [D]
     X:     0.5199      Y:     0.9224      Z:     0.4432     Total:     1.1478

  Quadrupole Moment: [D A]
    XX:   -22.4163     YY:   -23.2069     ZZ:   -21.4734
    XY:    -0.0965     XZ:     5.9671     YZ:    -4.2191

  Traceless Quadrupole Moment: [D A]
    XX:    -0.0508     YY:    -0.8414     ZZ:     0.8922
    XY:    -0.0965     XZ:     5.9671     YZ:    -4.2191

  Mulliken Charges: (a.u.)
   Center  Symbol    Alpha    Beta     Spin     Total
       1     O     4.14014  4.14014  0.00000 -0.28029
       2     C     2.93297  2.93297  0.00000  0.13406
       3     C     2.93307  2.93307  0.00000  0.13386
       4     O     4.14036  4.14036  0.00000 -0.28072
       5     H     0.43042  0.43042  0.00000  0.13916
       6     H     0.50238  0.50238  0.00000 -0.00475
       7     H     0.49404  0.49404  0.00000  0.01191
       8     H     0.49396  0.49396  0.00000  0.01208
       9     H     0.50228  0.50228  0.00000 -0.00455
      10     H     0.43037  0.43037  0.00000  0.13926

   Total alpha = 17.00000, Total beta = 17.00000, Total charge = -0.00000


    Psi4 stopped on: Saturday, 29 September 2018 04:50PM
    Psi4 wall time for execution: 0:00:15.59

*** Psi4 exiting successfully. Buy a developer a beer!
