
    -----------------------------------------------------------------------
          Psi4: An Open-Source Ab Initio Electronic Structure Package
                               Psi4 1.2.1 release

                         Git: Rev {HEAD} 406f4de 


    R. M. Parrish, L. A. Burns, D. G. A. Smith, A. C. Simmonett,
    A. E. DePrince III, E. G. Hohenstein, U. Bozkaya, A. Yu. Sokolov,
    R. Di Remigio, R. M. Richard, J. F. Gonthier, A. M. James,
    H. R. McAlexander, A. Kumar, M. Saitow, X. Wang, B. P. Pritchard,
    P. Verma, H. F. Schaefer III, K. Patkowski, R. A. King, E. F. Valeev,
    F. A. Evangelista, J. M. Turney, T. D. Crawford, and C. D. Sherrill,
    J. Chem. Theory Comput. 13(7) pp 3185--3197 (2017).
    (doi: 10.1021/acs.jctc.7b00174)


                         Additional Contributions by
    P. Kraus, H. Kruse, M. H. Lechner, M. C. Schieber, and R. A. Shaw

    -----------------------------------------------------------------------


    Psi4 started on: Saturday, 29 September 2018 08:24PM

    Process ID: 27518
    Host:       arancio.prib.upf.edu
    PSIDATADIR: /shared/joao/test_parameterize/miniconda3/share/psi4
    Memory:     500.0 MiB
    Threads:    1
    
  ==> Input File <==

--------------------------------------------------------------------------
set_num_threads(4)
set_memory('3000 MB')

set { scf_mem_safety_factor 0.7 }

set { reference rks }
set { basis 6-31G* }

molecule MOL {
    1 1
    noreorient
    nocom
    symmetry c1
    C   -0.000000  -0.000000  -0.177864
    C    0.036678   1.219374   0.524165
    C    0.031765   1.213120   1.915444
    C    0.000000   0.000000   2.610107
    C   -0.031765  -1.213120   1.915444
    C   -0.036678  -1.219375   0.524165
    C   -0.000000   0.000000  -1.644734
    H    0.018170   2.164705  -0.010854
    H    0.042402   2.152895   2.457886
    H    0.000000   0.000000   3.695756
    H   -0.042402  -2.152895   2.457886
    H   -0.018170  -2.164705  -0.010853
    N   -0.712590  -0.905950  -2.308461
    N    0.712590   0.905950  -2.308460
    H    0.673432   1.006470  -3.315997
    H    1.377190   1.485970  -1.813316
    H   -0.712057  -0.905272  -3.320035
    H   -1.216706  -1.654670  -1.847970
}

set optking { frozen_dihedral = (" 1 7 13 17 ") }

set optking { dynamic_level = 1 
 geom_maxiter = 250
 print_trajectory_xyz_file = True }

energy, wfn = optimize('B3LYP-D3', return_wfn=True)

import os
os.chdir(os.environ['HTMD_PSI4_WORKDIR'])

oeprop(wfn, 'DIPOLE', 'QUADRUPOLE', 'MULLIKEN_CHARGES')

with open('psi4out.xyz', 'w') as f:
    f.write('18 ' )
    f.write('%.12f\n' % energy)
    f.write(MOL.save_string_xyz())
--------------------------------------------------------------------------
  Threads set to 4 by Python driver.

  Memory set to   2.794 GiB by Python driver.
gradient() will perform analytic gradient computation.

*** tstart() called on arancio.prib.upf.edu
*** at Sat Sep 29 20:24:39 2018

   => Loading Basis Set <=

    Name: 6-31G*
    Role: ORBITAL
    Keyword: BASIS
    atoms 1-7         entry C          line   111 file /shared/joao/test_parameterize/miniconda3/share/psi4/basis/6-31gs.gbs 
    atoms 8-12, 15-18 entry H          line    44 file /shared/joao/test_parameterize/miniconda3/share/psi4/basis/6-31gs.gbs 
    atoms 13-14       entry N          line   128 file /shared/joao/test_parameterize/miniconda3/share/psi4/basis/6-31gs.gbs 


         ---------------------------------------------------------
                                   SCF
            by Justin Turney, Rob Parrish, Andy Simmonett
                             and Daniel Smith
                              RKS Reference
                        4 Threads,   2861 MiB Core
         ---------------------------------------------------------

  ==> Geometry <==

    Molecular point group: c1
    Full point group: C1

    Geometry (in Angstrom), charge = 1, multiplicity = 1:

       Center              X                  Y                   Z               Mass       
    ------------   -----------------  -----------------  -----------------  -----------------
         C            0.000000000000     0.000000000000    -0.177864000000    12.000000000000
         C            0.036678000000     1.219374000000     0.524165000000    12.000000000000
         C            0.031765000000     1.213120000000     1.915444000000    12.000000000000
         C            0.000000000000     0.000000000000     2.610107000000    12.000000000000
         C           -0.031765000000    -1.213120000000     1.915444000000    12.000000000000
         C           -0.036678000000    -1.219375000000     0.524165000000    12.000000000000
         C            0.000000000000     0.000000000000    -1.644734000000    12.000000000000
         H            0.018170000000     2.164705000000    -0.010854000000     1.007825032070
         H            0.042402000000     2.152895000000     2.457886000000     1.007825032070
         H            0.000000000000     0.000000000000     3.695756000000     1.007825032070
         H           -0.042402000000    -2.152895000000     2.457886000000     1.007825032070
         H           -0.018170000000    -2.164705000000    -0.010853000000     1.007825032070
         N           -0.712590000000    -0.905950000000    -2.308461000000    14.003074004780
         N            0.712590000000     0.905950000000    -2.308460000000    14.003074004780
         H            0.673432000000     1.006470000000    -3.315997000000     1.007825032070
         H            1.377190000000     1.485970000000    -1.813316000000     1.007825032070
         H           -0.712057000000    -0.905272000000    -3.320035000000     1.007825032070
         H           -1.216706000000    -1.654670000000    -1.847970000000     1.007825032070

  Running in c1 symmetry.

  Rotational constants: A =      0.12192  B =      0.03959  C =      0.03127 [cm^-1]
  Rotational constants: A =   3655.19139  B =   1186.80147  C =    937.30928 [MHz]
  Nuclear repulsion =  416.916589211120936

  Charge       = 1
  Multiplicity = 1
  Electrons    = 64
  Nalpha       = 32
  Nbeta        = 32

  ==> Algorithm <==

  SCF Algorithm Type is DF.
  DIIS enabled.
  MOM disabled.
  Fractional occupation disabled.
  Guess Type is SAD.
  Energy threshold   = 1.00e-08
  Density threshold  = 1.00e-08
  Integral threshold = 0.00e+00

  ==> Primary Basis <==

  Basis Set: 6-31G*
    Blend: 6-31G*
    Number of shells: 72
    Number of basis function: 153
    Number of Cartesian functions: 153
    Spherical Harmonics?: false
    Max angular momentum: 2

  ==> DFT Potential <==

   => Composite Functional: B3LYP-D3ZERO <= 

    B3LYP-d3zero Hyb-GGA Exchange-Correlation Functional

    P. J. Stephens, F. J. Devlin, C. F. Chabalowski, and M. J. Frisch, J. Phys. Chem. 98, 11623 (1994)

    Deriv               =              1
    GGA                 =           TRUE
    Meta                =          FALSE

    Exchange Hybrid     =           TRUE
    MP2 Hybrid          =          FALSE

   => Exchange Functionals <=

    0.0800   Slater exchange
    0.7200         Becke 88

   => Exact (HF) Exchange <=

    0.2000               HF 

   => Correlation Functionals <=

    0.1900   Vosko, Wilk & Nusair (VWN5_RPA)
    0.8100   Lee, Yang & Parr

   => Molecular Quadrature <=

    Radial Scheme       =       TREUTLER
    Pruning Scheme      =           FLAT
    Nuclear Scheme      =       TREUTLER

    BS radius alpha     =              1
    Pruning alpha       =              1
    Radial Points       =             75
    Spherical Points    =            302
    Total Points        =         396914
    Total Blocks        =           2992
    Max Points          =            256
    Max Functions       =            149

   => -D3ZERO: Empirical Dispersion <=

    Grimme's -D3 (zero-damping) Dispersion Correction
    Grimme S.; Antony J.; Ehrlich S.; Krieg H. (2010), J. Chem. Phys., 132: 154104

        S6 =   1.000000E+00
        S8 =   1.703000E+00
       SR6 =   1.261000E+00
       SR8 =   1.000000E+00
    ALPHA6 =   1.400000E+01

   => Loading Basis Set <=

    Name: (6-31G* AUX)
    Role: JKFIT
    Keyword: DF_BASIS_SCF
    atoms 1-7         entry C          line   121 file /shared/joao/test_parameterize/miniconda3/share/psi4/basis/cc-pvdz-jkfit.gbs 
    atoms 8-12, 15-18 entry H          line    51 file /shared/joao/test_parameterize/miniconda3/share/psi4/basis/cc-pvdz-jkfit.gbs 
    atoms 13-14       entry N          line   171 file /shared/joao/test_parameterize/miniconda3/share/psi4/basis/cc-pvdz-jkfit.gbs 

  ==> Pre-Iterations <==

   -------------------------------------------------------
    Irrep   Nso     Nmo     Nalpha   Nbeta   Ndocc  Nsocc
   -------------------------------------------------------
     A        153     153       0       0       0       0
   -------------------------------------------------------
    Total     153     153      32      32      32       0
   -------------------------------------------------------

  ==> Integral Setup <==

  ==> DiskDFJK: Density-Fitted J/K Matrices <==

    J tasked:                  Yes
    K tasked:                  Yes
    wK tasked:                  No
    OpenMP threads:              4
    Integrals threads:           4
    Memory (MB):              2002
    Algorithm:                Core
    Integral Cache:           NONE
    Schwarz Cutoff:          1E-12
    Fitting Condition:       1E-12

   => Auxiliary Basis Set <=

  Basis Set: (6-31G* AUX)
    Blend: CC-PVDZ-JKFIT
    Number of shells: 297
    Number of basis function: 954
    Number of Cartesian functions: 954
    Spherical Harmonics?: false
    Max angular momentum: 3

  Minimum eigenvalue in the overlap matrix is 4.8690573131E-04.
  Using Symmetric Orthogonalization.

  SCF Guess: Superposition of Atomic Densities via on-the-fly atomic UHF.

  ==> Iterations <==

                           Total Energy        Delta E     RMS |[F,P]|

   @DF-RKS iter   0:  -379.62185339405590   -3.79622e+02   6.73346e-02 
   @DF-RKS iter   1:  -381.04399051232707   -1.42214e+00   1.17495e-02 
   @DF-RKS iter   2:  -380.96476681966629    7.92237e-02   1.30243e-02 DIIS
   @DF-RKS iter   3:  -381.46180282251720   -4.97036e-01   1.59289e-03 DIIS
   @DF-RKS iter   4:  -381.46709284509046   -5.29002e-03   7.70008e-04 DIIS
   @DF-RKS iter   5:  -381.46859654436651   -1.50370e-03   2.35154e-04 DIIS
   @DF-RKS iter   6:  -381.46872816641883   -1.31622e-04   8.17016e-05 DIIS
   @DF-RKS iter   7:  -381.46874575783096   -1.75914e-05   1.45646e-05 DIIS
   @DF-RKS iter   8:  -381.46874626379804   -5.05967e-07   6.73379e-06 DIIS
   @DF-RKS iter   9:  -381.46874640235478   -1.38557e-07   2.02884e-06 DIIS
   @DF-RKS iter  10:  -381.46874641476455   -1.24098e-08   6.18946e-07 DIIS
   @DF-RKS iter  11:  -381.46874641587215   -1.10759e-09   7.49678e-08 DIIS
   @DF-RKS iter  12:  -381.46874641588141   -9.26548e-12   5.46631e-08 DIIS
   @DF-RKS iter  13:  -381.46874641589017   -8.75389e-12   1.90152e-08 DIIS
   @DF-RKS iter  14:  -381.46874641589079   -6.25278e-13   5.38935e-09 DIIS

  ==> Post-Iterations <==

    Orbital Energies [Eh]
    ---------------------

    Doubly Occupied:                                                      

       1A    -14.568689     2A    -14.568575     3A    -10.498125  
       4A    -10.373398     5A    -10.356753     6A    -10.356010  
       7A    -10.342577     8A    -10.340584     9A    -10.340225  
      10A     -1.184928    11A     -1.092388    12A     -1.014348  
      13A     -0.926849    14A     -0.902345    15A     -0.846062  
      16A     -0.787291    17A     -0.773428    18A     -0.741034  
      19A     -0.733190    20A     -0.689987    21A     -0.668781  
      22A     -0.626428    23A     -0.618250    24A     -0.588777  
      25A     -0.578428    26A     -0.574050    27A     -0.517819  
      28A     -0.505756    29A     -0.498284    30A     -0.472361  
      31A     -0.410870    32A     -0.405666  

    Virtual:                                                              

      33A     -0.216135    34A     -0.157461    35A     -0.130000  
      36A     -0.110449    37A     -0.069506    38A     -0.062834  
      39A     -0.038882    40A     -0.034025    41A      0.007151  
      42A      0.020318    43A      0.024009    44A      0.058576  
      45A      0.062392    46A      0.083264    47A      0.124623  
      48A      0.149478    49A      0.157287    50A      0.160282  
      51A      0.202434    52A      0.243719    53A      0.297428  
      54A      0.350567    55A      0.353643    56A      0.379664  
      57A      0.387324    58A      0.397390    59A      0.421832  
      60A      0.423103    61A      0.441907    62A      0.447942  
      63A      0.452849    64A      0.471381    65A      0.471528  
      66A      0.475237    67A      0.485578    68A      0.506432  
      69A      0.523066    70A      0.535242    71A      0.539466  
      72A      0.590397    73A      0.607010    74A      0.653165  
      75A      0.661737    76A      0.680935    77A      0.689125  
      78A      0.704662    79A      0.716699    80A      0.720318  
      81A      0.748339    82A      0.774999    83A      0.780004  
      84A      0.802033    85A      0.813016    86A      0.834711  
      87A      0.848272    88A      0.940807    89A      0.962573  
      90A      0.995226    91A      1.002861    92A      1.026941  
      93A      1.052225    94A      1.072994    95A      1.142175  
      96A      1.174308    97A      1.233194    98A      1.268941  
      99A      1.281989   100A      1.306555   101A      1.322019  
     102A      1.343687   103A      1.362002   104A      1.367093  
     105A      1.421401   106A      1.449025   107A      1.495176  
     108A      1.601346   109A      1.619883   110A      1.654377  
     111A      1.669595   112A      1.736432   113A      1.754198  
     114A      1.796466   115A      1.826066   116A      1.854565  
     117A      1.903668   118A      1.916322   119A      1.962120  
     120A      1.975605   121A      1.996986   122A      2.020103  
     123A      2.041098   124A      2.076643   125A      2.109535  
     126A      2.129815   127A      2.150794   128A      2.204922  
     129A      2.223700   130A      2.263231   131A      2.343411  
     132A      2.370588   133A      2.445496   134A      2.452553  
     135A      2.489551   136A      2.519977   137A      2.548446  
     138A      2.588826   139A      2.604724   140A      2.629343  
     141A      2.739620   142A      2.884220   143A      2.985326  
     144A      3.259018   145A      3.640026   146A      3.656832  
     147A      3.914059   148A      3.948739   149A      3.963565  
     150A      4.055296   151A      4.173568   152A      4.257728  
     153A      4.546347  

    Final Occupation by Irrep:
              A 
    DOCC [    32 ]

  Energy converged.

  @DF-RKS Final Energy:  -381.46874641589079

   => Energetics <=

    Nuclear Repulsion Energy =            416.9165892111209359
    One-Electron Energy =               -1329.0182703499990566
    Two-Electron Energy =                 575.0508610864445700
    DFT Exchange-Correlation Energy =     -44.4060443534572400
    Empirical Dispersion Energy =          -0.0118820100000000
    VV10 Nonlocal Energy =                  0.0000000000000000
    Total Energy =                       -381.4687464158907915



Properties will be evaluated at   0.000000,   0.000000,   0.000000 [a0]

Properties computed using the SCF density matrix

  Nuclear Dipole Moment: [e a0]
     X:     0.2303      Y:    -0.1276      Z:    -0.0483

  Electronic Dipole Moment: [e a0]
     X:    -0.1607      Y:     0.0853      Z:    -2.2231

  Dipole Moment: [e a0]
     X:     0.0696      Y:    -0.0423      Z:    -2.2715     Total:     2.2729

  Dipole Moment: [D]
     X:     0.1768      Y:    -0.1075      Z:    -5.7735     Total:     5.7772


*** tstop() called on arancio.prib.upf.edu at Sat Sep 29 20:25:08 2018
Module time:
	user time   =     102.12 seconds =       1.70 minutes
	system time =       1.03 seconds =       0.02 minutes
	total time  =         29 seconds =       0.48 minutes
Total time:
	user time   =     102.12 seconds =       1.70 minutes
	system time =       1.03 seconds =       0.02 minutes
	total time  =         29 seconds =       0.48 minutes

*** tstart() called on arancio.prib.upf.edu
*** at Sat Sep 29 20:25:08 2018


         ------------------------------------------------------------
                                   SCF GRAD                          
                          Rob Parrish, Justin Turney,                
                       Andy Simmonett, and Alex Sokolov              
         ------------------------------------------------------------

  ==> Geometry <==

    Molecular point group: c1
    Full point group: C1

    Geometry (in Angstrom), charge = 1, multiplicity = 1:

       Center              X                  Y                   Z               Mass       
    ------------   -----------------  -----------------  -----------------  -----------------
         C            0.000000000000     0.000000000000    -0.177864000000    12.000000000000
         C            0.036678000000     1.219374000000     0.524165000000    12.000000000000
         C            0.031765000000     1.213120000000     1.915444000000    12.000000000000
         C            0.000000000000     0.000000000000     2.610107000000    12.000000000000
         C           -0.031765000000    -1.213120000000     1.915444000000    12.000000000000
         C           -0.036678000000    -1.219375000000     0.524165000000    12.000000000000
         C            0.000000000000     0.000000000000    -1.644734000000    12.000000000000
         H            0.018170000000     2.164705000000    -0.010854000000     1.007825032070
         H            0.042402000000     2.152895000000     2.457886000000     1.007825032070
         H            0.000000000000     0.000000000000     3.695756000000     1.007825032070
         H           -0.042402000000    -2.152895000000     2.457886000000     1.007825032070
         H           -0.018170000000    -2.164705000000    -0.010853000000     1.007825032070
         N           -0.712590000000    -0.905950000000    -2.308461000000    14.003074004780
         N            0.712590000000     0.905950000000    -2.308460000000    14.003074004780
         H            0.673432000000     1.006470000000    -3.315997000000     1.007825032070
         H            1.377190000000     1.485970000000    -1.813316000000     1.007825032070
         H           -0.712057000000    -0.905272000000    -3.320035000000     1.007825032070
         H           -1.216706000000    -1.654670000000    -1.847970000000     1.007825032070

  Nuclear repulsion =  416.916589211120936

  ==> Basis Set <==

  Basis Set: 6-31G*
    Blend: 6-31G*
    Number of shells: 72
    Number of basis function: 153
    Number of Cartesian functions: 153
    Spherical Harmonics?: false
    Max angular momentum: 2

  ==> DFJKGrad: Density-Fitted SCF Gradients <==

    Gradient:                    1
    J tasked:                  Yes
    K tasked:                  Yes
    wK tasked:                  No
    OpenMP threads:              4
    Integrals threads:           4
    Memory (MB):              2002
    Schwarz Cutoff:          0E+00
    Fitting Condition:       1E-12

   => Auxiliary Basis Set <=

  Basis Set: (6-31G* AUX)
    Blend: CC-PVDZ-JKFIT
    Number of shells: 297
    Number of basis function: 954
    Number of Cartesian functions: 954
    Spherical Harmonics?: false
    Max angular momentum: 3

  ==> DFT Potential <==

   => Composite Functional: B3LYP-D3ZERO <= 

    B3LYP-d3zero Hyb-GGA Exchange-Correlation Functional

    P. J. Stephens, F. J. Devlin, C. F. Chabalowski, and M. J. Frisch, J. Phys. Chem. 98, 11623 (1994)

    Deriv               =              1
    GGA                 =           TRUE
    Meta                =          FALSE

    Exchange Hybrid     =           TRUE
    MP2 Hybrid          =          FALSE

   => Exchange Functionals <=

    0.0800   Slater exchange
    0.7200         Becke 88

   => Exact (HF) Exchange <=

    0.2000               HF 

   => Correlation Functionals <=

    0.1900   Vosko, Wilk & Nusair (VWN5_RPA)
    0.8100   Lee, Yang & Parr

   => Molecular Quadrature <=

    Radial Scheme       =       TREUTLER
    Pruning Scheme      =           FLAT
    Nuclear Scheme      =       TREUTLER

    BS radius alpha     =              1
    Pruning alpha       =              1
    Radial Points       =             75
    Spherical Points    =            302
    Total Points        =         396914
    Total Blocks        =           2992
    Max Points          =            256
    Max Functions       =            149


  -Total Gradient:
     Atom            X                  Y                   Z
    ------   -----------------  -----------------  -----------------
       1       -0.002299386636     0.001381331169    -0.001041833519
       2       -0.000213852857     0.000311638227     0.000677756763
       3        0.000245183889     0.000426663687    -0.000367723568
       4       -0.000056308205    -0.000322708833     0.000060779894
       5        0.000049843192     0.000358419568     0.000226707162
       6       -0.000045369041    -0.001216621435    -0.000313729913
       7        0.000622597334     0.004509471026    -0.004553578361
       8       -0.000082335953     0.000026957536    -0.000022528565
       9        0.000023672225    -0.000009466264     0.000021517091
      10       -0.000013938042     0.000031026746     0.000020518482
      11        0.000029061586    -0.000006201646    -0.000028275110
      12       -0.000239935010     0.000473621900    -0.000510072198
      13       -0.003513240138    -0.002797936710     0.005632785383
      14        0.002509020922    -0.001488169672     0.000415865849
      15       -0.000732534266     0.000095582839     0.000100096075
      16        0.001306502312    -0.000905823935    -0.000243269567
      17        0.000367789868     0.004863291055     0.001923001264
      18        0.002041985984    -0.005731572368    -0.002013359332


*** tstop() called on arancio.prib.upf.edu at Sat Sep 29 20:25:16 2018
Module time:
	user time   =      25.64 seconds =       0.43 minutes
	system time =       0.30 seconds =       0.00 minutes
	total time  =          8 seconds =       0.13 minutes
Total time:
	user time   =     127.83 seconds =       2.13 minutes
	system time =       1.33 seconds =       0.02 minutes
	total time  =         37 seconds =       0.62 minutes

			-----------------------------------------
			 OPTKING 2.0: for geometry optimizations 
			  - R.A. King,  Bethel University        
			-----------------------------------------
	At level 1: Red. Int., RFO, no backsteps, dynamic trust

	Internal coordinates to be generated automatically.
	Detected frag 1 with atoms:  1 2 3 4 5 6 7 8 9 10 11 12 13 14 15 16 17 18
	---Fragment 1 Bond Connectivity---
	 1 : 2 6 7
	 2 : 1 3 8
	 3 : 2 4 9
	 4 : 3 5 10
	 5 : 4 6 11
	 6 : 1 5 12
	 7 : 1 13 14
	 8 : 2
	 9 : 3
	 10 : 4
	 11 : 5
	 12 : 6
	 13 : 7 17 18
	 14 : 7 15 16
	 15 : 14
	 16 : 14
	 17 : 13
	 18 : 13

	Assuming in current code that numbering for constraints corresponds to unified fragment.
	Frozen dihedral atom list: 
	     1     7    13    17
	---Fragment 1 Geometry and Gradient---
	 C           0.0000000000        0.0000000000       -0.3361142489
	 C           0.0693113751        2.3042829136        0.9905282984
	 C           0.0600271506        2.2924645663        3.6196645829
	 C           0.0000000000        0.0000000000        4.9323874075
	 C          -0.0600271506       -2.2924645663        3.6196645829
	 C          -0.0693113751       -2.3042848033        0.9905282984
	 C           0.0000000000        0.0000000000       -3.1080968214
	 H           0.0343363238        4.0906996085       -0.0205110874
	 H           0.0801281675        4.0683819429        4.6447314059
	 H           0.0000000000        0.0000000000        6.9839666940
	 H          -0.0801281675       -4.0683819429        4.6447314059
	 H          -0.0343363238       -4.0906996085       -0.0205091977
	 N          -1.3465999450       -1.7119973901       -4.3623590784
	 N           1.3465999450        1.7119973901       -4.3623571887
	 H           1.2726020491        1.9019526610       -6.2663261875
	 H           2.6025119329        2.8080763417       -3.4266706324
	 H          -1.3455927210       -1.7107161558       -6.2739569016
	 H          -2.2992411242       -3.1268731403       -3.4921572018
	            -0.0022993866        0.0013813312       -0.0010418335
	            -0.0002138529        0.0003116382        0.0006777568
	             0.0002451839        0.0004266637       -0.0003677236
	            -0.0000563082       -0.0003227088        0.0000607799
	             0.0000498432        0.0003584196        0.0002267072
	            -0.0000453690       -0.0012166214       -0.0003137299
	             0.0006225973        0.0045094710       -0.0045535784
	            -0.0000823360        0.0000269575       -0.0000225286
	             0.0000236722       -0.0000094663        0.0000215171
	            -0.0000139380        0.0000310267        0.0000205185
	             0.0000290616       -0.0000062016       -0.0000282751
	            -0.0002399350        0.0004736219       -0.0005100722
	            -0.0035132401       -0.0027979367        0.0056327854
	             0.0025090209       -0.0014881697        0.0004158658
	            -0.0007325343        0.0000955828        0.0001000961
	             0.0013065023       -0.0009058239       -0.0002432696
	             0.0003677899        0.0048632911        0.0019230013
	             0.0020419860       -0.0057315724       -0.0020133593

	Previous optimization step data not found.  Starting new optimization.

	---Fragment 1 Intrafragment Coordinates---
	 - Coordinate -           - BOHR/RAD -       - ANG/DEG -
	 R(1,2)           =         2.659794	       1.407502
	 R(1,6)           =         2.659796	       1.407503
	 R(1,7)           =         2.771983	       1.466870
	 R(2,3)           =         2.629179	       1.391302
	 R(2,8)           =         2.052976	       1.086388
	 R(3,4)           =         2.642393	       1.398294
	 R(3,9)           =         2.050622	       1.085142
	 R(4,5)           =         2.642393	       1.398294
	 R(4,10)          =         2.051579	       1.085649
	 R(5,6)           =         2.629179	       1.391302
	 R(5,11)          =         2.050622	       1.085142
	 R(6,12)          =         2.052973	       1.086386
	 R(7,13)          =         2.513452	       1.330061
	 R(7,14)          =         2.513451	       1.330061
	 R(13,17)         =         1.911599	       1.011574
	 R(13,18)         =         1.914850	       1.013295
	 R(14,15)         =         1.914852	       1.013296
	 R(14,16)         =         1.911600	       1.011575
	 B(1,2,3)         =         2.088380	     119.655376
	 B(1,2,8)         =         2.103396	     120.515689
	 B(1,6,5)         =         2.088379	     119.655315
	 B(1,6,12)        =         2.103396	     120.515729
	 B(1,7,13)        =         2.093264	     119.935172
	 B(1,7,14)        =         2.093263	     119.935135
	 B(2,1,6)         =         2.097220	     120.161857
	 B(2,1,7)         =         2.092983	     119.919082
	 B(2,3,4)         =         2.095279	     120.050636
	 B(2,3,9)         =         2.089719	     119.732108
	 B(3,2,8)         =         2.090149	     119.756722
	 B(3,4,5)         =         2.101793	     120.423859
	 B(3,4,10)        =         2.090696	     119.788070
	 B(4,3,9)         =         2.098135	     120.214297
	 B(4,5,6)         =         2.095280	     120.050677
	 B(4,5,11)        =         2.098135	     120.214297
	 B(5,4,10)        =         2.090696	     119.788070
	 B(5,6,12)        =         2.090149	     119.756743
	 B(6,1,7)         =         2.092982	     119.919061
	 B(6,5,11)        =         2.089719	     119.732067
	 B(7,13,17)       =         2.092411	     119.886324
	 B(7,13,18)       =         2.144860	     122.891405
	 B(7,14,15)       =         2.144860	     122.891405
	 B(7,14,16)       =         2.092412	     119.886393
	 B(13,7,14)       =         2.096659	     120.129694
	 B(15,14,16)      =         2.043399	     117.078146
	 B(17,13,18)      =         2.043400	     117.078212
	 D(1,2,3,4)       =         0.007799	       0.446825
	 D(1,2,3,9)       =        -3.122896	    -178.928735
	 D(1,6,5,4)       =         0.007799	       0.446822
	 D(1,6,5,11)      =        -3.122896	    -178.928737
	*D(1,7,13,17)     =         3.141593	     180.000000
	 D(1,7,13,18)     =        -0.078417	      -4.492959
	 D(1,7,14,15)     =        -3.032165	    -173.730230
	 D(1,7,14,16)     =         0.187844	      10.762681
	 D(2,1,6,5)       =        -0.003906	      -0.223802
	 D(2,1,6,12)      =        -3.091437	    -177.126283
	 D(2,1,7,13)      =        -2.505167	    -143.535494
	 D(2,1,7,14)      =         0.636426	      36.464506
	 D(2,3,4,5)       =        -0.003942	      -0.225875
	 D(2,3,4,10)      =         3.137650	     179.774125
	 D(3,2,1,6)       =        -0.003906	      -0.223806
	 D(3,2,1,7)       =         3.137687	     179.776196
	 D(3,4,5,6)       =        -0.003942	      -0.225874
	 D(3,4,5,11)      =         3.126699	     179.146646
	 D(4,3,2,8)       =         3.095744	     177.373058
	 D(4,5,6,12)      =         3.095744	     177.373055
	 D(5,4,3,9)       =         3.126699	     179.146646
	 D(5,6,1,7)       =         3.137687	     179.776197
	 D(6,1,2,8)       =        -3.091437	    -177.126287
	 D(6,1,7,13)      =         0.636426	      36.464508
	 D(6,1,7,14)      =        -2.505167	    -143.535492
	 D(6,5,4,10)      =         3.137650	     179.774126
	 D(7,1,2,8)       =         0.050156	       2.873714
	 D(7,1,6,12)      =         0.050156	       2.873716
	 D(8,2,3,9)       =        -0.034950	      -2.002503
	 D(9,3,4,10)      =        -0.014894	      -0.853354
	 D(10,4,5,11)     =        -0.014894	      -0.853354
	 D(11,5,6,12)     =        -0.034950	      -2.002504
	 D(13,7,14,15)    =         0.109428	       6.269770
	 D(13,7,14,16)    =        -2.953748	    -169.237319
	 D(14,7,13,17)    =        -0.000000	      -0.000000
	 D(14,7,13,18)    =         3.063176	     175.507041

	Current energy   :      -381.4687464159

	Generating empirical Hessian (Schlegel '84) for each fragment.
	Taking RFO optimization step.
	Going to follow RFO solution 1.
	Using RFO vector 1.
	Norm of target step-size    0.30436
	Projected energy change by RFO approximation:        -0.0029332686

	Back-transformation to cartesian coordinates...
	Could not converge backtransformation.
	Using first guess instead.

	Back-transformation to cartesian coordinates to adjust frozen coordinates...
	Successfully converged to displaced geometry.

	--- Internal Coordinate Step in ANG or DEG, aJ/ANG or AJ/DEG ---
	 ---------------------------------------------------------------------------
	   Coordinate                Previous        Force       Change         New 
	   ----------                --------       ------       ------       ------
	    1 R(1,2)          =      1.407502    -0.003847    -0.000426     1.407076
	    2 R(1,6)          =      1.407503     0.000676     0.000153     1.407656
	    3 R(1,7)          =      1.466870     0.010443     0.001888     1.468758
	    4 R(2,3)          =      1.391302     0.002273     0.000493     1.391794
	    5 R(2,8)          =      1.086388    -0.000292    -0.000020     1.086368
	    6 R(3,4)          =      1.398294    -0.003395    -0.000421     1.397873
	    7 R(3,9)          =      1.085142    -0.000026     0.000146     1.085288
	    8 R(4,5)          =      1.398294    -0.001070     0.000055     1.398349
	    9 R(4,10)         =      1.085649    -0.000176     0.000087     1.085736
	   10 R(5,6)          =      1.391302    -0.001782    -0.000102     1.391200
	   11 R(5,11)         =      1.085142     0.000071     0.000048     1.085190
	   12 R(6,12)         =      1.086386     0.001363     0.000501     1.086888
	   13 R(7,13)         =      1.330061    -0.002642     0.000406     1.330468
	   14 R(7,14)         =      1.330061     0.000417     0.000483     1.330544
	   15 R(13,17)        =      1.011574     0.015821     0.002930     1.014504
	   16 R(13,18)        =      1.013295    -0.018984     0.009895     1.023190
	   17 R(14,15)        =      1.013296     0.000517     0.000138     1.013433
	   18 R(14,16)        =      1.011575    -0.001818     0.001004     1.012579
	   19 B(1,2,3)        =    119.655376     0.000011     0.039752   119.695128
	   20 B(1,2,8)        =    120.515689    -0.000005    -0.021147   120.494542
	   21 B(1,6,5)        =    119.655315     0.000026     0.078403   119.733718
	   22 B(1,6,12)       =    120.515729     0.000039     0.196576   120.712306
	   23 B(1,7,13)       =    119.935172     0.000141     0.390703   120.325875
	   24 B(1,7,14)       =    119.935135    -0.000089    -0.290064   119.645071
	   25 B(2,1,6)        =    120.161857    -0.000031    -0.095803   120.066054
	   26 B(2,1,7)        =    119.919082    -0.000083    -0.243939   119.675143
	   27 B(2,3,4)        =    120.050636     0.000009     0.025737   120.076373
	   28 B(2,3,9)        =    119.732108    -0.000006    -0.016809   119.715298
	   29 B(3,2,8)        =    119.756722    -0.000006    -0.030195   119.726527
	   30 B(3,4,5)        =    120.423859    -0.000012    -0.042163   120.381697
	   31 B(3,4,10)       =    119.788070     0.000008     0.026831   119.814901
	   32 B(4,3,9)        =    120.214297    -0.000003    -0.008064   120.206232
	   33 B(4,5,6)        =    120.050677    -0.000004    -0.008362   120.042316
	   34 B(4,5,11)       =    120.214297    -0.000000    -0.003533   120.210763
	   35 B(5,4,10)       =    119.788070     0.000003     0.015307   119.803377
	   36 B(5,6,12)       =    119.756743    -0.000066    -0.280493   119.476250
	   37 B(6,1,7)        =    119.919061     0.000114     0.339731   120.258792
	   38 B(6,5,11)       =    119.732067     0.000004     0.011963   119.744030
	   39 B(7,13,17)      =    119.886324     0.000547     2.636119   122.522443
	   40 B(7,13,18)      =    122.891405    -0.000487    -2.231295   120.660110
	   41 B(7,14,15)      =    122.891405     0.000046     0.251085   123.142490
	   42 B(7,14,16)      =    119.886393    -0.000029    -0.064985   119.821407
	   43 B(13,7,14)      =    120.129694    -0.000053    -0.233093   119.896601
	   44 B(15,14,16)     =    117.078146    -0.000013    -0.086287   116.991859
	   45 B(17,13,18)     =    117.078212    -0.000043    -0.336861   116.741351
	   46 D(1,2,3,4)      =      0.446825     0.000002     0.296815     0.743639
	   47 D(1,2,3,9)      =   -178.928735     0.000001     0.198007  -178.730729
	   48 D(1,6,5,4)      =      0.446822    -0.000000    -0.048385     0.398437
	   49 D(1,6,5,11)     =   -178.928737    -0.000000    -0.055590  -178.984327
	   50 *D(1,7,13,17)   =    180.000000     0.000000     0.000000   180.000000
	   51 D(1,7,13,18)    =     -4.492959     0.000060     7.770070     3.277111
	   52 D(1,7,14,15)    =   -173.730230     0.000004     0.868387  -172.861843
	   53 D(1,7,14,16)    =     10.762681    -0.000010    -1.130778     9.631903
	   54 D(2,1,6,5)      =     -0.223802     0.000002     0.300077     0.076275
	   55 D(2,1,6,12)     =   -177.126283     0.000003     0.425132  -176.701151
	   56 D(2,1,7,13)     =   -143.535494     0.000015     2.829965  -140.705529
	   57 D(2,1,7,14)     =     36.464506    -0.000010    -1.357654    35.106852
	   58 D(2,3,4,5)      =     -0.225875    -0.000000    -0.045830    -0.271705
	   59 D(2,3,4,10)     =    179.774125    -0.000001    -0.103600   179.670524
	   60 D(3,2,1,6)      =     -0.223806    -0.000003    -0.424212    -0.648018
	   61 D(3,2,1,7)      =    179.776196    -0.000003    -0.460905   179.315290
	   62 D(3,4,5,6)      =     -0.225874    -0.000000    -0.079162    -0.305036
	   63 D(3,4,5,11)     =    179.146646    -0.000000    -0.071825   179.074821
	   64 D(4,3,2,8)      =    177.373058     0.000000     0.058846   177.431904
	   65 D(4,5,6,12)     =    177.373055    -0.000001    -0.157108   177.215947
	   66 D(5,4,3,9)      =    179.146646     0.000000     0.053414   179.200060
	   67 D(5,6,1,7)      =    179.776197     0.000002     0.336987   180.113184
	   68 D(6,1,2,8)      =   -177.126287    -0.000001    -0.184121  -177.310408
	   69 D(6,1,7,13)     =     36.464508     0.000015     2.793199    39.257707
	   70 D(6,1,7,14)     =   -143.535492    -0.000010    -1.394419  -144.929912
	   71 D(6,5,4,10)     =    179.774126    -0.000000    -0.021398   179.752727
	   72 D(7,1,2,8)      =      2.873714    -0.000001    -0.220814     2.652900
	   73 D(7,1,6,12)     =      2.873716     0.000003     0.462041     3.335757
	   74 D(8,2,3,9)      =     -2.002503    -0.000000    -0.039962    -2.042465
	   75 D(9,3,4,10)     =     -0.853354     0.000000    -0.004357    -0.857710
	   76 D(10,4,5,11)    =     -0.853354    -0.000000    -0.014062    -0.867415
	   77 D(11,5,6,12)    =     -2.002504    -0.000001    -0.164313    -2.166817
	   78 D(13,7,14,15)   =      6.269770    -0.000021    -3.301044     2.968727
	   79 D(13,7,14,16)   =   -169.237319    -0.000036    -5.300208  -174.537527
	   80 D(14,7,13,17)   =      0.000000     0.000026     4.198716     4.198716
	   81 D(14,7,13,18)   =    175.507041     0.000085    11.968237   187.475278
	 ---------------------------------------------------------------------------
	Successfully symmetrized geometry.

  ==> Convergence Check <==

  Measures of convergence in internal coordinates in au.
  Criteria marked as inactive (o), active & met (*), and active & unmet ( ).
  --------------------------------------------------------------------------------------------- ~
   Step     Total Energy     Delta E     MAX Force     RMS Force      MAX Disp      RMS Disp    ~
  --------------------------------------------------------------------------------------------- ~
    Convergence Criteria    1.00e-06 *    3.00e-04 *             o    1.20e-03 *             o  ~
  --------------------------------------------------------------------------------------------- ~
      1    -381.46874642   -3.81e+02      7.19e-03      1.41e-03 o    2.09e-01      3.34e-02 o  ~
  ---------------------------------------------------------------------------------------------

	Writing optimization data to binary file.
	Structure for next step:
	Cartesian Geometry (in Angstrom)
	    C     0.0247134507  -0.0213595223  -0.1797504087
	    C     0.0450782598   1.2028545660   0.5136097462
	    C     0.0204353072   1.2075808788   1.9051779085
	    C    -0.0086428684   0.0004197891   2.6094264930
	    C    -0.0189237655  -1.2182710097   1.9238129461
	    C    -0.0066065070  -1.2349630356   0.5327676823
	    C     0.0354881638  -0.0254727137  -1.6484626624
	    H     0.0253470842   2.1439677602  -0.0287107910
	    H     0.0152574035   2.1519640976   2.4399331002
	    H    -0.0223825049   0.0089788253   3.6950418822
	    H    -0.0263679511  -2.1539570833   2.4734260307
	    H     0.0312151944  -2.1869301721   0.0096494885
	    N    -0.7052257301  -0.9007783249  -2.3232425604
	    N     0.7249068503   0.9046464050  -2.3041513526
	    H     0.6858340749   1.0167000231  -3.3106128380
	    H     1.3523735706   1.5170060077  -1.7975777729
	    H    -0.7230290700  -0.9331956360  -3.3370725829
	    H    -1.3276119627  -1.5466938553  -1.8309553088
			--------------------------
			 OPTKING Finished Execution 
			--------------------------

    Structure for next step:
    Molecular point group: c1
    Full point group: C1

    Geometry (in Angstrom), charge = 1, multiplicity = 1:

    C            0.024713450674    -0.021359522252    -0.179750408651
    C            0.045078259832     1.202854566029     0.513609746167
    C            0.020435307206     1.207580878808     1.905177908502
    C           -0.008642868364     0.000419789097     2.609426493043
    C           -0.018923765454    -1.218271009686     1.923812946062
    C           -0.006606507025    -1.234963035573     0.532767682321
    C            0.035488163765    -0.025472713695    -1.648462662381
    H            0.025347084227     2.143967760169    -0.028710790982
    H            0.015257403514     2.151964097591     2.439933100208
    H           -0.022382504869     0.008978825337     3.695041882179
    H           -0.026367951070    -2.153957083279     2.473426030655
    H            0.031215194435    -2.186930172098     0.009649488510
    N           -0.705225730074    -0.900778324886    -2.323242560438
    N            0.724906850321     0.904646404975    -2.304151352551
    H            0.685834074910     1.016700023067    -3.310612837962
    H            1.352373570600     1.517006007725    -1.797577772942
    H           -0.723029069958    -0.933195636031    -3.337072582898
    H           -1.327611962671    -1.546693855298    -1.830955308842

gradient() will perform analytic gradient computation.

*** tstart() called on arancio.prib.upf.edu
*** at Sat Sep 29 20:25:16 2018

   => Loading Basis Set <=

    Name: 6-31G*
    Role: ORBITAL
    Keyword: BASIS
    atoms 1-7         entry C          line   111 file /shared/joao/test_parameterize/miniconda3/share/psi4/basis/6-31gs.gbs 
    atoms 8-12, 15-18 entry H          line    44 file /shared/joao/test_parameterize/miniconda3/share/psi4/basis/6-31gs.gbs 
    atoms 13-14       entry N          line   128 file /shared/joao/test_parameterize/miniconda3/share/psi4/basis/6-31gs.gbs 


         ---------------------------------------------------------
                                   SCF
            by Justin Turney, Rob Parrish, Andy Simmonett
                             and Daniel Smith
                              RKS Reference
                        4 Threads,   2861 MiB Core
         ---------------------------------------------------------

  ==> Geometry <==

    Molecular point group: c1
    Full point group: C1

    Geometry (in Angstrom), charge = 1, multiplicity = 1:

       Center              X                  Y                   Z               Mass       
    ------------   -----------------  -----------------  -----------------  -----------------
         C            0.024713450674    -0.021359522252    -0.179750408651    12.000000000000
         C            0.045078259832     1.202854566029     0.513609746167    12.000000000000
         C            0.020435307206     1.207580878808     1.905177908502    12.000000000000
         C           -0.008642868364     0.000419789097     2.609426493043    12.000000000000
         C           -0.018923765454    -1.218271009686     1.923812946062    12.000000000000
         C           -0.006606507025    -1.234963035573     0.532767682321    12.000000000000
         C            0.035488163765    -0.025472713695    -1.648462662381    12.000000000000
         H            0.025347084227     2.143967760169    -0.028710790982     1.007825032070
         H            0.015257403514     2.151964097591     2.439933100208     1.007825032070
         H           -0.022382504869     0.008978825337     3.695041882179     1.007825032070
         H           -0.026367951070    -2.153957083279     2.473426030655     1.007825032070
         H            0.031215194435    -2.186930172098     0.009649488510     1.007825032070
         N           -0.705225730074    -0.900778324886    -2.323242560438    14.003074004780
         N            0.724906850321     0.904646404975    -2.304151352551    14.003074004780
         H            0.685834074910     1.016700023067    -3.310612837962     1.007825032070
         H            1.352373570600     1.517006007725    -1.797577772942     1.007825032070
         H           -0.723029069958    -0.933195636031    -3.337072582898     1.007825032070
         H           -1.327611962671    -1.546693855298    -1.830955308842     1.007825032070

  Running in c1 symmetry.

  Rotational constants: A =      0.12193  B =      0.03947  C =      0.03127 [cm^-1]
  Rotational constants: A =   3655.46995  B =   1183.19658  C =    937.38309 [MHz]
  Nuclear repulsion =  416.695022927371554

  Charge       = 1
  Multiplicity = 1
  Electrons    = 64
  Nalpha       = 32
  Nbeta        = 32

  ==> Algorithm <==

  SCF Algorithm Type is DF.
  DIIS enabled.
  MOM disabled.
  Fractional occupation disabled.
  Guess Type is READ.
  Energy threshold   = 1.00e-08
  Density threshold  = 1.00e-08
  Integral threshold = 0.00e+00

  ==> Primary Basis <==

  Basis Set: 6-31G*
    Blend: 6-31G*
    Number of shells: 72
    Number of basis function: 153
    Number of Cartesian functions: 153
    Spherical Harmonics?: false
    Max angular momentum: 2

  ==> DFT Potential <==

   => Composite Functional: B3LYP-D3ZERO <= 

    B3LYP-d3zero Hyb-GGA Exchange-Correlation Functional

    P. J. Stephens, F. J. Devlin, C. F. Chabalowski, and M. J. Frisch, J. Phys. Chem. 98, 11623 (1994)

    Deriv               =              1
    GGA                 =           TRUE
    Meta                =          FALSE

    Exchange Hybrid     =           TRUE
    MP2 Hybrid          =          FALSE

   => Exchange Functionals <=

    0.0800   Slater exchange
    0.7200         Becke 88

   => Exact (HF) Exchange <=

    0.2000               HF 

   => Correlation Functionals <=

    0.1900   Vosko, Wilk & Nusair (VWN5_RPA)
    0.8100   Lee, Yang & Parr

   => Molecular Quadrature <=

    Radial Scheme       =       TREUTLER
    Pruning Scheme      =           FLAT
    Nuclear Scheme      =       TREUTLER

    BS radius alpha     =              1
    Pruning alpha       =              1
    Radial Points       =             75
    Spherical Points    =            302
    Total Points        =         396926
    Total Blocks        =           2981
    Max Points          =            256
    Max Functions       =            149

   => -D3ZERO: Empirical Dispersion <=

    Grimme's -D3 (zero-damping) Dispersion Correction
    Grimme S.; Antony J.; Ehrlich S.; Krieg H. (2010), J. Chem. Phys., 132: 154104

        S6 =   1.000000E+00
        S8 =   1.703000E+00
       SR6 =   1.261000E+00
       SR8 =   1.000000E+00
    ALPHA6 =   1.400000E+01

   => Loading Basis Set <=

    Name: (6-31G* AUX)
    Role: JKFIT
    Keyword: DF_BASIS_SCF
    atoms 1-7         entry C          line   121 file /shared/joao/test_parameterize/miniconda3/share/psi4/basis/cc-pvdz-jkfit.gbs 
    atoms 8-12, 15-18 entry H          line    51 file /shared/joao/test_parameterize/miniconda3/share/psi4/basis/cc-pvdz-jkfit.gbs 
    atoms 13-14       entry N          line   171 file /shared/joao/test_parameterize/miniconda3/share/psi4/basis/cc-pvdz-jkfit.gbs 

  Reading orbitals from file 180, no projection.

  ==> Pre-Iterations <==

   -------------------------------------------------------
    Irrep   Nso     Nmo     Nalpha   Nbeta   Ndocc  Nsocc
   -------------------------------------------------------
     A        153     153       0       0       0       0
   -------------------------------------------------------
    Total     153     153      32      32      32       0
   -------------------------------------------------------

  ==> Integral Setup <==

  ==> DiskDFJK: Density-Fitted J/K Matrices <==

    J tasked:                  Yes
    K tasked:                  Yes
    wK tasked:                  No
    OpenMP threads:              4
    Integrals threads:           4
    Memory (MB):              2002
    Algorithm:                Core
    Integral Cache:           NONE
    Schwarz Cutoff:          1E-12
    Fitting Condition:       1E-12

   => Auxiliary Basis Set <=

  Basis Set: (6-31G* AUX)
    Blend: CC-PVDZ-JKFIT
    Number of shells: 297
    Number of basis function: 954
    Number of Cartesian functions: 954
    Spherical Harmonics?: false
    Max angular momentum: 3

  Minimum eigenvalue in the overlap matrix is 4.8708753029E-04.
  Using Symmetric Orthogonalization.

  SCF Guess: Orbitals guess was supplied from a previous computation.

  ==> Iterations <==

                           Total Energy        Delta E     RMS |[F,P]|

   @DF-RKS iter   0:  -381.45532043896998   -3.81455e+02   1.14168e-03 
   @DF-RKS iter   1:  -381.46973736509165   -1.44169e-02   1.61962e-04 
   @DF-RKS iter   2:  -381.46974112544359   -3.76035e-06   1.80378e-04 DIIS
   @DF-RKS iter   3:  -381.46982940053607   -8.82751e-05   6.87017e-05 DIIS
   @DF-RKS iter   4:  -381.46984346177618   -1.40612e-05   1.49445e-05 DIIS
   @DF-RKS iter   5:  -381.46984396563892   -5.03863e-07   7.10402e-06 DIIS
   @DF-RKS iter   6:  -381.46984409841906   -1.32780e-07   1.91686e-06 DIIS
   @DF-RKS iter   7:  -381.46984410799496   -9.57590e-09   6.00365e-07 DIIS
   @DF-RKS iter   8:  -381.46984410899449   -9.99535e-10   1.52116e-07 DIIS
   @DF-RKS iter   9:  -381.46984410905759   -6.30962e-11   4.62648e-08 DIIS
   @DF-RKS iter  10:  -381.46984410906231   -4.71800e-12   2.39688e-08 DIIS
   @DF-RKS iter  11:  -381.46984410906435   -2.04636e-12   5.23747e-09 DIIS

  ==> Post-Iterations <==

    Orbital Energies [Eh]
    ---------------------

    Doubly Occupied:                                                      

       1A    -14.569525     2A    -14.568074     3A    -10.497991  
       4A    -10.373738     5A    -10.356258     6A    -10.355990  
       7A    -10.342451     8A    -10.340330     9A    -10.340181  
      10A     -1.183518    11A     -1.090893    12A     -1.014133  
      13A     -0.926424    14A     -0.902037    15A     -0.845286  
      16A     -0.785224    17A     -0.773255    18A     -0.741425  
      19A     -0.732831    20A     -0.686002    21A     -0.668706  
      22A     -0.625547    23A     -0.618261    24A     -0.587933  
      25A     -0.578780    26A     -0.573293    27A     -0.517982  
      28A     -0.505503    29A     -0.497992    30A     -0.472176  
      31A     -0.411101    32A     -0.405497  

    Virtual:                                                              

      33A     -0.215567    34A     -0.157590    35A     -0.130173  
      36A     -0.109381    37A     -0.068628    38A     -0.063621  
      39A     -0.038887    40A     -0.035951    41A      0.006903  
      42A      0.020796    43A      0.021241    44A      0.057034  
      45A      0.062328    46A      0.082941    47A      0.125973  
      48A      0.149095    49A      0.157806    50A      0.158264  
      51A      0.201645    52A      0.242513    53A      0.298363  
      54A      0.348965    55A      0.354430    56A      0.380907  
      57A      0.387445    58A      0.397551    59A      0.421465  
      60A      0.422339    61A      0.442696    62A      0.448750  
      63A      0.453467    64A      0.471005    65A      0.471577  
      66A      0.475304    67A      0.485505    68A      0.508478  
      69A      0.526607    70A      0.533040    71A      0.539489  
      72A      0.589364    73A      0.605739    74A      0.654803  
      75A      0.657184    76A      0.680610    77A      0.687538  
      78A      0.704132    79A      0.713808    80A      0.718531  
      81A      0.742050    82A      0.774848    83A      0.776443  
      84A      0.800502    85A      0.811967    86A      0.833110  
      87A      0.849202    88A      0.941104    89A      0.962604  
      90A      0.997436    91A      0.999567    92A      1.028007  
      93A      1.058849    94A      1.073049    95A      1.143425  
      96A      1.174600    97A      1.225955    98A      1.269740  
      99A      1.281644   100A      1.308144   101A      1.321166  
     102A      1.343938   103A      1.363117   104A      1.370580  
     105A      1.437387   106A      1.454668   107A      1.475260  
     108A      1.600949   109A      1.619791   110A      1.655271  
     111A      1.669186   112A      1.736079   113A      1.753043  
     114A      1.794610   115A      1.825620   116A      1.853709  
     117A      1.904213   118A      1.907807   119A      1.958213  
     120A      1.975084   121A      1.997233   122A      2.018779  
     123A      2.039735   124A      2.072869   125A      2.116542  
     126A      2.130194   127A      2.151276   128A      2.212552  
     129A      2.221655   130A      2.258395   131A      2.344966  
     132A      2.366909   133A      2.442757   134A      2.453400  
     135A      2.489531   136A      2.518107   137A      2.549655  
     138A      2.588168   139A      2.606061   140A      2.629596  
     141A      2.737870   142A      2.885576   143A      2.982113  
     144A      3.258753   145A      3.634760   146A      3.656238  
     147A      3.912949   148A      3.948777   149A      3.963626  
     150A      4.055957   151A      4.174114   152A      4.257446  
     153A      4.545798  

    Final Occupation by Irrep:
              A 
    DOCC [    32 ]

  Energy converged.

  @DF-RKS Final Energy:  -381.46984410906435

   => Energetics <=

    Nuclear Repulsion Energy =            416.6950229273715536
    One-Electron Energy =               -1328.6094154605266340
    Two-Electron Energy =                 574.8563266285939335
    DFT Exchange-Correlation Energy =     -44.3998727745032085
    Empirical Dispersion Energy =          -0.0119054300000000
    VV10 Nonlocal Energy =                  0.0000000000000000
    Total Energy =                       -381.4698441090642973



Properties will be evaluated at   0.000000,   0.000000,   0.000000 [a0]

Properties computed using the SCF density matrix

  Nuclear Dipole Moment: [e a0]
     X:     1.3184      Y:    -0.9266      Z:    -0.2629

  Electronic Dipole Moment: [e a0]
     X:    -1.3279      Y:     0.9293      Z:    -2.0093

  Dipole Moment: [e a0]
     X:    -0.0095      Y:     0.0027      Z:    -2.2722     Total:     2.2722

  Dipole Moment: [D]
     X:    -0.0241      Y:     0.0068      Z:    -5.7754     Total:     5.7755


*** tstop() called on arancio.prib.upf.edu at Sat Sep 29 20:25:39 2018
Module time:
	user time   =      78.48 seconds =       1.31 minutes
	system time =       0.39 seconds =       0.01 minutes
	total time  =         23 seconds =       0.38 minutes
Total time:
	user time   =     207.39 seconds =       3.46 minutes
	system time =       1.80 seconds =       0.03 minutes
	total time  =         60 seconds =       1.00 minutes

*** tstart() called on arancio.prib.upf.edu
*** at Sat Sep 29 20:25:39 2018


         ------------------------------------------------------------
                                   SCF GRAD                          
                          Rob Parrish, Justin Turney,                
                       Andy Simmonett, and Alex Sokolov              
         ------------------------------------------------------------

  ==> Geometry <==

    Molecular point group: c1
    Full point group: C1

    Geometry (in Angstrom), charge = 1, multiplicity = 1:

       Center              X                  Y                   Z               Mass       
    ------------   -----------------  -----------------  -----------------  -----------------
         C            0.024713450674    -0.021359522252    -0.179750408651    12.000000000000
         C            0.045078259832     1.202854566029     0.513609746167    12.000000000000
         C            0.020435307206     1.207580878808     1.905177908502    12.000000000000
         C           -0.008642868364     0.000419789097     2.609426493043    12.000000000000
         C           -0.018923765454    -1.218271009686     1.923812946062    12.000000000000
         C           -0.006606507025    -1.234963035573     0.532767682321    12.000000000000
         C            0.035488163765    -0.025472713695    -1.648462662381    12.000000000000
         H            0.025347084227     2.143967760169    -0.028710790982     1.007825032070
         H            0.015257403514     2.151964097591     2.439933100208     1.007825032070
         H           -0.022382504869     0.008978825337     3.695041882179     1.007825032070
         H           -0.026367951070    -2.153957083279     2.473426030655     1.007825032070
         H            0.031215194435    -2.186930172098     0.009649488510     1.007825032070
         N           -0.705225730074    -0.900778324886    -2.323242560438    14.003074004780
         N            0.724906850321     0.904646404975    -2.304151352551    14.003074004780
         H            0.685834074910     1.016700023067    -3.310612837962     1.007825032070
         H            1.352373570600     1.517006007725    -1.797577772942     1.007825032070
         H           -0.723029069958    -0.933195636031    -3.337072582898     1.007825032070
         H           -1.327611962671    -1.546693855298    -1.830955308842     1.007825032070

  Nuclear repulsion =  416.695022927371554

  ==> Basis Set <==

  Basis Set: 6-31G*
    Blend: 6-31G*
    Number of shells: 72
    Number of basis function: 153
    Number of Cartesian functions: 153
    Spherical Harmonics?: false
    Max angular momentum: 2

  ==> DFJKGrad: Density-Fitted SCF Gradients <==

    Gradient:                    1
    J tasked:                  Yes
    K tasked:                  Yes
    wK tasked:                  No
    OpenMP threads:              4
    Integrals threads:           4
    Memory (MB):              2002
    Schwarz Cutoff:          0E+00
    Fitting Condition:       1E-12

   => Auxiliary Basis Set <=

  Basis Set: (6-31G* AUX)
    Blend: CC-PVDZ-JKFIT
    Number of shells: 297
    Number of basis function: 954
    Number of Cartesian functions: 954
    Spherical Harmonics?: false
    Max angular momentum: 3

  ==> DFT Potential <==

   => Composite Functional: B3LYP-D3ZERO <= 

    B3LYP-d3zero Hyb-GGA Exchange-Correlation Functional

    P. J. Stephens, F. J. Devlin, C. F. Chabalowski, and M. J. Frisch, J. Phys. Chem. 98, 11623 (1994)

    Deriv               =              1
    GGA                 =           TRUE
    Meta                =          FALSE

    Exchange Hybrid     =           TRUE
    MP2 Hybrid          =          FALSE

   => Exchange Functionals <=

    0.0800   Slater exchange
    0.7200         Becke 88

   => Exact (HF) Exchange <=

    0.2000               HF 

   => Correlation Functionals <=

    0.1900   Vosko, Wilk & Nusair (VWN5_RPA)
    0.8100   Lee, Yang & Parr

   => Molecular Quadrature <=

    Radial Scheme       =       TREUTLER
    Pruning Scheme      =           FLAT
    Nuclear Scheme      =       TREUTLER

    BS radius alpha     =              1
    Pruning alpha       =              1
    Radial Points       =             75
    Spherical Points    =            302
    Total Points        =         396926
    Total Blocks        =           2981
    Max Points          =            256
    Max Functions       =            149


  -Total Gradient:
     Atom            X                  Y                   Z
    ------   -----------------  -----------------  -----------------
       1       -0.002460030744     0.002756461814    -0.000318180636
       2        0.000343750293    -0.000096781013    -0.000133614200
       3       -0.000126854658    -0.000080861086     0.000147703326
       4        0.000001638445     0.000170673149    -0.000065239219
       5        0.000032098446    -0.000334285288    -0.000214437822
       6       -0.000066984620     0.000318396843     0.000705845755
       7        0.006983844921    -0.005307559623     0.000769845371
       8        0.000155548664    -0.000126597863    -0.000325880687
       9       -0.000016819148     0.000049031340     0.000103040303
      10        0.000034178482    -0.000018725440     0.000072916599
      11       -0.000017635472    -0.000015236037     0.000055186504
      12        0.000276910687    -0.000353429442     0.000445012042
      13        0.003073326944     0.007592278048    -0.003797209541
      14       -0.001353007677     0.000177867564    -0.000805373594
      15        0.000136493761     0.000139727538    -0.000163012925
      16       -0.000236935490     0.001338133738     0.000737931116
      17       -0.000961485342     0.001268975199    -0.001019826401
      18       -0.005796491858    -0.007478397112     0.003778476084


*** tstop() called on arancio.prib.upf.edu at Sat Sep 29 20:25:46 2018
Module time:
	user time   =      25.05 seconds =       0.42 minutes
	system time =       0.23 seconds =       0.00 minutes
	total time  =          7 seconds =       0.12 minutes
Total time:
	user time   =     232.49 seconds =       3.87 minutes
	system time =       2.04 seconds =       0.03 minutes
	total time  =         67 seconds =       1.12 minutes

			-----------------------------------------
			 OPTKING 2.0: for geometry optimizations 
			  - R.A. King,  Bethel University        
			-----------------------------------------
	At level 1: Red. Int., RFO, no backsteps, dynamic trust

	Previous internal coordinate definitions found.
	---Fragment 1 Geometry and Gradient---
	 C           0.0467016536       -0.0403636474       -0.3396790446
	 C           0.0851855656        2.2730657075        0.9705817594
	 C           0.0386171341        2.2819971443        3.6002644815
	 C          -0.0163326542        0.0007932864        4.9311014357
	 C          -0.0357607341       -2.3021985639        3.6354795990
	 C          -0.0124844890       -2.3337419215        1.0067850120
	 C           0.0670629105       -0.0481364527       -3.1151429722
	 H           0.0478990475        4.0515119045       -0.0542555320
	 H           0.0288323141        4.0666227922        4.6108053420
	 H          -0.0422968044        0.0169675209        6.9826172069
	 H          -0.0498282062       -4.0703889894        4.6740978079
	 H           0.0589881687       -4.1326990970        0.0182348906
	 N          -1.3326834917       -1.7022243405       -4.3902921795
	 N           1.3698754190        1.7095339525       -4.3542150250
	 H           1.2960385742        1.9212846029       -6.2561515958
	 H           2.5556156778        2.8667258965       -3.3969296934
	 H          -1.3663269283       -1.7634841805       -6.3061532672
	 H          -2.5088230202       -2.9228277979       -3.4600040953
	            -0.0024600307        0.0027564618       -0.0003181806
	             0.0003437503       -0.0000967810       -0.0001336142
	            -0.0001268547       -0.0000808611        0.0001477033
	             0.0000016384        0.0001706731       -0.0000652392
	             0.0000320984       -0.0003342853       -0.0002144378
	            -0.0000669846        0.0003183968        0.0007058458
	             0.0069838449       -0.0053075596        0.0007698454
	             0.0001555487       -0.0001265979       -0.0003258807
	            -0.0000168191        0.0000490313        0.0001030403
	             0.0000341785       -0.0000187254        0.0000729166
	            -0.0000176355       -0.0000152360        0.0000551865
	             0.0002769107       -0.0003534294        0.0004450120
	             0.0030733269        0.0075922780       -0.0037972095
	            -0.0013530077        0.0001778676       -0.0008053736
	             0.0001364938        0.0001397275       -0.0001630129
	            -0.0002369355        0.0013381337        0.0007379311
	            -0.0009614853        0.0012689752       -0.0010198264
	            -0.0057964919       -0.0074783971        0.0037784761

	---Fragment 1 Intrafragment Coordinates---
	 - Coordinate -           - BOHR/RAD -       - ANG/DEG -
	 R(1,2)           =         2.658988	       1.407076
	 R(1,6)           =         2.660085	       1.407656
	 R(1,7)           =         2.775549	       1.468758
	 R(2,3)           =         2.630110	       1.391794
	 R(2,8)           =         2.052938	       1.086368
	 R(3,4)           =         2.641598	       1.397873
	 R(3,9)           =         2.050897	       1.085288
	 R(4,5)           =         2.642496	       1.398349
	 R(4,10)          =         2.051744	       1.085736
	 R(5,6)           =         2.628987	       1.391200
	 R(5,11)          =         2.050713	       1.085190
	 R(6,12)          =         2.053920	       1.086888
	 R(7,13)          =         2.514220	       1.330468
	 R(7,14)          =         2.514364	       1.330544
	 R(13,17)         =         1.917135	       1.014504
	 R(13,18)         =         1.933549	       1.023190
	 R(14,15)         =         1.915112	       1.013433
	 R(14,16)         =         1.913496	       1.012579
	 B(1,2,3)         =         2.089074	     119.695128
	 B(1,2,8)         =         2.103026	     120.494542
	 B(1,6,5)         =         2.089748	     119.733718
	 B(1,6,12)        =         2.106827	     120.712306
	 B(1,7,13)        =         2.100083	     120.325875
	 B(1,7,14)        =         2.088200	     119.645071
	 B(2,1,6)         =         2.095548	     120.066054
	 B(2,1,7)         =         2.088725	     119.675143
	 B(2,3,4)         =         2.095728	     120.076373
	 B(2,3,9)         =         2.089426	     119.715298
	 B(3,2,8)         =         2.089622	     119.726527
	 B(3,4,5)         =         2.101057	     120.381697
	 B(3,4,10)        =         2.091165	     119.814901
	 B(4,3,9)         =         2.097995	     120.206232
	 B(4,5,6)         =         2.095134	     120.042316
	 B(4,5,11)        =         2.098074	     120.210763
	 B(5,4,10)        =         2.090963	     119.803377
	 B(5,6,12)        =         2.085254	     119.476250
	 B(6,1,7)         =         2.098912	     120.258792
	 B(6,5,11)        =         2.089928	     119.744030
	 B(7,13,17)       =         2.138420	     122.522443
	 B(7,13,18)       =         2.105916	     120.660110
	 B(7,14,15)       =         2.149242	     123.142490
	 B(7,14,16)       =         2.091278	     119.821407
	 B(13,7,14)       =         2.092590	     119.896601
	 B(15,14,16)      =         2.041893	     116.991859
	 B(17,13,18)      =         2.037521	     116.741351
	 D(1,2,3,4)       =         0.012979	       0.743639
	 D(1,2,3,9)       =        -3.119440	    -178.730729
	 D(1,6,5,4)       =         0.006954	       0.398437
	 D(1,6,5,11)      =        -3.123866	    -178.984327
	*D(1,7,13,17)     =         3.141593	     180.000000
	 D(1,7,13,18)     =         0.057196	       3.277111
	 D(1,7,14,15)     =        -3.017008	    -172.861843
	 D(1,7,14,16)     =         0.168108	       9.631903
	 D(2,1,6,5)       =         0.001331	       0.076275
	 D(2,1,6,12)      =        -3.084017	    -176.701151
	 D(2,1,7,13)      =        -2.455775	    -140.705529
	 D(2,1,7,14)      =         0.612730	      35.106852
	 D(2,3,4,5)       =        -0.004742	      -0.271705
	 D(2,3,4,10)      =         3.135842	     179.670524
	 D(3,2,1,6)       =        -0.011310	      -0.648018
	 D(3,2,1,7)       =         3.129642	     179.315290
	 D(3,4,5,6)       =        -0.005324	      -0.305036
	 D(3,4,5,11)      =         3.125445	     179.074821
	 D(4,3,2,8)       =         3.096771	     177.431904
	 D(4,5,6,12)      =         3.093002	     177.215947
	 D(5,4,3,9)       =         3.127631	     179.200060
	 D(5,6,1,7)       =        -3.139617	    -179.886816
	 D(6,1,2,8)       =        -3.094650	    -177.310408
	 D(6,1,7,13)      =         0.685176	      39.257707
	 D(6,1,7,14)      =        -2.529504	    -144.929912
	 D(6,5,4,10)      =         3.137277	     179.752727
	 D(7,1,2,8)       =         0.046302	       2.652900
	 D(7,1,6,12)      =         0.058220	       3.335757
	 D(8,2,3,9)       =        -0.035648	      -2.042465
	 D(9,3,4,10)      =        -0.014970	      -0.857710
	 D(10,4,5,11)     =        -0.015139	      -0.867415
	 D(11,5,6,12)     =        -0.037818	      -2.166817
	 D(13,7,14,15)    =         0.051814	       2.968727
	 D(13,7,14,16)    =        -3.046255	    -174.537527
	 D(14,7,13,17)    =         0.073281	       4.198716
	 D(14,7,13,18)    =        -3.011124	    -172.524722

	Current energy   :      -381.4698441091

	Energy change for the previous step:
		Projected    :        -0.0029332686
		Actual       :        -0.0010976932

	Performing BFGS update.
	Previous computed or guess Hessian on step 1.
	Steps to be used in Hessian update: 1
	Taking RFO optimization step.
	Going to follow RFO solution 1.
	Using RFO vector 1.
	Norm of target step-size    0.16887
	Projected energy change by RFO approximation:        -0.0006121920

	Back-transformation to cartesian coordinates...
	Could not converge backtransformation.
	Using first guess instead.

	Back-transformation to cartesian coordinates to adjust frozen coordinates...
	Successfully converged to displaced geometry.

	--- Internal Coordinate Step in ANG or DEG, aJ/ANG or AJ/DEG ---
	 ---------------------------------------------------------------------------
	   Coordinate                Previous        Force       Change         New 
	   ----------                --------       ------       ------       ------
	    1 R(1,2)          =      1.407076     0.002034     0.000199     1.407275
	    2 R(1,6)          =      1.407656    -0.006666    -0.000754     1.406903
	    3 R(1,7)          =      1.468758    -0.004190    -0.000177     1.468581
	    4 R(2,3)          =      1.391794    -0.001820    -0.000067     1.391727
	    5 R(2,8)          =      1.086368    -0.000408     0.000041     1.086408
	    6 R(3,4)          =      1.397873     0.000859     0.000092     1.397965
	    7 R(3,9)          =      1.085288    -0.000777    -0.000064     1.085224
	    8 R(4,5)          =      1.398349    -0.000561    -0.000039     1.398310
	    9 R(4,10)         =      1.085736    -0.000608    -0.000064     1.085672
	   10 R(5,6)          =      1.391200     0.000942     0.000094     1.391294
	   11 R(5,11)         =      1.085190    -0.000345    -0.000003     1.085188
	   12 R(6,12)         =      1.086888    -0.000859    -0.000007     1.086881
	   13 R(7,13)         =      1.330468    -0.013731    -0.000703     1.329765
	   14 R(7,14)         =      1.330544    -0.004244     0.000047     1.330591
	   15 R(13,17)        =      1.014504    -0.008188    -0.000098     1.014406
	   16 R(13,18)        =      1.023190    -0.082929    -0.007505     1.015685
	   17 R(14,15)        =      1.013433    -0.001407     0.000229     1.013662
	   18 R(14,16)        =      1.012579    -0.008502    -0.000712     1.011867
	   19 B(1,2,3)        =    119.695128    -0.000021    -0.052582   119.642546
	   20 B(1,2,8)        =    120.494542     0.000037     0.135482   120.630025
	   21 B(1,6,5)        =    119.733718    -0.000010    -0.010050   119.723669
	   22 B(1,6,12)       =    120.712306    -0.000038    -0.108544   120.603762
	   23 B(1,7,13)       =    120.325875    -0.000209    -0.392196   119.933679
	   24 B(1,7,14)       =    119.645071     0.000128     0.324785   119.969856
	   25 B(2,1,6)        =    120.066054     0.000030     0.055671   120.121726
	   26 B(2,1,7)        =    119.675143     0.000117     0.240960   119.916103
	   27 B(2,3,4)        =    120.076373     0.000002     0.019346   120.095719
	   28 B(2,3,9)        =    119.715298    -0.000006    -0.034606   119.680692
	   29 B(3,2,8)        =    119.726527    -0.000016    -0.084499   119.642028
	   30 B(3,4,5)        =    120.381697    -0.000000    -0.003924   120.377773
	   31 B(3,4,10)       =    119.814901    -0.000001    -0.001424   119.813477
	   32 B(4,3,9)        =    120.206232     0.000004     0.014260   120.220492
	   33 B(4,5,6)        =    120.042316    -0.000001    -0.006636   120.035680
	   34 B(4,5,11)       =    120.210763     0.000004     0.014727   120.225490
	   35 B(5,4,10)       =    119.803377     0.000002     0.005287   119.808664
	   36 B(5,6,12)       =    119.476250     0.000048     0.128830   119.605080
	   37 B(6,1,7)        =    120.258792    -0.000148    -0.299076   119.959716
	   38 B(6,5,11)       =    119.744030    -0.000003    -0.007621   119.736408
	   39 B(7,13,17)      =    122.522443     0.000097     0.870105   123.392548
	   40 B(7,13,18)      =    120.660110    -0.000145    -1.377600   119.282510
	   41 B(7,14,15)      =    123.142490    -0.000022    -0.037081   123.105409
	   42 B(7,14,16)      =    119.821407     0.000015     0.034889   119.856296
	   43 B(13,7,14)      =    119.896601     0.000089     0.198601   120.095202
	   44 B(15,14,16)     =    116.991859     0.000004    -0.073607   116.918252
	   45 B(17,13,18)     =    116.741351     0.000042    -0.026515   116.714836
	   46 D(1,2,3,4)      =      0.743639    -0.000002    -0.197463     0.546176
	   47 D(1,2,3,9)      =   -178.730729    -0.000001    -0.084355  -178.815083
	   48 D(1,6,5,4)      =      0.398437     0.000000     0.054578     0.453015
	   49 D(1,6,5,11)     =   -178.984327     0.000000     0.002130  -178.982198
	   50 *D(1,7,13,17)   =    180.000000    -0.000000     0.000000   180.000000
	   51 D(1,7,13,18)    =      3.277111     0.000030     5.980212     9.257324
	   52 D(1,7,14,15)    =   -172.861843    -0.000014    -2.105140  -174.966983
	   53 D(1,7,14,16)    =      9.631903     0.000002    -0.490169     9.141734
	   54 D(2,1,6,5)      =      0.076275    -0.000002    -0.302507    -0.226231
	   55 D(2,1,6,12)     =   -176.701151    -0.000004    -0.525921  -177.227073
	   56 D(2,1,7,13)     =   -140.705529    -0.000014    -1.356840  -142.062369
	   57 D(2,1,7,14)     =     35.106852     0.000018     2.422268    37.529120
	   58 D(2,3,4,5)      =     -0.271705    -0.000000    -0.050482    -0.322187
	   59 D(2,3,4,10)     =    179.670524     0.000001     0.113883   179.784408
	   60 D(3,2,1,6)      =     -0.648018     0.000003     0.373987    -0.274030
	   61 D(3,2,1,7)      =    179.315290    -0.000000    -0.159505   179.155785
	   62 D(3,4,5,6)      =     -0.305036     0.000001     0.122411    -0.182626
	   63 D(3,4,5,11)     =    179.074821     0.000001     0.174978   179.249799
	   64 D(4,3,2,8)      =    177.431904    -0.000001    -0.224283   177.207621
	   65 D(4,5,6,12)     =    177.215947     0.000002     0.268093   177.484040
	   66 D(5,4,3,9)      =    179.200060    -0.000001    -0.164465   179.035595
	   67 D(5,6,1,7)      =   -179.886816     0.000001     0.231019  -179.655797
	   68 D(6,1,2,8)      =   -177.310408     0.000003     0.408561  -176.901847
	   69 D(6,1,7,13)     =     39.257707    -0.000017    -1.889329    37.368378
	   70 D(6,1,7,14)     =   -144.929912     0.000015     1.889779  -143.040133
	   71 D(6,5,4,10)     =    179.752727    -0.000000    -0.041943   179.710784
	   72 D(7,1,2,8)      =      2.652900    -0.000000    -0.124931     2.527969
	   73 D(7,1,6,12)     =      3.335757    -0.000001     0.007605     3.343362
	   74 D(8,2,3,9)      =     -2.042465    -0.000001    -0.111174    -2.153639
	   75 D(9,3,4,10)     =     -0.857710     0.000000    -0.000099    -0.857810
	   76 D(10,4,5,11)    =     -0.867415     0.000000     0.010624    -0.856791
	   77 D(11,5,6,12)    =     -2.166817     0.000002     0.215645    -1.951172
	   78 D(13,7,14,15)   =      2.968727     0.000015     1.655114     4.623840
	   79 D(13,7,14,16)   =   -174.537527     0.000031     3.270085  -171.267443
	   80 D(14,7,13,17)   =      4.198716    -0.000032    -3.790370     0.408347
	   81 D(14,7,13,18)   =   -172.524722    -0.000002     2.191073  -170.333649
	 ---------------------------------------------------------------------------
	Successfully symmetrized geometry.

  ==> Convergence Check <==

  Measures of convergence in internal coordinates in au.
  Criteria marked as inactive (o), active & met (*), and active & unmet ( ).
  ---------------------------------------------------------------------------------------------
   Step     Total Energy     Delta E     MAX Force     RMS Force      MAX Disp      RMS Disp   
  ---------------------------------------------------------------------------------------------
    Convergence Criteria    1.00e-06 *    3.00e-04 *             o    1.20e-03 *             o
  ---------------------------------------------------------------------------------------------
      2    -381.46984411   -1.10e-03      1.01e-02      1.35e-03 o    1.04e-01      1.87e-02 o  ~
  ---------------------------------------------------------------------------------------------

	Writing optimization data to binary file.
	Structure for next step:
	Cartesian Geometry (in Angstrom)
	    C     0.0208590591  -0.0078122735  -0.1802032671
	    C     0.0306942372   1.2124028020   0.5207974431
	    C     0.0112844988   1.2069629809   1.9123785543
	    C    -0.0062892339  -0.0052461447   2.6084725010
	    C    -0.0113048128  -1.2191722018   1.9144776995
	    C    -0.0026232472  -1.2260113727   0.5232276593
	    C     0.0224751466  -0.0088509342  -1.6487827669
	    H    -0.0017269168   2.1578864220  -0.0133304690
	    H    -0.0006416009   2.1476861287   2.4533119046
	    H    -0.0178517961  -0.0041681183   3.6940825356
	    H    -0.0126790323  -2.1587989972   2.4573696342
	    H     0.0348903770  -2.1730101211  -0.0088395000
	    N    -0.6931576331  -0.9119837277  -2.3124810655
	    N     0.7332981049   0.8986604403  -2.3133320124
	    H     0.7108941161   0.9888004859  -3.3227299227
	    H     1.3780336922   1.4978011168  -1.8141121242
	    H    -0.7300962490  -0.9606327509  -3.3250466708
	    H    -1.3441997098  -1.5020167346  -1.8029511330
			--------------------------
			 OPTKING Finished Execution 
			--------------------------

    Structure for next step:
    Molecular point group: c1
    Full point group: C1

    Geometry (in Angstrom), charge = 1, multiplicity = 1:

    C            0.020859059101    -0.007812273464    -0.180203267080
    C            0.030694237199     1.212402802032     0.520797443106
    C            0.011284498827     1.206962980866     1.912378554269
    C           -0.006289233907    -0.005246144656     2.608472501027
    C           -0.011304812831    -1.219172201754     1.914477699496
    C           -0.002623247181    -1.226011372725     0.523227659306
    C            0.022475146619    -0.008850934176    -1.648782766912
    H           -0.001726916768     2.157886422023    -0.013330469047
    H           -0.000641600913     2.147686128686     2.453311904610
    H           -0.017851796141    -0.004168118268     3.694082535589
    H           -0.012679032307    -2.158798997169     2.457369634181
    H            0.034890377048    -2.173010121097    -0.008839499954
    N           -0.693157633060    -0.911983727733    -2.312481065522
    N            0.733298104865     0.898660440294    -2.313332012441
    H            0.710894116061     0.988800485862    -3.322729922701
    H            1.378033692172     1.497801116785    -1.814112124194
    H           -0.730096248958    -0.960632750871    -3.325046670778
    H           -1.344199709827    -1.502016734637    -1.802951132955

gradient() will perform analytic gradient computation.

*** tstart() called on arancio.prib.upf.edu
*** at Sat Sep 29 20:25:46 2018

   => Loading Basis Set <=

    Name: 6-31G*
    Role: ORBITAL
    Keyword: BASIS
    atoms 1-7         entry C          line   111 file /shared/joao/test_parameterize/miniconda3/share/psi4/basis/6-31gs.gbs 
    atoms 8-12, 15-18 entry H          line    44 file /shared/joao/test_parameterize/miniconda3/share/psi4/basis/6-31gs.gbs 
    atoms 13-14       entry N          line   128 file /shared/joao/test_parameterize/miniconda3/share/psi4/basis/6-31gs.gbs 


         ---------------------------------------------------------
                                   SCF
            by Justin Turney, Rob Parrish, Andy Simmonett
                             and Daniel Smith
                              RKS Reference
                        4 Threads,   2861 MiB Core
         ---------------------------------------------------------

  ==> Geometry <==

    Molecular point group: c1
    Full point group: C1

    Geometry (in Angstrom), charge = 1, multiplicity = 1:

[...]
	             0.0000027727       -0.0000228309       -0.0000087171
	            -0.0000066229        0.0000448541        0.0000376672
	             0.0000465932       -0.0000406960       -0.0000486813
	             0.0008485056       -0.0004929953       -0.0002351846
	            -0.0000008145       -0.0000056222       -0.0000104583
	            -0.0000032570        0.0000009048       -0.0000016041
	             0.0000033954       -0.0000008761       -0.0000018006
	            -0.0000039390       -0.0000050577       -0.0000031087
	            -0.0000322484        0.0000132458       -0.0000185518
	             0.0013435743       -0.0010109525        0.0000414482
	            -0.0000149237       -0.0000996997        0.0000481229
	            -0.0000267571        0.0000044457       -0.0000101950
	            -0.0000066933        0.0000038906        0.0000341445
	            -0.0012422321        0.0009971262       -0.0000247808
	            -0.0000532503       -0.0000564482        0.0000484650

	---Fragment 1 Intrafragment Coordinates---
	 - Coordinate -           - BOHR/RAD -       - ANG/DEG -
	 R(1,2)           =         2.659369	       1.407278
	 R(1,6)           =         2.659588	       1.407393
	 R(1,7)           =         2.773391	       1.467615
	 R(2,3)           =         2.629489	       1.391465
	 R(2,8)           =         2.052941	       1.086370
	 R(3,4)           =         2.642171	       1.398177
	 R(3,9)           =         2.050644	       1.085154
	 R(4,5)           =         2.642323	       1.398257
	 R(4,10)          =         2.051569	       1.085644
	 R(5,6)           =         2.629277	       1.391354
	 R(5,11)          =         2.050650	       1.085157
	 R(6,12)          =         2.053018	       1.086411
	 R(7,13)          =         2.514236	       1.330476
	 R(7,14)          =         2.512544	       1.329581
	 R(13,17)         =         1.915158	       1.013458
	 R(13,18)         =         1.912152	       1.011867
	 R(14,15)         =         1.914938	       1.013342
	 R(14,16)         =         1.911725	       1.011641
	 B(1,2,3)         =         2.087972	     119.631956
	 B(1,2,8)         =         2.104039	     120.552574
	 B(1,6,5)         =         2.088157	     119.642590
	 B(1,6,12)        =         2.103323	     120.511557
	 B(1,7,13)        =         2.091356	     119.825878
	 B(1,7,14)        =         2.093008	     119.920522
	 B(2,1,6)         =         2.097664	     120.187289
	 B(2,1,7)         =         2.092337	     119.882067
	 B(2,3,4)         =         2.095530	     120.065024
	 B(2,3,9)         =         2.089423	     119.715095
	 B(3,2,8)         =         2.089876	     119.741090
	 B(3,4,5)         =         2.101644	     120.415344
	 B(3,4,10)        =         2.090753	     119.791325
	 B(4,3,9)         =         2.098184	     120.217080
	 B(4,5,6)         =         2.095360	     120.055283
	 B(4,5,11)        =         2.098178	     120.216762
	 B(5,4,10)        =         2.090788	     119.793331
	 B(5,6,12)        =         2.090495	     119.776517
	 B(6,1,7)         =         2.093182	     119.930489
	 B(6,5,11)        =         2.089594	     119.724940
	 B(7,13,17)       =         2.141896	     122.721620
	 B(7,13,18)       =         2.087376	     119.597809
	 B(7,14,15)       =         2.145762	     122.943114
	 B(7,14,16)       =         2.091550	     119.836964
	 B(13,7,14)       =         2.098807	     120.252768
	 B(15,14,16)      =         2.042331	     117.016959
	 B(17,13,18)      =         2.037333	     116.730590
	 D(1,2,3,4)       =         0.008830	       0.505922
	 D(1,2,3,9)       =        -3.122160	    -178.886592
	 D(1,6,5,4)       =         0.007425	       0.425431
	 D(1,6,5,11)      =        -3.123169	    -178.944413
	*D(1,7,13,17)     =         3.141593	     180.000000
	 D(1,7,13,18)     =         0.201129	      11.523852
	 D(1,7,14,15)     =        -3.042825	    -174.341040
	 D(1,7,14,16)     =         0.191873	      10.993495
	 D(2,1,6,5)       =        -0.002877	      -0.164835
	 D(2,1,6,12)      =        -3.091505	    -177.130198
	 D(2,1,7,13)      =        -2.503942	    -143.465310
	 D(2,1,7,14)      =         0.631875	      36.203755
	 D(2,3,4,5)       =        -0.004326	      -0.247850
	 D(2,3,4,10)      =         3.137269	     179.752299
	 D(3,2,1,6)       =        -0.005263	      -0.301554
	 D(3,2,1,7)       =         3.133830	     179.555221
	 D(3,4,5,6)       =        -0.003893	      -0.223042
	 D(3,4,5,11)      =         3.126647	     179.143674
	 D(4,3,2,8)       =         3.095998	     177.387591
	 D(4,5,6,12)      =         3.096447	     177.413339
	 D(5,4,3,9)       =         3.126611	     179.141587
	 D(5,6,1,7)       =         3.141217	     179.978460
	 D(6,1,2,8)       =        -3.091981	    -177.157442
	 D(6,1,7,13)      =         0.635157	      36.391836
	 D(6,1,7,14)      =        -2.512211	    -143.939099
	 D(6,5,4,10)      =         3.137697	     179.776808
	 D(7,1,2,8)       =         0.047112	       2.699333
	 D(7,1,6,12)      =         0.052588	       3.013097
	 D(8,2,3,9)       =        -0.034992	      -2.004922
	 D(9,3,4,10)      =        -0.014980	      -0.858264
	 D(10,4,5,11)     =        -0.014948	      -0.856476
	 D(11,5,6,12)     =        -0.034147	      -1.956505
	 D(13,7,14,15)    =         0.092967	       5.326596
	 D(13,7,14,16)    =        -2.955521	    -169.338869
	 D(14,7,13,17)    =         0.005799	       0.332259
	 D(14,7,13,18)    =        -2.934668	    -168.144100

	Current energy   :      -381.4703699121

	Energy change for the previous step:
		Projected    :         0.0000008088
		Actual       :        -0.0000015223

	Performing BFGS update.
	Previous computed or guess Hessian on step 1.
	Steps to be used in Hessian update: 5 4
	Taking RFO optimization step.
	Going to follow RFO solution 1.
	Using RFO vector 1.
	Norm of target step-size    0.00279
	Projected energy change by RFO approximation:         0.0000001795

	Back-transformation to cartesian coordinates...
	Successfully converged to displaced geometry.

	Back-transformation to cartesian coordinates to adjust frozen coordinates...
	Successfully converged to displaced geometry.

	--- Internal Coordinate Step in ANG or DEG, aJ/ANG or AJ/DEG ---
	 ---------------------------------------------------------------------------
	   Coordinate                Previous        Force       Change         New 
	   ----------                --------       ------       ------       ------
	    1 R(1,2)          =      1.407278     0.000194     0.000029     1.407307
	    2 R(1,6)          =      1.407393     0.000143     0.000024     1.407418
	    3 R(1,7)          =      1.467615    -0.000770    -0.000170     1.467445
	    4 R(2,3)          =      1.391465    -0.000144    -0.000024     1.391442
	    5 R(2,8)          =      1.086370     0.000002     0.000000     1.086370
	    6 R(3,4)          =      1.398177    -0.000074    -0.000005     1.398172
	    7 R(3,9)          =      1.085154    -0.000005    -0.000002     1.085152
	    8 R(4,5)          =      1.398257     0.000136     0.000021     1.398279
	    9 R(4,10)         =      1.085644     0.000005     0.000002     1.085646
	   10 R(5,6)          =      1.391354    -0.000232    -0.000037     1.391317
	   11 R(5,11)         =      1.085157    -0.000028    -0.000004     1.085154
	   12 R(6,12)         =      1.086411     0.000033     0.000008     1.086418
	   13 R(7,13)         =      1.330476     0.000097     0.000032     1.330509
	   14 R(7,14)         =      1.329581     0.001035     0.000125     1.329706
	   15 R(13,17)        =      1.013458    -0.000127    -0.000004     1.013454
	   16 R(13,18)        =      1.011867    -0.000753    -0.000052     1.011815
	   17 R(14,15)        =      1.013342    -0.000083    -0.000007     1.013334
	   18 R(14,16)        =      1.011641    -0.000129    -0.000014     1.011628
	   19 B(1,2,3)        =    119.631956     0.000001     0.003006   119.634962
	   20 B(1,2,8)        =    120.552574     0.000000     0.001083   120.553657
	   21 B(1,6,5)        =    119.642590     0.000002     0.005075   119.647666
	   22 B(1,6,12)       =    120.511557     0.000001     0.002318   120.513875
	   23 B(1,7,13)       =    119.825878     0.000004     0.012340   119.838218
	   24 B(1,7,14)       =    119.920522     0.000001     0.002831   119.923353
	   25 B(2,1,6)        =    120.187289    -0.000002    -0.006417   120.180873
	   26 B(2,1,7)        =    119.882067    -0.000001    -0.001874   119.880193
	   27 B(2,3,4)        =    120.065024     0.000000     0.000470   120.065494
	   28 B(2,3,9)        =    119.715095    -0.000000     0.000268   119.715362
	   29 B(3,2,8)        =    119.741090    -0.000001    -0.003198   119.737893
	   30 B(3,4,5)        =    120.415344    -0.000000    -0.000529   120.414815
	   31 B(3,4,10)       =    119.791325     0.000000     0.000092   119.791418
	   32 B(4,3,9)        =    120.217080    -0.000000    -0.000730   120.216350
	   33 B(4,5,6)        =    120.055283    -0.000000    -0.001567   120.053717
	   34 B(4,5,11)       =    120.216762    -0.000000    -0.000962   120.215800
	   35 B(5,4,10)       =    119.793331     0.000000     0.000435   119.793766
	   36 B(5,6,12)       =    119.776517    -0.000003    -0.009842   119.766675
	   37 B(6,1,7)        =    119.930489     0.000003     0.008339   119.938828
	   38 B(6,5,11)       =    119.724940     0.000001     0.002410   119.727350
	   39 B(7,13,17)      =    122.721620     0.000003     0.012464   122.734084
	   40 B(7,13,18)      =    119.597809    -0.000001    -0.006482   119.591327
	   41 B(7,14,15)      =    122.943114    -0.000000    -0.002278   122.940836
	   42 B(7,14,16)      =    119.836964     0.000002     0.007810   119.844774
	   43 B(13,7,14)      =    120.252768    -0.000005    -0.015189   120.237579
	   44 B(15,14,16)     =    117.016959    -0.000002    -0.012966   117.003993
	   45 B(17,13,18)     =    116.730590    -0.000002    -0.010746   116.719844
	   46 D(1,2,3,4)      =      0.505922    -0.000000    -0.011952     0.493969
	   47 D(1,2,3,9)      =   -178.886592    -0.000000    -0.012772  -178.899365
	   48 D(1,6,5,4)      =      0.425431     0.000000     0.005229     0.430660
	   49 D(1,6,5,11)     =   -178.944413     0.000000     0.017552  -178.926861
	   50 *D(1,7,13,17)   =    180.000000    -0.000000     0.000000   180.000000
	   51 D(1,7,13,18)    =     11.523852     0.000000     0.029827    11.553679
	   52 D(1,7,14,15)    =   -174.341040    -0.000000    -0.042902  -174.383943
	   53 D(1,7,14,16)    =     10.993495     0.000000     0.054353    11.047848
	   54 D(2,1,6,5)      =     -0.164835    -0.000000    -0.000278    -0.165112
	   55 D(2,1,6,12)     =   -177.130198     0.000000     0.053092  -177.077105
	   56 D(2,1,7,13)     =   -143.465310     0.000000    -0.020834  -143.486144
	   57 D(2,1,7,14)     =     36.203755    -0.000000    -0.024549    36.179207
	   58 D(2,3,4,5)      =     -0.247850     0.000000     0.017042    -0.230808
	   59 D(2,3,4,10)     =    179.752299     0.000000     0.001114   179.753413
	   60 D(3,2,1,6)      =     -0.301554     0.000000     0.003635    -0.297919
	   61 D(3,2,1,7)      =    179.555221     0.000000     0.028225   179.583446
	   62 D(3,4,5,6)      =     -0.223042    -0.000000    -0.013623    -0.236666
	   63 D(3,4,5,11)     =    179.143674    -0.000000    -0.025986   179.117688
	   64 D(4,3,2,8)      =    177.387591     0.000000     0.006816   177.394407
	   65 D(4,5,6,12)     =    177.413339    -0.000000    -0.047370   177.365969
	   66 D(5,4,3,9)      =    179.141587     0.000000     0.017873   179.159459
	   67 D(5,6,1,7)      =    179.978460    -0.000000    -0.024868   179.953592
	   68 D(6,1,2,8)      =   -177.157442    -0.000000    -0.015154  -177.172596
	   69 D(6,1,7,13)     =     36.391836     0.000000     0.003675    36.395511
	   70 D(6,1,7,14)     =   -143.939099     0.000000    -0.000040  -143.939138
	   71 D(6,5,4,10)     =    179.776808    -0.000000     0.002306   179.779113
	   72 D(7,1,2,8)      =      2.699333     0.000000     0.009436     2.708769
	   73 D(7,1,6,12)     =      3.013097     0.000000     0.028502     3.041599
	   74 D(8,2,3,9)      =     -2.004922     0.000000     0.005996    -1.998926
	   75 D(9,3,4,10)     =     -0.858264     0.000000     0.001944    -0.856320
	   76 D(10,4,5,11)    =     -0.856476    -0.000000    -0.010057    -0.866533
	   77 D(11,5,6,12)    =     -1.956505    -0.000000    -0.035046    -1.991551
	   78 D(13,7,14,15)   =      5.326596    -0.000000    -0.046539     5.280057
	   79 D(13,7,14,16)   =   -169.338869     0.000000     0.050716  -169.288153
	   80 D(14,7,13,17)   =      0.332259     0.000000     0.003665     0.335923
	   81 D(14,7,13,18)   =   -168.144100     0.000000     0.033493  -168.110607
	 ---------------------------------------------------------------------------
	Successfully symmetrized geometry.

  ==> Convergence Check <==

  Measures of convergence in internal coordinates in au.
  Criteria marked as inactive (o), active & met (*), and active & unmet ( ).
  ---------------------------------------------------------------------------------------------
   Step     Total Energy     Delta E     MAX Force     RMS Force      MAX Disp      RMS Disp   
  ---------------------------------------------------------------------------------------------
    Convergence Criteria    1.00e-06 *    3.00e-04 *             o    1.20e-03 *             o
  ---------------------------------------------------------------------------------------------
      6    -381.47036991   -1.52e-06      1.26e-04 *    2.62e-05 o    9.49e-04 *    3.10e-04 o  ~
  ---------------------------------------------------------------------------------------------


  **** Optimization is complete! (in 6 steps) ****

  ==> Optimization Summary <==

  Measures of convergence in internal coordinates in au.
  --------------------------------------------------------------------------------------------------------------- ~
   Step         Total Energy             Delta E       MAX Force       RMS Force        MAX Disp        RMS Disp  ~
  --------------------------------------------------------------------------------------------------------------- ~
      1    -381.468746415891   -381.468746415891      0.00718566      0.00141066      0.20888514      0.03343129  ~
      2    -381.469844109064     -0.001097693174      0.01006581      0.00134620      0.10437440      0.01868406  ~
      3    -381.470302494443     -0.000458385379      0.00338975      0.00050621      0.03038029      0.00731417  ~
      4    -381.470359841675     -0.000057347232      0.00091508      0.00019108      0.01187753      0.00251409  ~
      5    -381.470368389796     -0.000008548120      0.00041327      0.00007051      0.00624574      0.00153302  ~
      6    -381.470369912051     -0.000001522256      0.00012568      0.00002616      0.00094864      0.00031023  ~
  --------------------------------------------------------------------------------------------------------------- ~

	Writing optimization data to binary file.
	Final energy is   -381.4703699120515
	Final (previous) structure:
	Cartesian Geometry (in Angstrom)
	    C     0.0152390845  -0.0084176322  -0.1798932941
	    C     0.0323466036   1.2123494441   0.5200103327
	    C     0.0169604231   1.2079354464   1.9113836676
	    C    -0.0046364225  -0.0042631486   2.6078077339
	    C    -0.0161618082  -1.2186710756   1.9148400363
	    C    -0.0108502903  -1.2271389154   0.5235223665
	    C     0.0214609955  -0.0099856792  -1.6474944606
	    H     0.0061039845   2.1567741610  -0.0162472945
	    H     0.0118091303   2.1486812420   2.4522439542
	    H    -0.0125087985  -0.0025724710   3.6934215795
	    H    -0.0189076967  -2.1577465848   2.4586197702
	    H     0.0227110604  -2.1728487886  -0.0101389796
	    N    -0.6780281683  -0.9266920064  -2.3112203769
	    N     0.7201350429   0.9078548535  -2.3087119871
	    H     0.6910835348   1.0016534653  -3.3172848949
	    H     1.3743136757   1.4975566530  -1.8109971464
	    H    -0.7048862482  -0.9684062141  -3.3234634273
	    H    -1.3443251026  -1.5035657496  -1.8140885795
	Saving final (previous) structure.
	Removing binary optimization data file.
			--------------------------
			 OPTKING Finished Execution 
			--------------------------

    Final optimized geometry and variables:
    Molecular point group: c1
    Full point group: C1

    Geometry (in Angstrom), charge = 1, multiplicity = 1:

    C            0.015239084514    -0.008417632198    -0.179893294114
    C            0.032346603597     1.212349444118     0.520010332741
    C            0.016960423106     1.207935446363     1.911383667610
    C           -0.004636422525    -0.004263148555     2.607807733892
    C           -0.016161808169    -1.218671075630     1.914840036348
    C           -0.010850290252    -1.227138915381     0.523522366526
    C            0.021460995513    -0.009985679212    -1.647494460585
    H            0.006103984476     2.156774161046    -0.016247294498
    H            0.011809130346     2.148681241974     2.452243954176
    H           -0.012508798534    -0.002572470982     3.693421579451
    H           -0.018907696681    -2.157746584815     2.458619770198
    H            0.022711060407    -2.172848788558    -0.010138979572
    N           -0.678028168338    -0.926692006363    -2.311220376866
    N            0.720135042923     0.907854853547    -2.308711987113
    H            0.691083534812     1.001653465276    -3.317284894940
    H            1.374313675688     1.497556653011    -1.810997146437
    H           -0.704886248235    -0.968406214053    -3.323463427340
    H           -1.344325102648    -1.503565749588    -1.814088579477

	Removing binary optimization data file.
	Cleaning optimization helper files.


Properties will be evaluated at   0.000000,   0.000000,   0.000000 [a0]
OEProp: No title given, name of density matrix used for the following properties is 'SCF density'
  Nuclear Dipole Moment: [e a0]
     X:     1.2213      Y:    -0.7965      Z:    -0.2389

  Electronic Dipole Moment: [e a0]
     X:    -1.2372      Y:     0.8242      Z:    -2.0307

  Dipole Moment: [e a0]
     X:    -0.0159      Y:     0.0277      Z:    -2.2696     Total:     2.2698

  Dipole Moment: [D]
     X:    -0.0404      Y:     0.0705      Z:    -5.7688     Total:     5.7693

  Quadrupole Moment: [D A]
    XX:   -49.3556     YY:   -38.1095     ZZ:   -13.1759
    XY:     6.3814     XZ:     0.1510     YZ:    -0.3060

  Traceless Quadrupole Moment: [D A]
    XX:   -15.8086     YY:    -4.5625     ZZ:    20.3711
    XY:     6.3814     XZ:     0.1510     YZ:    -0.3060

  Mulliken Charges: (a.u.)
   Center  Symbol    Alpha    Beta     Spin     Total
       1     C     2.95748  2.95748  0.00000  0.08505
       2     C     3.08226  3.08226  0.00000 -0.16452
       3     C     3.06251  3.06251  0.00000 -0.12502
       4     C     3.05154  3.05154  0.00000 -0.10309
       5     C     3.06249  3.06249  0.00000 -0.12498
       6     C     3.08247  3.08247  0.00000 -0.16494
       7     C     2.72227  2.72227  0.00000  0.55546
       8     H     0.41440  0.41440  0.00000  0.17121
       9     H     0.40550  0.40550  0.00000  0.18900
      10     H     0.40396  0.40396  0.00000  0.19209
      11     H     0.40545  0.40545  0.00000  0.18910
      12     H     0.41365  0.41365  0.00000  0.17271
      13     N     3.86224  3.86224  0.00000 -0.72449
      14     N     3.86299  3.86299  0.00000 -0.72598
      15     H     0.30569  0.30569  0.00000  0.38863
      16     H     0.29945  0.29945  0.00000  0.40109
      17     H     0.30589  0.30589  0.00000  0.38822
      18     H     0.29977  0.29977  0.00000  0.40047

   Total alpha = 32.00000, Total beta = 32.00000, Total charge =  1.00000


    Psi4 stopped on: Saturday, 29 September 2018 08:27PM
    Psi4 wall time for execution: 0:02:49.98

*** Psi4 exiting successfully. Buy a developer a beer!
