
    -----------------------------------------------------------------------
          Psi4: An Open-Source Ab Initio Electronic Structure Package
                               Psi4 1.2.1 release

                         Git: Rev {HEAD} 406f4de 


    R. M. Parrish, L. A. Burns, D. G. A. Smith, A. C. Simmonett,
    A. E. DePrince III, E. G. Hohenstein, U. Bozkaya, A. Yu. Sokolov,
    R. Di Remigio, R. M. Richard, J. F. Gonthier, A. M. James,
    H. R. McAlexander, A. Kumar, M. Saitow, X. Wang, B. P. Pritchard,
    P. Verma, H. F. Schaefer III, K. Patkowski, R. A. King, E. F. Valeev,
    F. A. Evangelista, J. M. Turney, T. D. Crawford, and C. D. Sherrill,
    J. Chem. Theory Comput. 13(7) pp 3185--3197 (2017).
    (doi: 10.1021/acs.jctc.7b00174)


                         Additional Contributions by
    P. Kraus, H. Kruse, M. H. Lechner, M. C. Schieber, and R. A. Shaw

    -----------------------------------------------------------------------


    Psi4 started on: Saturday, 29 September 2018 05:10PM

    Process ID: 14170
    Host:       loro.prib.upf.edu
    PSIDATADIR: /shared/joao/test_parameterize/miniconda3/share/psi4
    Memory:     500.0 MiB
    Threads:    1
    
  ==> Input File <==

--------------------------------------------------------------------------
set_num_threads(1)
set_memory('5348 MB')

set { scf_mem_safety_factor 0.7 }

set { reference rks }
set { basis cc-pVDZ }

molecule MOL {
    0 1
    noreorient
    nocom
    symmetry c1
    O    1.050400   0.042900  -0.048100
    C    2.474100   0.047400  -0.029000
    C    3.002600  -1.068900  -0.932000
    N    4.462700  -1.072400  -1.006800
    H    0.773777  -0.889510  -0.037926
    H    2.809900  -0.097900   1.003200
    H    2.817400   1.026800  -0.378600
    H    2.581000  -0.963300  -1.938400
    H    2.653800  -2.036400  -0.553400
    H    4.779000  -0.221000  -1.470000
    H    4.758600  -1.842500  -1.606500
}

set optking { frozen_dihedral = (" 3 2 1 5 ") }

energy, wfn = energy('B3LYP-D3', return_wfn=True)

import os
os.chdir(os.environ['HTMD_PSI4_WORKDIR'])

oeprop(wfn, 'DIPOLE', 'QUADRUPOLE', 'MULLIKEN_CHARGES')

with open('psi4out.xyz', 'w') as f:
    f.write('11 ' )
    f.write('%.12f\n' % energy)
    f.write(MOL.save_string_xyz())
--------------------------------------------------------------------------
  Threads set to 1 by Python driver.

  Memory set to   4.981 GiB by Python driver.

*** tstart() called on loro.prib.upf.edu
*** at Sat Sep 29 17:10:44 2018

   => Loading Basis Set <=

    Name: CC-PVDZ
    Role: ORBITAL
    Keyword: BASIS
    atoms 1    entry O          line   198 file /shared/joao/test_parameterize/miniconda3/share/psi4/basis/cc-pvdz.gbs 
    atoms 2-3  entry C          line   138 file /shared/joao/test_parameterize/miniconda3/share/psi4/basis/cc-pvdz.gbs 
    atoms 4    entry N          line   168 file /shared/joao/test_parameterize/miniconda3/share/psi4/basis/cc-pvdz.gbs 
    atoms 5-11 entry H          line    22 file /shared/joao/test_parameterize/miniconda3/share/psi4/basis/cc-pvdz.gbs 


         ---------------------------------------------------------
                                   SCF
            by Justin Turney, Rob Parrish, Andy Simmonett
                             and Daniel Smith
                              RKS Reference
                        1 Threads,   5100 MiB Core
         ---------------------------------------------------------

  ==> Geometry <==

    Molecular point group: c1
    Full point group: C1

    Geometry (in Angstrom), charge = 0, multiplicity = 1:

       Center              X                  Y                   Z               Mass       
    ------------   -----------------  -----------------  -----------------  -----------------
         O            1.050400000000     0.042900000000    -0.048100000000    15.994914619560
         C            2.474100000000     0.047400000000    -0.029000000000    12.000000000000
         C            3.002600000000    -1.068900000000    -0.932000000000    12.000000000000
         N            4.462700000000    -1.072400000000    -1.006800000000    14.003074004780
         H            0.773777000000    -0.889510000000    -0.037926000000     1.007825032070
         H            2.809900000000    -0.097900000000     1.003200000000     1.007825032070
         H            2.817400000000     1.026800000000    -0.378600000000     1.007825032070
         H            2.581000000000    -0.963300000000    -1.938400000000     1.007825032070
         H            2.653800000000    -2.036400000000    -0.553400000000     1.007825032070
         H            4.779000000000    -0.221000000000    -1.470000000000     1.007825032070
         H            4.758600000000    -1.842500000000    -1.606500000000     1.007825032070

  Running in c1 symmetry.

  Rotational constants: A =      0.74471  B =      0.02759  C =      0.02696 [cm^-1]
  Rotational constants: A =  22325.74822  B =    827.16155  C =    808.35273 [MHz]
  Nuclear repulsion =  130.986059791119885

  Charge       = 0
  Multiplicity = 1
  Electrons    = 34
  Nalpha       = 17
  Nbeta        = 17

  ==> Algorithm <==

  SCF Algorithm Type is DF.
  DIIS enabled.
  MOM disabled.
  Fractional occupation disabled.
  Guess Type is SAD.
  Energy threshold   = 1.00e-06
  Density threshold  = 1.00e-06
  Integral threshold = 0.00e+00

  ==> Primary Basis <==

  Basis Set: CC-PVDZ
    Blend: CC-PVDZ
    Number of shells: 45
    Number of basis function: 91
    Number of Cartesian functions: 95
    Spherical Harmonics?: true
    Max angular momentum: 2

  ==> DFT Potential <==

   => Composite Functional: B3LYP-D3ZERO <= 

    B3LYP-d3zero Hyb-GGA Exchange-Correlation Functional

    P. J. Stephens, F. J. Devlin, C. F. Chabalowski, and M. J. Frisch, J. Phys. Chem. 98, 11623 (1994)

    Deriv               =              1
    GGA                 =           TRUE
    Meta                =          FALSE

    Exchange Hybrid     =           TRUE
    MP2 Hybrid          =          FALSE

   => Exchange Functionals <=

    0.0800   Slater exchange
    0.7200         Becke 88

   => Exact (HF) Exchange <=

    0.2000               HF 

   => Correlation Functionals <=

    0.1900   Vosko, Wilk & Nusair (VWN5_RPA)
    0.8100   Lee, Yang & Parr

   => Molecular Quadrature <=

    Radial Scheme       =       TREUTLER
    Pruning Scheme      =           FLAT
    Nuclear Scheme      =       TREUTLER

    BS radius alpha     =              1
    Pruning alpha       =              1
    Radial Points       =             75
    Spherical Points    =            302
    Total Points        =         245061
    Total Blocks        =           1902
    Max Points          =            256
    Max Functions       =             91

   => -D3ZERO: Empirical Dispersion <=

    Grimme's -D3 (zero-damping) Dispersion Correction
    Grimme S.; Antony J.; Ehrlich S.; Krieg H. (2010), J. Chem. Phys., 132: 154104

        S6 =   1.000000E+00
        S8 =   1.703000E+00
       SR6 =   1.261000E+00
       SR8 =   1.000000E+00
    ALPHA6 =   1.400000E+01

   => Loading Basis Set <=

    Name: (CC-PVDZ AUX)
    Role: JKFIT
    Keyword: DF_BASIS_SCF
    atoms 1    entry O          line   221 file /shared/joao/test_parameterize/miniconda3/share/psi4/basis/cc-pvdz-jkfit.gbs 
    atoms 2-3  entry C          line   121 file /shared/joao/test_parameterize/miniconda3/share/psi4/basis/cc-pvdz-jkfit.gbs 
    atoms 4    entry N          line   171 file /shared/joao/test_parameterize/miniconda3/share/psi4/basis/cc-pvdz-jkfit.gbs 
    atoms 5-11 entry H          line    51 file /shared/joao/test_parameterize/miniconda3/share/psi4/basis/cc-pvdz-jkfit.gbs 

  ==> Pre-Iterations <==

   -------------------------------------------------------
    Irrep   Nso     Nmo     Nalpha   Nbeta   Ndocc  Nsocc
   -------------------------------------------------------
     A         91      91       0       0       0       0
   -------------------------------------------------------
    Total      91      91      17      17      17       0
   -------------------------------------------------------

  ==> Integral Setup <==

  DFHelper Memory: AOs need 0.036 [GiB]; user supplied 3.486 [GiB]. Using in-core AOs.

  ==> MemDFJK: Density-Fitted J/K Matrices <==

    J tasked:                   Yes
    K tasked:                   Yes
    wK tasked:                   No
    OpenMP threads:               1
    Memory (MB):               3570
    Algorithm:                 Core
    Schwarz Cutoff:           1E-12
    Mask sparsity (%):       0.2415
    Fitting Condition:        1E-12

   => Auxiliary Basis Set <=

  Basis Set: (CC-PVDZ AUX)
    Blend: CC-PVDZ-JKFIT
    Number of shells: 159
    Number of basis function: 441
    Number of Cartesian functions: 499
    Spherical Harmonics?: true
    Max angular momentum: 3

  Minimum eigenvalue in the overlap matrix is 4.4010031504E-03.
  Using Symmetric Orthogonalization.

  SCF Guess: Superposition of Atomic Densities via on-the-fly atomic UHF.

  ==> Iterations <==

                           Total Energy        Delta E     RMS |[F,P]|

   @DF-RKS iter   0:  -210.80385088171528   -2.10804e+02   3.66880e-02 
   @DF-RKS iter   1:  -210.22553436616042    5.78317e-01   6.84246e-03 
   @DF-RKS iter   2:  -210.09826023482222    1.27274e-01   9.22967e-03 DIIS
   @DF-RKS iter   3:  -210.39047773061392   -2.92217e-01   5.77466e-04 DIIS
   @DF-RKS iter   4:  -210.39125406889272   -7.76338e-04   3.38326e-04 DIIS
   @DF-RKS iter   5:  -210.39167075350196   -4.16685e-04   5.34804e-05 DIIS
   @DF-RKS iter   6:  -210.39167850429530   -7.75079e-06   2.52708e-05 DIIS
   @DF-RKS iter   7:  -210.39168076440188   -2.26011e-06   2.05804e-06 DIIS
   @DF-RKS iter   8:  -210.39168077997564   -1.55738e-08   5.94567e-07 DIIS

  ==> Post-Iterations <==

    Orbital Energies [Eh]
    ---------------------

    Doubly Occupied:                                                      

       1A    -19.128099     2A    -14.309234     3A    -10.224421  
       4A    -10.208749     5A     -1.011234     6A     -0.881548  
       7A     -0.711762     8A     -0.615752     9A     -0.497463  
      10A     -0.488716    11A     -0.448143    12A     -0.429114  
      13A     -0.397751    14A     -0.373302    15A     -0.321129  
      16A     -0.262692    17A     -0.236209  

    Virtual:                                                              

      18A      0.049258    19A      0.056128    20A      0.091778  
      21A      0.115615    22A      0.130857    23A      0.147602  
      24A      0.163507    25A      0.209311    26A      0.242108  
      27A      0.254015    28A      0.434681    29A      0.443545  
      30A      0.483662    31A      0.500773    32A      0.561185  
      33A      0.575914    34A      0.596959    35A      0.602232  
      36A      0.633205    37A      0.650710    38A      0.661420  
      39A      0.675019    40A      0.696600    41A      0.814472  
      42A      0.822574    43A      0.841168    44A      0.911187  
      45A      0.954934    46A      1.010236    47A      1.023365  
      48A      1.064089    49A      1.158659    50A      1.190903  
      51A      1.219386    52A      1.242370    53A      1.291201  
      54A      1.384996    55A      1.444043    56A      1.485803  
      57A      1.520961    58A      1.606388    59A      1.627737  
      60A      1.639000    61A      1.649324    62A      1.657996  
      63A      1.706279    64A      1.736218    65A      1.739768  
      66A      1.771023    67A      1.821244    68A      1.860190  
      69A      1.871598    70A      1.940726    71A      2.002347  
      72A      2.021299    73A      2.044502    74A      2.106625  
      75A      2.157845    76A      2.241791    77A      2.261133  
      78A      2.364460    79A      2.397867    80A      2.437105  
      81A      2.489778    82A      2.547027    83A      2.605815  
      84A      2.669991    85A      2.823063    86A      2.938998  
      87A      3.007661    88A      3.054861    89A      3.081365  
      90A      3.245301    91A      3.682430  

    Final Occupation by Irrep:
              A 
    DOCC [    17 ]

  Energy converged.

  @DF-RKS Final Energy:  -210.39168077997564

   => Energetics <=

    Nuclear Repulsion Energy =            130.9860597911198852
    One-Electron Energy =                -544.7821336391938303
    Two-Electron Energy =                 226.8964560069627510
    DFT Exchange-Correlation Energy =     -23.4868947288644279
    Empirical Dispersion Energy =          -0.0051682100000000
    VV10 Nonlocal Energy =                  0.0000000000000000
    Total Energy =                       -210.3916807799756157



Properties will be evaluated at   0.000000,   0.000000,   0.000000 [a0]

Properties computed using the SCF density matrix

  Nuclear Dipole Moment: [e a0]
     X:   177.0216      Y:   -34.6130      Z:   -34.3553

  Electronic Dipole Moment: [e a0]
     X:  -176.7738      Y:    34.1160      Z:    33.8441

  Dipole Moment: [e a0]
     X:     0.2478      Y:    -0.4970      Z:    -0.5112     Total:     0.7548

  Dipole Moment: [D]
     X:     0.6298      Y:    -1.2633      Z:    -1.2993     Total:     1.9185


*** tstop() called on loro.prib.upf.edu at Sat Sep 29 17:11:01 2018
Module time:
	user time   =      15.14 seconds =       0.25 minutes
	system time =       0.22 seconds =       0.00 minutes
	total time  =         17 seconds =       0.28 minutes
Total time:
	user time   =      15.14 seconds =       0.25 minutes
	system time =       0.22 seconds =       0.00 minutes
	total time  =         17 seconds =       0.28 minutes


Properties will be evaluated at   0.000000,   0.000000,   0.000000 [a0]
OEProp: No title given, name of density matrix used for the following properties is 'SCF density'
  Nuclear Dipole Moment: [e a0]
     X:   177.0216      Y:   -34.6130      Z:   -34.3553

  Electronic Dipole Moment: [e a0]
     X:  -176.7738      Y:    34.1160      Z:    33.8441

  Dipole Moment: [e a0]
     X:     0.2478      Y:    -0.4970      Z:    -0.5112     Total:     0.7548

  Dipole Moment: [D]
     X:     0.6298      Y:    -1.2633      Z:    -1.2993     Total:     1.9185

  Quadrupole Moment: [D A]
    XX:   -24.4138     YY:   -22.8931     ZZ:   -23.3625
    XY:     0.2665     XZ:    -6.7207     YZ:     1.2904

  Traceless Quadrupole Moment: [D A]
    XX:    -0.8574     YY:     0.6634     ZZ:     0.1940
    XY:     0.2665     XZ:    -6.7207     YZ:     1.2904

  Mulliken Charges: (a.u.)
   Center  Symbol    Alpha    Beta     Spin     Total
       1     O     4.13892  4.13892  0.00000 -0.27783
       2     C     2.91595  2.91595  0.00000  0.16810
       3     C     3.00482  3.00482  0.00000 -0.00965
       4     N     3.59131  3.59131  0.00000 -0.18262
       5     H     0.43158  0.43158  0.00000  0.13684
       6     H     0.49668  0.49668  0.00000  0.00665
       7     H     0.49372  0.49372  0.00000  0.01256
       8     H     0.50152  0.50152  0.00000 -0.00303
       9     H     0.49750  0.49750  0.00000  0.00499
      10     H     0.46390  0.46390  0.00000  0.07221
      11     H     0.46411  0.46411  0.00000  0.07177

   Total alpha = 17.00000, Total beta = 17.00000, Total charge = -0.00000


    Psi4 stopped on: Saturday, 29 September 2018 05:11PM
    Psi4 wall time for execution: 0:00:17.47

*** Psi4 exiting successfully. Buy a developer a beer!
