
    -----------------------------------------------------------------------
          Psi4: An Open-Source Ab Initio Electronic Structure Package
                               Psi4 1.2.1 release

                         Git: Rev {HEAD} 406f4de 


    R. M. Parrish, L. A. Burns, D. G. A. Smith, A. C. Simmonett,
    A. E. DePrince III, E. G. Hohenstein, U. Bozkaya, A. Yu. Sokolov,
    R. Di Remigio, R. M. Richard, J. F. Gonthier, A. M. James,
    H. R. McAlexander, A. Kumar, M. Saitow, X. Wang, B. P. Pritchard,
    P. Verma, H. F. Schaefer III, K. Patkowski, R. A. King, E. F. Valeev,
    F. A. Evangelista, J. M. Turney, T. D. Crawford, and C. D. Sherrill,
    J. Chem. Theory Comput. 13(7) pp 3185--3197 (2017).
    (doi: 10.1021/acs.jctc.7b00174)


                         Additional Contributions by
    P. Kraus, H. Kruse, M. H. Lechner, M. C. Schieber, and R. A. Shaw

    -----------------------------------------------------------------------


    Psi4 started on: Saturday, 29 September 2018 08:36PM

    Process ID: 31357
    Host:       arancio.prib.upf.edu
    PSIDATADIR: /shared/joao/test_parameterize/miniconda3/share/psi4
    Memory:     500.0 MiB
    Threads:    1
    
  ==> Input File <==

--------------------------------------------------------------------------
set_num_threads(4)
set_memory('3000 MB')

set { scf_mem_safety_factor 0.7 }

set { reference rks }
set { basis 6-31G* }

molecule MOL {
    1 1
    noreorient
    nocom
    symmetry c1
    C   -0.000000  -0.000000  -0.177864
    C    0.036678   1.219374   0.524165
    C    0.031765   1.213120   1.915444
    C    0.000000   0.000000   2.610107
    C   -0.031765  -1.213120   1.915444
    C   -0.036678  -1.219375   0.524165
    C   -0.000000   0.000000  -1.644734
    H    0.018170   2.164705  -0.010854
    H    0.042402   2.152895   2.457886
    H    0.000000   0.000000   3.695756
    H   -0.042402  -2.152895   2.457886
    H   -0.018170  -2.164705  -0.010853
    N   -0.712590  -0.905950  -2.308461
    N    0.712590   0.905950  -2.308460
    H    0.673432   1.006470  -3.315997
    H    1.377190   1.485970  -1.813316
    H   -1.336789  -0.612786  -3.048538
    H   -0.615451  -1.902804  -2.154800
}

set optking { frozen_dihedral = (" 1 7 13 17 ") }

set optking { dynamic_level = 1 
 geom_maxiter = 250
 print_trajectory_xyz_file = True }

energy, wfn = optimize('B3LYP-D3', return_wfn=True)

import os
os.chdir(os.environ['HTMD_PSI4_WORKDIR'])

oeprop(wfn, 'DIPOLE', 'QUADRUPOLE', 'MULLIKEN_CHARGES')

with open('psi4out.xyz', 'w') as f:
    f.write('18 ' )
    f.write('%.12f\n' % energy)
    f.write(MOL.save_string_xyz())
--------------------------------------------------------------------------
  Threads set to 4 by Python driver.

  Memory set to   2.794 GiB by Python driver.
gradient() will perform analytic gradient computation.

*** tstart() called on arancio.prib.upf.edu
*** at Sat Sep 29 20:36:06 2018

   => Loading Basis Set <=

    Name: 6-31G*
    Role: ORBITAL
    Keyword: BASIS
    atoms 1-7         entry C          line   111 file /shared/joao/test_parameterize/miniconda3/share/psi4/basis/6-31gs.gbs 
    atoms 8-12, 15-18 entry H          line    44 file /shared/joao/test_parameterize/miniconda3/share/psi4/basis/6-31gs.gbs 
    atoms 13-14       entry N          line   128 file /shared/joao/test_parameterize/miniconda3/share/psi4/basis/6-31gs.gbs 


         ---------------------------------------------------------
                                   SCF
            by Justin Turney, Rob Parrish, Andy Simmonett
                             and Daniel Smith
                              RKS Reference
                        4 Threads,   2861 MiB Core
         ---------------------------------------------------------

  ==> Geometry <==

    Molecular point group: c1
    Full point group: C1

    Geometry (in Angstrom), charge = 1, multiplicity = 1:

       Center              X                  Y                   Z               Mass       
    ------------   -----------------  -----------------  -----------------  -----------------
         C            0.000000000000     0.000000000000    -0.177864000000    12.000000000000
         C            0.036678000000     1.219374000000     0.524165000000    12.000000000000
         C            0.031765000000     1.213120000000     1.915444000000    12.000000000000
         C            0.000000000000     0.000000000000     2.610107000000    12.000000000000
         C           -0.031765000000    -1.213120000000     1.915444000000    12.000000000000
         C           -0.036678000000    -1.219375000000     0.524165000000    12.000000000000
         C            0.000000000000     0.000000000000    -1.644734000000    12.000000000000
         H            0.018170000000     2.164705000000    -0.010854000000     1.007825032070
         H            0.042402000000     2.152895000000     2.457886000000     1.007825032070
         H            0.000000000000     0.000000000000     3.695756000000     1.007825032070
         H           -0.042402000000    -2.152895000000     2.457886000000     1.007825032070
         H           -0.018170000000    -2.164705000000    -0.010853000000     1.007825032070
         N           -0.712590000000    -0.905950000000    -2.308461000000    14.003074004780
         N            0.712590000000     0.905950000000    -2.308460000000    14.003074004780
         H            0.673432000000     1.006470000000    -3.315997000000     1.007825032070
         H            1.377190000000     1.485970000000    -1.813316000000     1.007825032070
         H           -1.336789000000    -0.612786000000    -3.048538000000     1.007825032070
         H           -0.615451000000    -1.902804000000    -2.154800000000     1.007825032070

  Running in c1 symmetry.

  Rotational constants: A =      0.12138  B =      0.03959  C =      0.03129 [cm^-1]
  Rotational constants: A =   3638.85274  B =   1186.82544  C =    937.96675 [MHz]
  Nuclear repulsion =  416.729089073665705

  Charge       = 1
  Multiplicity = 1
  Electrons    = 64
  Nalpha       = 32
  Nbeta        = 32

  ==> Algorithm <==

  SCF Algorithm Type is DF.
  DIIS enabled.
  MOM disabled.
  Fractional occupation disabled.
  Guess Type is SAD.
  Energy threshold   = 1.00e-08
  Density threshold  = 1.00e-08
  Integral threshold = 0.00e+00

  ==> Primary Basis <==

  Basis Set: 6-31G*
    Blend: 6-31G*
    Number of shells: 72
    Number of basis function: 153
    Number of Cartesian functions: 153
    Spherical Harmonics?: false
    Max angular momentum: 2

  ==> DFT Potential <==

   => Composite Functional: B3LYP-D3ZERO <= 

    B3LYP-d3zero Hyb-GGA Exchange-Correlation Functional

    P. J. Stephens, F. J. Devlin, C. F. Chabalowski, and M. J. Frisch, J. Phys. Chem. 98, 11623 (1994)

    Deriv               =              1
    GGA                 =           TRUE
    Meta                =          FALSE

    Exchange Hybrid     =           TRUE
    MP2 Hybrid          =          FALSE

   => Exchange Functionals <=

    0.0800   Slater exchange
    0.7200         Becke 88

   => Exact (HF) Exchange <=

    0.2000               HF 

   => Correlation Functionals <=

    0.1900   Vosko, Wilk & Nusair (VWN5_RPA)
    0.8100   Lee, Yang & Parr

   => Molecular Quadrature <=

    Radial Scheme       =       TREUTLER
    Pruning Scheme      =           FLAT
    Nuclear Scheme      =       TREUTLER

    BS radius alpha     =              1
    Pruning alpha       =              1
    Radial Points       =             75
    Spherical Points    =            302
    Total Points        =         396962
    Total Blocks        =           3020
    Max Points          =            256
    Max Functions       =            149

   => -D3ZERO: Empirical Dispersion <=

    Grimme's -D3 (zero-damping) Dispersion Correction
    Grimme S.; Antony J.; Ehrlich S.; Krieg H. (2010), J. Chem. Phys., 132: 154104

        S6 =   1.000000E+00
        S8 =   1.703000E+00
       SR6 =   1.261000E+00
       SR8 =   1.000000E+00
    ALPHA6 =   1.400000E+01

   => Loading Basis Set <=

    Name: (6-31G* AUX)
    Role: JKFIT
    Keyword: DF_BASIS_SCF
    atoms 1-7         entry C          line   121 file /shared/joao/test_parameterize/miniconda3/share/psi4/basis/cc-pvdz-jkfit.gbs 
    atoms 8-12, 15-18 entry H          line    51 file /shared/joao/test_parameterize/miniconda3/share/psi4/basis/cc-pvdz-jkfit.gbs 
    atoms 13-14       entry N          line   171 file /shared/joao/test_parameterize/miniconda3/share/psi4/basis/cc-pvdz-jkfit.gbs 

  ==> Pre-Iterations <==

   -------------------------------------------------------
    Irrep   Nso     Nmo     Nalpha   Nbeta   Ndocc  Nsocc
   -------------------------------------------------------
     A        153     153       0       0       0       0
   -------------------------------------------------------
    Total     153     153      32      32      32       0
   -------------------------------------------------------

  ==> Integral Setup <==

  ==> DiskDFJK: Density-Fitted J/K Matrices <==

    J tasked:                  Yes
    K tasked:                  Yes
    wK tasked:                  No
    OpenMP threads:              4
    Integrals threads:           4
    Memory (MB):              2002
    Algorithm:                Core
    Integral Cache:           NONE
    Schwarz Cutoff:          1E-12
    Fitting Condition:       1E-12

   => Auxiliary Basis Set <=

  Basis Set: (6-31G* AUX)
    Blend: CC-PVDZ-JKFIT
    Number of shells: 297
    Number of basis function: 954
    Number of Cartesian functions: 954
    Spherical Harmonics?: false
    Max angular momentum: 3

  Minimum eigenvalue in the overlap matrix is 4.8552441400E-04.
  Using Symmetric Orthogonalization.

  SCF Guess: Superposition of Atomic Densities via on-the-fly atomic UHF.

  ==> Iterations <==

                           Total Energy        Delta E     RMS |[F,P]|

   @DF-RKS iter   0:  -379.61796872674756   -3.79618e+02   6.73110e-02 
   @DF-RKS iter   1:  -380.99674353584913   -1.37877e+00   1.20198e-02 
   @DF-RKS iter   2:  -380.86381463603112    1.32929e-01   1.38728e-02 DIIS
   @DF-RKS iter   3:  -381.42673235806370   -5.62918e-01   2.13350e-03 DIIS
   @DF-RKS iter   4:  -381.43770751141381   -1.09752e-02   8.50266e-04 DIIS
   @DF-RKS iter   5:  -381.43940400611081   -1.69649e-03   2.83443e-04 DIIS
   @DF-RKS iter   6:  -381.43960568597981   -2.01680e-04   8.73749e-05 DIIS
   @DF-RKS iter   7:  -381.43962606602031   -2.03800e-05   1.78966e-05 DIIS
   @DF-RKS iter   8:  -381.43962689430373   -8.28283e-07   6.71316e-06 DIIS
   @DF-RKS iter   9:  -381.43962702494895   -1.30645e-07   2.37840e-06 DIIS
   @DF-RKS iter  10:  -381.43962704328425   -1.83353e-08   7.37750e-07 DIIS
   @DF-RKS iter  11:  -381.43962704496369   -1.67944e-09   8.35207e-08 DIIS
   @DF-RKS iter  12:  -381.43962704498341   -1.97247e-11   4.32575e-08 DIIS
   @DF-RKS iter  13:  -381.43962704498750   -4.09273e-12   2.51931e-08 DIIS
   @DF-RKS iter  14:  -381.43962704498898   -1.47793e-12   5.62830e-09 DIIS

  ==> Post-Iterations <==

    Orbital Energies [Eh]
    ---------------------

    Doubly Occupied:                                                      

       1A    -14.579249     2A    -14.541156     3A    -10.501352  
       4A    -10.372794     5A    -10.357263     6A    -10.356694  
       7A    -10.343203     8A    -10.340636     9A    -10.340526  
      10A     -1.182201    11A     -1.087401    12A     -1.014220  
      13A     -0.925864    14A     -0.902523    15A     -0.844034  
      16A     -0.780971    17A     -0.772195    18A     -0.741548  
      19A     -0.727657    20A     -0.701429    21A     -0.672977  
      22A     -0.629980    23A     -0.606376    24A     -0.588152  
      25A     -0.576956    26A     -0.564837    27A     -0.515745  
      28A     -0.507634    29A     -0.498597    30A     -0.457482  
      31A     -0.408452    32A     -0.404758  

    Virtual:                                                              

      33A     -0.240520    34A     -0.155325    35A     -0.143364  
      36A     -0.106851    37A     -0.077737    38A     -0.051049  
      39A     -0.038512    40A     -0.023379    41A      0.006943  
      42A      0.018095    43A      0.029311    44A      0.059844  
      45A      0.071104    46A      0.090917    47A      0.125997  
      48A      0.144227    49A      0.156776    50A      0.166909  
      51A      0.207409    52A      0.239956    53A      0.297916  
      54A      0.353091    55A      0.359049    56A      0.381668  
      57A      0.393964    58A      0.400138    59A      0.415900  
      60A      0.422286    61A      0.438906    62A      0.449345  
      63A      0.456946    64A      0.471067    65A      0.473785  
      66A      0.479674    67A      0.488094    68A      0.504351  
      69A      0.513202    70A      0.538376    71A      0.559033  
      72A      0.585215    73A      0.613436    74A      0.649211  
      75A      0.660505    76A      0.678568    77A      0.688073  
      78A      0.703874    79A      0.714990    80A      0.726599  
      81A      0.751092    82A      0.760664    83A      0.773882  
      84A      0.776105    85A      0.810986    86A      0.833041  
      87A      0.851479    88A      0.897086    89A      0.955842  
      90A      0.965680    91A      0.976848    92A      1.016540  
      93A      1.032718    94A      1.084986    95A      1.140519  
      96A      1.151932    97A      1.258691    98A      1.274862  
      99A      1.280526   100A      1.305035   101A      1.324294  
     102A      1.341928   103A      1.357848   104A      1.368081  
     105A      1.419851   106A      1.460465   107A      1.517778  
     108A      1.606548   109A      1.635369   110A      1.672324  
     111A      1.702634   112A      1.730262   113A      1.753173  
     114A      1.796043   115A      1.806597   116A      1.831828  
     117A      1.895146   118A      1.937379   119A      1.950321  
     120A      1.979321   121A      1.995661   122A      2.005306  
     123A      2.014971   124A      2.043036   125A      2.123912  
     126A      2.126078   127A      2.153110   128A      2.199192  
     129A      2.201806   130A      2.310115   131A      2.349199  
     132A      2.421145   133A      2.446358   134A      2.453528  
     135A      2.488352   136A      2.522270   137A      2.548709  
     138A      2.591060   139A      2.598579   140A      2.627991  
     141A      2.732666   142A      2.845044   143A      2.980942  
     144A      3.258163   145A      3.620738   146A      3.674142  
     147A      3.913318   148A      3.946682   149A      3.964098  
     150A      4.042810   151A      4.173758   152A      4.251676  
     153A      4.545596  

    Final Occupation by Irrep:
              A 
    DOCC [    32 ]

  Energy converged.

  @DF-RKS Final Energy:  -381.43962704498898

   => Energetics <=

    Nuclear Repulsion Energy =            416.7290890736657047
    One-Electron Energy =               -1328.6975778132627966
    Two-Electron Energy =                 574.9498486055381363
    DFT Exchange-Correlation Energy =     -44.4090473409300301
    Empirical Dispersion Energy =          -0.0119395700000000
    VV10 Nonlocal Energy =                  0.0000000000000000
    Total Energy =                       -381.4396270449889812



Properties will be evaluated at   0.000000,   0.000000,   0.000000 [a0]

Properties computed using the SCF density matrix

  Nuclear Dipole Moment: [e a0]
     X:     0.1859      Y:    -0.0438      Z:    -0.1151

  Electronic Dipole Moment: [e a0]
     X:    -0.0161      Y:     0.1725      Z:    -2.1151

  Dipole Moment: [e a0]
     X:     0.1698      Y:     0.1287      Z:    -2.2302     Total:     2.2404

  Dipole Moment: [D]
     X:     0.4317      Y:     0.3272      Z:    -5.6686     Total:     5.6944


*** tstop() called on arancio.prib.upf.edu at Sat Sep 29 20:36:31 2018
Module time:
	user time   =      88.44 seconds =       1.47 minutes
	system time =       0.55 seconds =       0.01 minutes
	total time  =         25 seconds =       0.42 minutes
Total time:
	user time   =      88.44 seconds =       1.47 minutes
	system time =       0.55 seconds =       0.01 minutes
	total time  =         25 seconds =       0.42 minutes

*** tstart() called on arancio.prib.upf.edu
*** at Sat Sep 29 20:36:31 2018


         ------------------------------------------------------------
                                   SCF GRAD                          
                          Rob Parrish, Justin Turney,                
                       Andy Simmonett, and Alex Sokolov              
         ------------------------------------------------------------

  ==> Geometry <==

    Molecular point group: c1
    Full point group: C1

    Geometry (in Angstrom), charge = 1, multiplicity = 1:

       Center              X                  Y                   Z               Mass       
    ------------   -----------------  -----------------  -----------------  -----------------
         C            0.000000000000     0.000000000000    -0.177864000000    12.000000000000
         C            0.036678000000     1.219374000000     0.524165000000    12.000000000000
         C            0.031765000000     1.213120000000     1.915444000000    12.000000000000
         C            0.000000000000     0.000000000000     2.610107000000    12.000000000000
         C           -0.031765000000    -1.213120000000     1.915444000000    12.000000000000
         C           -0.036678000000    -1.219375000000     0.524165000000    12.000000000000
         C            0.000000000000     0.000000000000    -1.644734000000    12.000000000000
         H            0.018170000000     2.164705000000    -0.010854000000     1.007825032070
         H            0.042402000000     2.152895000000     2.457886000000     1.007825032070
         H            0.000000000000     0.000000000000     3.695756000000     1.007825032070
         H           -0.042402000000    -2.152895000000     2.457886000000     1.007825032070
         H           -0.018170000000    -2.164705000000    -0.010853000000     1.007825032070
         N           -0.712590000000    -0.905950000000    -2.308461000000    14.003074004780
         N            0.712590000000     0.905950000000    -2.308460000000    14.003074004780
         H            0.673432000000     1.006470000000    -3.315997000000     1.007825032070
         H            1.377190000000     1.485970000000    -1.813316000000     1.007825032070
         H           -1.336789000000    -0.612786000000    -3.048538000000     1.007825032070
         H           -0.615451000000    -1.902804000000    -2.154800000000     1.007825032070

  Nuclear repulsion =  416.729089073665705

  ==> Basis Set <==

  Basis Set: 6-31G*
    Blend: 6-31G*
    Number of shells: 72
    Number of basis function: 153
    Number of Cartesian functions: 153
    Spherical Harmonics?: false
    Max angular momentum: 2

  ==> DFJKGrad: Density-Fitted SCF Gradients <==

    Gradient:                    1
    J tasked:                  Yes
    K tasked:                  Yes
    wK tasked:                  No
    OpenMP threads:              4
    Integrals threads:           4
    Memory (MB):              2002
    Schwarz Cutoff:          0E+00
    Fitting Condition:       1E-12

   => Auxiliary Basis Set <=

  Basis Set: (6-31G* AUX)
    Blend: CC-PVDZ-JKFIT
    Number of shells: 297
    Number of basis function: 954
    Number of Cartesian functions: 954
    Spherical Harmonics?: false
    Max angular momentum: 3

  ==> DFT Potential <==

   => Composite Functional: B3LYP-D3ZERO <= 

    B3LYP-d3zero Hyb-GGA Exchange-Correlation Functional

    P. J. Stephens, F. J. Devlin, C. F. Chabalowski, and M. J. Frisch, J. Phys. Chem. 98, 11623 (1994)

    Deriv               =              1
    GGA                 =           TRUE
    Meta                =          FALSE

    Exchange Hybrid     =           TRUE
    MP2 Hybrid          =          FALSE

   => Exchange Functionals <=

    0.0800   Slater exchange
    0.7200         Becke 88

   => Exact (HF) Exchange <=

    0.2000               HF 

   => Correlation Functionals <=

    0.1900   Vosko, Wilk & Nusair (VWN5_RPA)
    0.8100   Lee, Yang & Parr

   => Molecular Quadrature <=

    Radial Scheme       =       TREUTLER
    Pruning Scheme      =           FLAT
    Nuclear Scheme      =       TREUTLER

    BS radius alpha     =              1
    Pruning alpha       =              1
    Radial Points       =             75
    Spherical Points    =            302
    Total Points        =         396962
    Total Blocks        =           3020
    Max Points          =            256
    Max Functions       =            149


  -Total Gradient:
     Atom            X                  Y                   Z
    ------   -----------------  -----------------  -----------------
       1       -0.011666390787     0.004380826823     0.001258159251
       2       -0.002634001383    -0.000694563157    -0.000066428825
       3        0.001274084013     0.000498480328    -0.000581751888
       4       -0.000170242136    -0.001322413946    -0.000231183970
       5       -0.000567765416     0.001418269572     0.002186900102
       6        0.000754546788    -0.000897268976    -0.002601080789
       7       -0.021236867607    -0.010893097486    -0.015919859999
       8       -0.000269466802    -0.000075192193    -0.000152384260
       9        0.000291624179    -0.000056135899     0.000056376693
      10        0.000075672565     0.000003022045     0.000028232629
      11       -0.000010467187    -0.000017514296    -0.000043474174
      12        0.001359691437     0.000290534905    -0.001301415300
      13        0.017266032228     0.011807032490     0.023238268149
      14        0.010359269544    -0.002388822660    -0.005296717401
      15       -0.000794030375     0.003526045741     0.001447665904
      16        0.004052593253    -0.006097111964    -0.001455795015
      17       -0.007638650314     0.003885616745     0.009613599505
      18        0.009553645324    -0.003372654619    -0.010180349944


*** tstop() called on arancio.prib.upf.edu at Sat Sep 29 20:36:38 2018
Module time:
	user time   =      28.32 seconds =       0.47 minutes
	system time =       0.22 seconds =       0.00 minutes
	total time  =          7 seconds =       0.12 minutes
Total time:
	user time   =     116.83 seconds =       1.95 minutes
	system time =       0.78 seconds =       0.01 minutes
	total time  =         32 seconds =       0.53 minutes

			-----------------------------------------
			 OPTKING 2.0: for geometry optimizations 
			  - R.A. King,  Bethel University        
			-----------------------------------------
	At level 1: Red. Int., RFO, no backsteps, dynamic trust

	Internal coordinates to be generated automatically.
	Detected frag 1 with atoms:  1 2 3 4 5 6 7 8 9 10 11 12 13 14 15 16 17 18
	---Fragment 1 Bond Connectivity---
	 1 : 2 6 7
	 2 : 1 3 8
	 3 : 2 4 9
	 4 : 3 5 10
	 5 : 4 6 11
	 6 : 1 5 12
	 7 : 1 13 14
	 8 : 2
	 9 : 3
	 10 : 4
	 11 : 5
	 12 : 6
	 13 : 7 17 18
	 14 : 7 15 16
	 15 : 14
	 16 : 14
	 17 : 13
	 18 : 13

	Assuming in current code that numbering for constraints corresponds to unified fragment.
	Frozen dihedral atom list: 
	     1     7    13    17
	---Fragment 1 Geometry and Gradient---
	 C           0.0000000000        0.0000000000       -0.3361142489
	 C           0.0693113751        2.3042829136        0.9905282984
	 C           0.0600271506        2.2924645663        3.6196645829
	 C           0.0000000000        0.0000000000        4.9323874075
	 C          -0.0600271506       -2.2924645663        3.6196645829
	 C          -0.0693113751       -2.3042848033        0.9905282984
	 C           0.0000000000        0.0000000000       -3.1080968214
	 H           0.0343363238        4.0906996085       -0.0205110874
	 H           0.0801281675        4.0683819429        4.6447314059
	 H           0.0000000000        0.0000000000        6.9839666940
	 H          -0.0801281675       -4.0683819429        4.6447314059
	 H          -0.0343363238       -4.0906996085       -0.0205091977
	 N          -1.3465999450       -1.7119973901       -4.3623590784
	 N           1.3465999450        1.7119973901       -4.3623571887
	 H           1.2726020491        1.9019526610       -6.2663261875
	 H           2.6025119329        2.8080763417       -3.4266706324
	 H          -2.5261651075       -1.1579977181       -5.7609019257
	 H          -1.1630338382       -3.5957784446       -4.0719818711
	            -0.0116663908        0.0043808268        0.0012581593
	            -0.0026340014       -0.0006945632       -0.0000664288
	             0.0012740840        0.0004984803       -0.0005817519
	            -0.0001702421       -0.0013224139       -0.0002311840
	            -0.0005677654        0.0014182696        0.0021869001
	             0.0007545468       -0.0008972690       -0.0026010808
	            -0.0212368676       -0.0108930975       -0.0159198600
	            -0.0002694668       -0.0000751922       -0.0001523843
	             0.0002916242       -0.0000561359        0.0000563767
	             0.0000756726        0.0000030220        0.0000282326
	            -0.0000104672       -0.0000175143       -0.0000434742
	             0.0013596914        0.0002905349       -0.0013014153
	             0.0172660322        0.0118070325        0.0232382681
	             0.0103592695       -0.0023888227       -0.0052967174
	            -0.0007940304        0.0035260457        0.0014476659
	             0.0040525933       -0.0060971120       -0.0014557950
	            -0.0076386503        0.0038856167        0.0096135995
	             0.0095536453       -0.0033726546       -0.0101803499

	Previous optimization step data not found.  Starting new optimization.

	---Fragment 1 Intrafragment Coordinates---
	 - Coordinate -           - BOHR/RAD -       - ANG/DEG -
	 R(1,2)           =         2.659794	       1.407502
	 R(1,6)           =         2.659796	       1.407503
	 R(1,7)           =         2.771983	       1.466870
	 R(2,3)           =         2.629179	       1.391302
	 R(2,8)           =         2.052976	       1.086388
	 R(3,4)           =         2.642393	       1.398294
	 R(3,9)           =         2.050622	       1.085142
	 R(4,5)           =         2.642393	       1.398294
	 R(4,10)          =         2.051579	       1.085649
	 R(5,6)           =         2.629179	       1.391302
	 R(5,11)          =         2.050622	       1.085142
	 R(6,12)          =         2.052973	       1.086386
	 R(7,13)          =         2.513452	       1.330061
	 R(7,14)          =         2.513451	       1.330061
	 R(13,17)         =         1.911599	       1.011575
	 R(13,18)         =         1.914849	       1.013294
	 R(14,15)         =         1.914852	       1.013296
	 R(14,16)         =         1.911600	       1.011575
	 B(1,2,3)         =         2.088380	     119.655376
	 B(1,2,8)         =         2.103396	     120.515689
	 B(1,6,5)         =         2.088379	     119.655315
	 B(1,6,12)        =         2.103396	     120.515729
	 B(1,7,13)        =         2.093264	     119.935172
	 B(1,7,14)        =         2.093263	     119.935135
	 B(2,1,6)         =         2.097220	     120.161857
	 B(2,1,7)         =         2.092983	     119.919082
	 B(2,3,4)         =         2.095279	     120.050636
	 B(2,3,9)         =         2.089719	     119.732108
	 B(3,2,8)         =         2.090149	     119.756722
	 B(3,4,5)         =         2.101793	     120.423859
	 B(3,4,10)        =         2.090696	     119.788070
	 B(4,3,9)         =         2.098135	     120.214297
	 B(4,5,6)         =         2.095280	     120.050677
	 B(4,5,11)        =         2.098135	     120.214297
	 B(5,4,10)        =         2.090696	     119.788070
	 B(5,6,12)        =         2.090149	     119.756743
	 B(6,1,7)         =         2.092982	     119.919061
	 B(6,5,11)        =         2.089719	     119.732067
	 B(7,13,17)       =         2.092411	     119.886321
	 B(7,13,18)       =         2.144860	     122.891425
	 B(7,14,15)       =         2.144860	     122.891405
	 B(7,14,16)       =         2.092412	     119.886393
	 B(13,7,14)       =         2.096659	     120.129694
	 B(15,14,16)      =         2.043399	     117.078146
	 B(17,13,18)      =         2.043400	     117.078196
	 D(1,2,3,4)       =         0.007799	       0.446825
	 D(1,2,3,9)       =        -3.122896	    -178.928735
	 D(1,6,5,4)       =         0.007799	       0.446822
	 D(1,6,5,11)      =        -3.122896	    -178.928737
	*D(1,7,13,17)     =         2.268928	     129.999987
	 D(1,7,13,18)     =        -0.951082	     -54.492957
	 D(1,7,14,15)     =        -3.032165	    -173.730230
	 D(1,7,14,16)     =         0.187844	      10.762681
	 D(2,1,6,5)       =        -0.003906	      -0.223802
	 D(2,1,6,12)      =        -3.091437	    -177.126283
	 D(2,1,7,13)      =        -2.505167	    -143.535494
	 D(2,1,7,14)      =         0.636426	      36.464506
	 D(2,3,4,5)       =        -0.003942	      -0.225875
	 D(2,3,4,10)      =         3.137650	     179.774125
	 D(3,2,1,6)       =        -0.003906	      -0.223806
	 D(3,2,1,7)       =         3.137687	     179.776196
	 D(3,4,5,6)       =        -0.003942	      -0.225874
	 D(3,4,5,11)      =         3.126699	     179.146646
	 D(4,3,2,8)       =         3.095744	     177.373058
	 D(4,5,6,12)      =         3.095744	     177.373055
	 D(5,4,3,9)       =         3.126699	     179.146646
	 D(5,6,1,7)       =         3.137687	     179.776197
	 D(6,1,2,8)       =        -3.091437	    -177.126287
	 D(6,1,7,13)      =         0.636426	      36.464508
	 D(6,1,7,14)      =        -2.505167	    -143.535492
	 D(6,5,4,10)      =         3.137650	     179.774126
	 D(7,1,2,8)       =         0.050156	       2.873714
	 D(7,1,6,12)      =         0.050156	       2.873716
	 D(8,2,3,9)       =        -0.034950	      -2.002503
	 D(9,3,4,10)      =        -0.014894	      -0.853354
	 D(10,4,5,11)     =        -0.014894	      -0.853354
	 D(11,5,6,12)     =        -0.034950	      -2.002504
	 D(13,7,14,15)    =         0.109428	       6.269770
	 D(13,7,14,16)    =        -2.953748	    -169.237319
	 D(14,7,13,17)    =        -0.872665	     -50.000013
	 D(14,7,13,18)    =         2.190511	     125.507043

	Current energy   :      -381.4396270450

	Generating empirical Hessian (Schlegel '84) for each fragment.
	Taking RFO optimization step.
	Going to follow RFO solution 1.
	Using RFO vector 1.

	Determining step-restricting scale parameter for RS-RFO.
	Maximum step size allowed    0.50000

	 Iter      |step|        alpha        rfo_root  
	------------------------------------------------
	    0     0.61841       1.00000           1
	    1     0.52716       1.59120           1
	    2     0.50202       1.81720           1
	    3     0.50001       1.83683           1
	    4     0.50000       1.83695           1
	------------------------------------------------
	Norm of target step-size    0.50000
	Projected energy change by RFO approximation:        -0.0080346326

	Back-transformation to cartesian coordinates...
	Could not converge backtransformation.
	Using first guess instead.

	Back-transformation to cartesian coordinates to adjust frozen coordinates...
	Successfully converged to displaced geometry.

	--- Internal Coordinate Step in ANG or DEG, aJ/ANG or AJ/DEG ---
	 ---------------------------------------------------------------------------
	   Coordinate                Previous        Force       Change         New 
	   ----------                --------       ------       ------       ------
	    1 R(1,2)          =      1.407502     0.009603     0.001587     1.409089
	    2 R(1,6)          =      1.407503     0.011413     0.002319     1.409822
	    3 R(1,7)          =      1.466870     0.011924     0.002023     1.468893
	    4 R(2,3)          =      1.391302     0.001459     0.000731     1.392033
	    5 R(2,8)          =      1.086388    -0.000116     0.000439     1.086827
	    6 R(3,4)          =      1.398294    -0.006784    -0.000414     1.397880
	    7 R(3,9)          =      1.085142     0.000145     0.000152     1.085294
	    8 R(4,5)          =      1.398294     0.006364     0.000942     1.399236
	    9 R(4,10)         =      1.085649    -0.000233     0.000280     1.085929
	   10 R(5,6)          =      1.391302    -0.013130    -0.001499     1.389803
	   11 R(5,11)         =      1.085142     0.000052     0.000575     1.085717
	   12 R(6,12)         =      1.086386    -0.003389     0.000098     1.086484
	   13 R(7,13)         =      1.330061     0.247028     0.026723     1.356784
	   14 R(7,14)         =      1.330061    -0.054101    -0.000080     1.329981
	   15 R(13,17)        =      1.011575     0.009830     0.001605     1.013180
	   16 R(13,18)        =      1.013294    -0.022151     0.010037     1.023331
	   17 R(14,15)        =      1.013296     0.008728     0.001185     1.014481
	   18 R(14,16)        =      1.011575     0.012727     0.014345     1.025920
	   19 B(1,2,3)        =    119.655376     0.000035     0.089031   119.744407
	   20 B(1,2,8)        =    120.515689    -0.000005    -0.009283   120.506406
	   21 B(1,6,5)        =    119.655315     0.000053     0.165937   119.821252
	   22 B(1,6,12)       =    120.515729     0.000075     0.373321   120.889050
	   23 B(1,7,13)       =    119.935172     0.000779     2.088591   122.023763
	   24 B(1,7,14)       =    119.935135    -0.000451    -1.405657   118.529478
	   25 B(2,1,6)        =    120.161857    -0.000104    -0.268853   119.893004
	   26 B(2,1,7)        =    119.919082    -0.000189    -0.533627   119.385455
	   27 B(2,3,4)        =    120.050636     0.000006     0.033639   120.084275
	   28 B(2,3,9)        =    119.732108    -0.000009    -0.045069   119.687039
	   29 B(3,2,8)        =    119.756722    -0.000032    -0.109136   119.647586
	   30 B(3,4,5)        =    120.423859    -0.000007    -0.046692   120.377168
	   31 B(3,4,10)       =    119.788070     0.000004     0.040294   119.828365
	   32 B(4,3,9)        =    120.214297     0.000003     0.013289   120.227585
	   33 B(4,5,6)        =    120.050677     0.000017     0.014928   120.065605
	   34 B(4,5,11)       =    120.214297    -0.000012    -0.024425   120.189872
	   35 B(5,4,10)       =    119.788070     0.000003     0.005909   119.793979
	   36 B(5,6,12)       =    119.756743    -0.000126    -0.508078   119.248665
	   37 B(6,1,7)        =    119.919061     0.000294     0.799693   120.718755
	   38 B(6,5,11)       =    119.732067    -0.000005     0.012456   119.744522
	   39 B(7,13,17)      =    119.886321     0.000369     1.666929   121.553250
	   40 B(7,13,18)      =    122.891425    -0.000232    -1.457317   121.434108
	   41 B(7,14,15)      =    122.891405    -0.000233    -1.002818   121.888587
	   42 B(7,14,16)      =    119.886393     0.000166     1.142517   121.028909
	   43 B(13,7,14)      =    120.129694    -0.000327    -1.044099   119.085594
	   44 B(15,14,16)     =    117.078146     0.000085     0.004347   117.082492
	   45 B(17,13,18)     =    117.078196    -0.000094    -0.341481   116.736715
	   46 D(1,2,3,4)      =      0.446825     0.000010     0.805237     1.252062
	   47 D(1,2,3,9)      =   -178.928735     0.000007     0.561525  -178.367210
	   48 D(1,6,5,4)      =      0.446822     0.000007     0.514097     0.960919
	   49 D(1,6,5,11)     =   -178.928737    -0.000001    -0.104250  -179.032988
	   50 *D(1,7,13,17)   =    129.999987    -0.000000    -0.000000   129.999987
	   51 D(1,7,13,18)    =    -54.492957     0.000154    10.724189   -43.768769
	   52 D(1,7,14,15)    =   -173.730230     0.000001     0.307846  -173.422384
	   53 D(1,7,14,16)    =     10.762681    -0.000060    -4.144946     6.617735
	   54 D(2,1,6,5)      =     -0.223802    -0.000002    -0.154262    -0.378064
	   55 D(2,1,6,12)     =   -177.126283    -0.000011    -0.904444  -178.030727
	   56 D(2,1,7,13)     =   -143.535494     0.000009    -0.006628  -143.542122
	   57 D(2,1,7,14)     =     36.464506    -0.000080    -6.972914    29.491592
	   58 D(2,3,4,5)      =     -0.225875    -0.000006    -0.448858    -0.674734
	   59 D(2,3,4,10)     =    179.774125    -0.000002    -0.194135   179.579989
	   60 D(3,2,1,6)      =     -0.223806    -0.000007    -0.506195    -0.730001
	   61 D(3,2,1,7)      =    179.776196    -0.000014    -1.109008   178.667187
	   62 D(3,4,5,6)      =     -0.225874    -0.000003    -0.216810    -0.442684
	   63 D(3,4,5,11)     =    179.146646     0.000005     0.404548   179.551194
	   64 D(4,3,2,8)      =    177.373058     0.000003     0.233335   177.606393
	   65 D(4,5,6,12)     =    177.373055     0.000017     1.279138   178.652194
	   66 D(5,4,3,9)      =    179.146646    -0.000003    -0.204184   178.942463
	   67 D(5,6,1,7)      =    179.776197     0.000005     0.456723   180.232920
	   68 D(6,1,2,8)      =   -177.126287     0.000001     0.073785  -177.052502
	   69 D(6,1,7,13)     =     36.464508     0.000002    -0.614542    35.849966
	   70 D(6,1,7,14)     =   -143.535492    -0.000087    -7.580828  -151.116320
	   71 D(6,5,4,10)     =    179.774126    -0.000006    -0.471445   179.302680
	   72 D(7,1,2,8)      =      2.873714    -0.000006    -0.529028     2.344686
	   73 D(7,1,6,12)     =      2.873716    -0.000004    -0.293459     2.580257
	   74 D(8,2,3,9)      =     -2.002503    -0.000000    -0.010377    -2.012879
	   75 D(9,3,4,10)     =     -0.853354     0.000001     0.050539    -0.802814
	   76 D(10,4,5,11)    =     -0.853354     0.000002     0.149913    -0.703441
	   77 D(11,5,6,12)    =     -2.002504     0.000009     0.660791    -1.341712
	   78 D(13,7,14,15)   =      6.269770    -0.000088    -6.449668    -0.179898
	   79 D(13,7,14,16)   =   -169.237319    -0.000149   -10.902460  -180.139779
	   80 D(14,7,13,17)   =    -50.000013     0.000089     7.003755   -42.996258
	   81 D(14,7,13,18)   =    125.507043     0.000243    17.727944   143.234987
	 ---------------------------------------------------------------------------
	Successfully symmetrized geometry.

  ==> Convergence Check <==

  Measures of convergence in internal coordinates in au.
  Criteria marked as inactive (o), active & met (*), and active & unmet ( ).
  --------------------------------------------------------------------------------------------- ~
   Step     Total Energy     Delta E     MAX Force     RMS Force      MAX Disp      RMS Disp    ~
  --------------------------------------------------------------------------------------------- ~
    Convergence Criteria    1.00e-06 *    3.00e-04 *             o    1.20e-03 *             o  ~
  --------------------------------------------------------------------------------------------- ~
      1    -381.43962704   -3.81e+02      3.00e-02      4.52e-03 o    3.09e-01      5.48e-02 o  ~
  ---------------------------------------------------------------------------------------------

	Writing optimization data to binary file.
	Structure for next step:
	Cartesian Geometry (in Angstrom)
	    C     0.0427448495  -0.0350305838  -0.1805575081
	    C     0.0970472173   1.1932411813   0.5078692551
	    C     0.0606838860   1.2072437671   1.8993569050
	    C    -0.0029708339   0.0056224838   2.6107799598
	    C    -0.0447940624  -1.2172078580   1.9319581012
	    C    -0.0324763157  -1.2430047958   0.5424493777
	    C     0.0519351708  -0.0390301632  -1.6494161920
	    H     0.1070668401   2.1323201266  -0.0391436163
	    H     0.0757334092   2.1550034307   2.4279285665
	    H    -0.0242571432   0.0211224132   3.6963895397
	    H    -0.0868613085  -2.1489847491   2.4876585107
	    H    -0.0430852048  -2.2005392629   0.0291629943
	    N    -0.6705057128  -0.9324970025  -2.3709834312
	    N     0.6790479335   0.9476985554  -2.2834072434
	    H     0.6350317202   1.0501483715  -3.2917419696
	    H     1.2317278810   1.6409258009  -1.7671785102
	    H    -1.2764640499  -0.6368788732  -3.1272624133
	    H    -0.7012222761  -1.9233038419  -2.1168863260
			--------------------------
			 OPTKING Finished Execution 
			--------------------------

    Structure for next step:
    Molecular point group: c1
    Full point group: C1

    Geometry (in Angstrom), charge = 1, multiplicity = 1:

    C            0.042744849497    -0.035030583800    -0.180557508059
    C            0.097047217252     1.193241181329     0.507869255138
    C            0.060683885985     1.207243767149     1.899356905049
    C           -0.002970833897     0.005622483839     2.610779959754
    C           -0.044794062443    -1.217207857972     1.931958101232
    C           -0.032476315748    -1.243004795824     0.542449377744
    C            0.051935170784    -0.039030163228    -1.649416191987
    H            0.107066840055     2.132320126556    -0.039143616300
    H            0.075733409179     2.155003430718     2.427928566510
    H           -0.024257143178     0.021122413192     3.696389539662
    H           -0.086861308549    -2.148984749053     2.487658510737
    H           -0.043085204836    -2.200539262947     0.029162994285
    N           -0.670505712803    -0.932497002539    -2.370983431217
    N            0.679047933459     0.947698555401    -2.283407243413
    H            0.635031720223     1.050148371501    -3.291741969577
    H            1.231727881028     1.640925800872    -1.767178510247
    H           -1.276464049936    -0.636878873247    -3.127262413304
    H           -0.701222276072    -1.923303841946    -2.116886326006

gradient() will perform analytic gradient computation.

*** tstart() called on arancio.prib.upf.edu
*** at Sat Sep 29 20:36:39 2018

   => Loading Basis Set <=

    Name: 6-31G*
    Role: ORBITAL
    Keyword: BASIS
    atoms 1-7         entry C          line   111 file /shared/joao/test_parameterize/miniconda3/share/psi4/basis/6-31gs.gbs 
    atoms 8-12, 15-18 entry H          line    44 file /shared/joao/test_parameterize/miniconda3/share/psi4/basis/6-31gs.gbs 
    atoms 13-14       entry N          line   128 file /shared/joao/test_parameterize/miniconda3/share/psi4/basis/6-31gs.gbs 


         ---------------------------------------------------------
                                   SCF
            by Justin Turney, Rob Parrish, Andy Simmonett
                             and Daniel Smith
                              RKS Reference
                        4 Threads,   2861 MiB Core
         ---------------------------------------------------------

  ==> Geometry <==

    Molecular point group: c1
    Full point group: C1

    Geometry (in Angstrom), charge = 1, multiplicity = 1:

       Center              X                  Y                   Z               Mass       
    ------------   -----------------  -----------------  -----------------  -----------------
         C            0.042744849497    -0.035030583800    -0.180557508059    12.000000000000
         C            0.097047217252     1.193241181329     0.507869255138    12.000000000000
         C            0.060683885985     1.207243767149     1.899356905049    12.000000000000
         C           -0.002970833897     0.005622483839     2.610779959754    12.000000000000
         C           -0.044794062443    -1.217207857972     1.931958101232    12.000000000000
         C           -0.032476315748    -1.243004795824     0.542449377744    12.000000000000
         C            0.051935170784    -0.039030163228    -1.649416191987    12.000000000000
         H            0.107066840055     2.132320126556    -0.039143616300     1.007825032070
         H            0.075733409179     2.155003430718     2.427928566510     1.007825032070
         H           -0.024257143178     0.021122413192     3.696389539662     1.007825032070
         H           -0.086861308549    -2.148984749053     2.487658510737     1.007825032070
         H           -0.043085204836    -2.200539262947     0.029162994285     1.007825032070
         N           -0.670505712803    -0.932497002539    -2.370983431217    14.003074004780
         N            0.679047933459     0.947698555401    -2.283407243413    14.003074004780
         H            0.635031720223     1.050148371501    -3.291741969577     1.007825032070
         H            1.231727881028     1.640925800872    -1.767178510247     1.007825032070
         H           -1.276464049936    -0.636878873247    -3.127262413304     1.007825032070
         H           -0.701222276072    -1.923303841946    -2.116886326006     1.007825032070

  Running in c1 symmetry.

  Rotational constants: A =      0.12081  B =      0.03954  C =      0.03096 [cm^-1]
  Rotational constants: A =   3621.78060  B =   1185.27467  C =    928.17960 [MHz]
  Nuclear repulsion =  415.707726385172691

  Charge       = 1
  Multiplicity = 1
  Electrons    = 64
  Nalpha       = 32
  Nbeta        = 32

  ==> Algorithm <==

  SCF Algorithm Type is DF.
  DIIS enabled.
  MOM disabled.
  Fractional occupation disabled.
  Guess Type is READ.
  Energy threshold   = 1.00e-08
  Density threshold  = 1.00e-08
  Integral threshold = 0.00e+00

  ==> Primary Basis <==

  Basis Set: 6-31G*
    Blend: 6-31G*
    Number of shells: 72
    Number of basis function: 153
    Number of Cartesian functions: 153
    Spherical Harmonics?: false
    Max angular momentum: 2

  ==> DFT Potential <==

   => Composite Functional: B3LYP-D3ZERO <= 

    B3LYP-d3zero Hyb-GGA Exchange-Correlation Functional

    P. J. Stephens, F. J. Devlin, C. F. Chabalowski, and M. J. Frisch, J. Phys. Chem. 98, 11623 (1994)

    Deriv               =              1
    GGA                 =           TRUE
    Meta                =          FALSE

    Exchange Hybrid     =           TRUE
    MP2 Hybrid          =          FALSE

   => Exchange Functionals <=

    0.0800   Slater exchange
    0.7200         Becke 88

   => Exact (HF) Exchange <=

    0.2000               HF 

   => Correlation Functionals <=

    0.1900   Vosko, Wilk & Nusair (VWN5_RPA)
    0.8100   Lee, Yang & Parr

   => Molecular Quadrature <=

    Radial Scheme       =       TREUTLER
    Pruning Scheme      =           FLAT
    Nuclear Scheme      =       TREUTLER

    BS radius alpha     =              1
    Pruning alpha       =              1
    Radial Points       =             75
    Spherical Points    =            302
    Total Points        =         396901
    Total Blocks        =           3009
    Max Points          =            256
    Max Functions       =            149

   => -D3ZERO: Empirical Dispersion <=

    Grimme's -D3 (zero-damping) Dispersion Correction
    Grimme S.; Antony J.; Ehrlich S.; Krieg H. (2010), J. Chem. Phys., 132: 154104

        S6 =   1.000000E+00
        S8 =   1.703000E+00
       SR6 =   1.261000E+00
       SR8 =   1.000000E+00
    ALPHA6 =   1.400000E+01

   => Loading Basis Set <=

    Name: (6-31G* AUX)
    Role: JKFIT
    Keyword: DF_BASIS_SCF
    atoms 1-7         entry C          line   121 file /shared/joao/test_parameterize/miniconda3/share/psi4/basis/cc-pvdz-jkfit.gbs 
    atoms 8-12, 15-18 entry H          line    51 file /shared/joao/test_parameterize/miniconda3/share/psi4/basis/cc-pvdz-jkfit.gbs 
    atoms 13-14       entry N          line   171 file /shared/joao/test_parameterize/miniconda3/share/psi4/basis/cc-pvdz-jkfit.gbs 

  Reading orbitals from file 180, no projection.

  ==> Pre-Iterations <==

   -------------------------------------------------------
    Irrep   Nso     Nmo     Nalpha   Nbeta   Ndocc  Nsocc
   -------------------------------------------------------
     A        153     153       0       0       0       0
   -------------------------------------------------------
    Total     153     153      32      32      32       0
   -------------------------------------------------------

  ==> Integral Setup <==

  ==> DiskDFJK: Density-Fitted J/K Matrices <==

    J tasked:                  Yes
    K tasked:                  Yes
    wK tasked:                  No
    OpenMP threads:              4
    Integrals threads:           4
    Memory (MB):              2002
    Algorithm:                Core
    Integral Cache:           NONE
    Schwarz Cutoff:          1E-12
    Fitting Condition:       1E-12

   => Auxiliary Basis Set <=

  Basis Set: (6-31G* AUX)
    Blend: CC-PVDZ-JKFIT
    Number of shells: 297
    Number of basis function: 954
    Number of Cartesian functions: 954
    Spherical Harmonics?: false
    Max angular momentum: 3

  Minimum eigenvalue in the overlap matrix is 4.8609363386E-04.
  Using Symmetric Orthogonalization.

  SCF Guess: Orbitals guess was supplied from a previous computation.

  ==> Iterations <==

                           Total Energy        Delta E     RMS |[F,P]|

   @DF-RKS iter   0:  -381.40439356880626   -3.81404e+02   2.53258e-03 
   @DF-RKS iter   1:  -381.44797325462014   -4.35797e-02   3.93147e-04 
   @DF-RKS iter   2:  -381.44749468096080    4.78574e-04   5.76629e-04 DIIS
   @DF-RKS iter   3:  -381.44850732327194   -1.01264e-03   1.01577e-04 DIIS
   @DF-RKS iter   4:  -381.44853272154580   -2.53983e-05   4.30587e-05 DIIS
   @DF-RKS iter   5:  -381.44853804388475   -5.32234e-06   1.38544e-05 DIIS
   @DF-RKS iter   6:  -381.44853861753273   -5.73648e-07   5.52521e-06 DIIS
   @DF-RKS iter   7:  -381.44853869810777   -8.05750e-08   1.39767e-06 DIIS
   @DF-RKS iter   8:  -381.44853870375829   -5.65052e-09   4.04179e-07 DIIS
   @DF-RKS iter   9:  -381.44853870415267   -3.94380e-10   1.43620e-07 DIIS
   @DF-RKS iter  10:  -381.44853870420911   -5.64455e-11   5.27054e-08 DIIS
   @DF-RKS iter  11:  -381.44853870421781   -8.69704e-12   2.08446e-08 DIIS
   @DF-RKS iter  12:  -381.44853870422003   -2.21689e-12   3.13005e-09 DIIS

  ==> Post-Iterations <==

    Orbital Energies [Eh]
    ---------------------

    Doubly Occupied:                                                      

       1A    -14.577708     2A    -14.550450     3A    -10.502449  
       4A    -10.375605     5A    -10.359431     6A    -10.357666  
       7A    -10.344098     8A    -10.341984     9A    -10.341312  
      10A     -1.177276    11A     -1.082488    12A     -1.014859  
      13A     -0.926352    14A     -0.903713    15A     -0.843751  
      16A     -0.780432    17A     -0.771988    18A     -0.737518  
      19A     -0.729313    20A     -0.692882    21A     -0.670659  
      22A     -0.631367    23A     -0.607532    24A     -0.588605  
      25A     -0.578180    26A     -0.570050    27A     -0.515646  
      28A     -0.509091    29A     -0.499676    30A     -0.461785  
      31A     -0.409394    32A     -0.406174  

    Virtual:                                                              

      33A     -0.235322    34A     -0.156412    35A     -0.141091  
      36A     -0.110469    37A     -0.078640    38A     -0.059081  
      39A     -0.038334    40A     -0.027134    41A      0.007159  
      42A      0.020772    43A      0.027037    44A      0.061483  
      45A      0.068787    46A      0.084780    47A      0.121137  
      48A      0.135440    49A      0.155313    50A      0.171258  
      51A      0.208695    52A      0.232617    53A      0.298263  
      54A      0.351689    55A      0.358638    56A      0.379226  
      57A      0.390361    58A      0.398867    59A      0.416234  
      60A      0.420909    61A      0.437724    62A      0.449142  
      63A      0.457358    64A      0.470065    65A      0.472883  
      66A      0.475191    67A      0.485267    68A      0.498766  
      69A      0.508953    70A      0.549077    71A      0.555961  
      72A      0.585689    73A      0.611766    74A      0.643199  
      75A      0.658775    76A      0.675539    77A      0.690714  
      78A      0.703566    79A      0.714938    80A      0.725437  
      81A      0.749741    82A      0.772063    83A      0.774738  
      84A      0.790412    85A      0.815547    86A      0.836599  
      87A      0.851220    88A      0.911357    89A      0.962593  
      90A      0.969101    91A      0.985739    92A      1.023845  
      93A      1.035249    94A      1.083441    95A      1.130763  
      96A      1.146653    97A      1.249998    98A      1.274640  
      99A      1.282674   100A      1.306238   101A      1.326595  
     102A      1.332956   103A      1.347892   104A      1.359683  
     105A      1.406618   106A      1.450193   107A      1.541575  
     108A      1.589752   109A      1.624176   110A      1.654110  
     111A      1.701205   112A      1.732043   113A      1.744100  
     114A      1.798566   115A      1.805442   116A      1.832250  
     117A      1.891952   118A      1.927049   119A      1.936503  
     120A      1.975743   121A      1.990783   122A      2.000414  
     123A      2.017694   124A      2.038909   125A      2.117932  
     126A      2.123062   127A      2.151702   128A      2.186661  
     129A      2.195293   130A      2.306833   131A      2.320805  
     132A      2.392089   133A      2.442364   134A      2.451979  
     135A      2.484061   136A      2.516919   137A      2.537152  
     138A      2.589970   139A      2.599575   140A      2.622533  
     141A      2.730237   142A      2.836853   143A      2.978253  
     144A      3.254519   145A      3.620609   146A      3.654619  
     147A      3.910321   148A      3.945435   149A      3.962367  
     150A      4.042162   151A      4.171244   152A      4.251147  
     153A      4.543184  

    Final Occupation by Irrep:
              A 
    DOCC [    32 ]

  Energy converged.

  @DF-RKS Final Energy:  -381.44853870422003

   => Energetics <=

    Nuclear Repulsion Energy =            415.7077263851726912
    One-Electron Energy =               -1326.6614184670650047
    Two-Electron Energy =                 573.9003153941160917
    DFT Exchange-Correlation Energy =     -44.3833705464438850
    Empirical Dispersion Energy =          -0.0117914700000000
    VV10 Nonlocal Energy =                  0.0000000000000000
    Total Energy =                       -381.4485387042200841



Properties will be evaluated at   0.000000,   0.000000,   0.000000 [a0]

Properties computed using the SCF density matrix

  Nuclear Dipole Moment: [e a0]
     X:     1.9095      Y:    -1.0824      Z:    -0.5805

  Electronic Dipole Moment: [e a0]
     X:    -1.8899      Y:     1.2354      Z:    -1.5840

  Dipole Moment: [e a0]
     X:     0.0197      Y:     0.1531      Z:    -2.1645     Total:     2.1700

  Dipole Moment: [D]
     X:     0.0500      Y:     0.3891      Z:    -5.5016     Total:     5.5156


*** tstop() called on arancio.prib.upf.edu at Sat Sep 29 20:37:00 2018
Module time:
	user time   =      78.01 seconds =       1.30 minutes
	system time =       0.35 seconds =       0.01 minutes
	total time  =         21 seconds =       0.35 minutes
Total time:
	user time   =     195.92 seconds =       3.27 minutes
	system time =       1.18 seconds =       0.02 minutes
	total time  =         54 seconds =       0.90 minutes

*** tstart() called on arancio.prib.upf.edu
*** at Sat Sep 29 20:37:00 2018


         ------------------------------------------------------------
                                   SCF GRAD                          
                          Rob Parrish, Justin Turney,                
                       Andy Simmonett, and Alex Sokolov              
         ------------------------------------------------------------

  ==> Geometry <==

    Molecular point group: c1
    Full point group: C1

    Geometry (in Angstrom), charge = 1, multiplicity = 1:

       Center              X                  Y                   Z               Mass       
    ------------   -----------------  -----------------  -----------------  -----------------
         C            0.042744849497    -0.035030583800    -0.180557508059    12.000000000000
         C            0.097047217252     1.193241181329     0.507869255138    12.000000000000
         C            0.060683885985     1.207243767149     1.899356905049    12.000000000000
         C           -0.002970833897     0.005622483839     2.610779959754    12.000000000000
         C           -0.044794062443    -1.217207857972     1.931958101232    12.000000000000
         C           -0.032476315748    -1.243004795824     0.542449377744    12.000000000000
         C            0.051935170784    -0.039030163228    -1.649416191987    12.000000000000
         H            0.107066840055     2.132320126556    -0.039143616300     1.007825032070
         H            0.075733409179     2.155003430718     2.427928566510     1.007825032070
         H           -0.024257143178     0.021122413192     3.696389539662     1.007825032070
         H           -0.086861308549    -2.148984749053     2.487658510737     1.007825032070
         H           -0.043085204836    -2.200539262947     0.029162994285     1.007825032070
         N           -0.670505712803    -0.932497002539    -2.370983431217    14.003074004780
         N            0.679047933459     0.947698555401    -2.283407243413    14.003074004780
         H            0.635031720223     1.050148371501    -3.291741969577     1.007825032070
         H            1.231727881028     1.640925800872    -1.767178510247     1.007825032070
         H           -1.276464049936    -0.636878873247    -3.127262413304     1.007825032070
         H           -0.701222276072    -1.923303841946    -2.116886326006     1.007825032070

  Nuclear repulsion =  415.707726385172691

  ==> Basis Set <==

  Basis Set: 6-31G*
    Blend: 6-31G*
    Number of shells: 72
    Number of basis function: 153
    Number of Cartesian functions: 153
    Spherical Harmonics?: false
    Max angular momentum: 2

  ==> DFJKGrad: Density-Fitted SCF Gradients <==

    Gradient:                    1
    J tasked:                  Yes
    K tasked:                  Yes
    wK tasked:                  No
    OpenMP threads:              4
    Integrals threads:           4
    Memory (MB):              2002
    Schwarz Cutoff:          0E+00
    Fitting Condition:       1E-12

   => Auxiliary Basis Set <=

  Basis Set: (6-31G* AUX)
    Blend: CC-PVDZ-JKFIT
    Number of shells: 297
    Number of basis function: 954
    Number of Cartesian functions: 954
    Spherical Harmonics?: false
    Max angular momentum: 3

  ==> DFT Potential <==

   => Composite Functional: B3LYP-D3ZERO <= 

    B3LYP-d3zero Hyb-GGA Exchange-Correlation Functional

    P. J. Stephens, F. J. Devlin, C. F. Chabalowski, and M. J. Frisch, J. Phys. Chem. 98, 11623 (1994)

    Deriv               =              1
    GGA                 =           TRUE
    Meta                =          FALSE

    Exchange Hybrid     =           TRUE
    MP2 Hybrid          =          FALSE

   => Exchange Functionals <=

    0.0800   Slater exchange
    0.7200         Becke 88

   => Exact (HF) Exchange <=

    0.2000               HF 

   => Correlation Functionals <=

    0.1900   Vosko, Wilk & Nusair (VWN5_RPA)
    0.8100   Lee, Yang & Parr

   => Molecular Quadrature <=

    Radial Scheme       =       TREUTLER
    Pruning Scheme      =           FLAT
    Nuclear Scheme      =       TREUTLER

    BS radius alpha     =              1
    Pruning alpha       =              1
    Radial Points       =             75
    Spherical Points    =            302
    Total Points        =         396901
    Total Blocks        =           3009
    Max Points          =            256
    Max Functions       =            149


  -Total Gradient:
     Atom            X                  Y                   Z
    ------   -----------------  -----------------  -----------------
       1       -0.009338624489     0.010199142138    -0.000129554331
       2       -0.000990044567     0.000881297270    -0.000601850107
       3        0.000181577254     0.000160687501     0.000470855151
       4       -0.000057778863    -0.000083719675    -0.000027570244
       5        0.000157112085     0.000304653839    -0.000154646687
       6        0.000589076367    -0.001965539500     0.000544165432
       7        0.006490121326    -0.007955317504     0.001005147623
       8        0.000521155835    -0.000165788031    -0.001739556643
       9        0.000125437470     0.000036756715     0.000148803548
      10       -0.000004124518    -0.000041685706     0.000249434934
      11       -0.000081687875    -0.000380162908     0.000184144864
      12        0.000430035437    -0.000123476826    -0.000059901447
      13       -0.006755729289     0.006820908512    -0.002857804216
      14        0.002735554371    -0.004750001710    -0.003653034273
      15       -0.001443901654     0.001515910438     0.000041909485
      16        0.008078224239     0.007072184685     0.005620510830
      17       -0.008859048443     0.001560301918     0.006247830481
      18        0.008224384445    -0.013083129187    -0.005289057149


*** tstop() called on arancio.prib.upf.edu at Sat Sep 29 20:37:07 2018
Module time:
	user time   =      26.42 seconds =       0.44 minutes
	system time =       0.20 seconds =       0.00 minutes
	total time  =          7 seconds =       0.12 minutes
Total time:
	user time   =     222.40 seconds =       3.71 minutes
	system time =       1.40 seconds =       0.02 minutes
	total time  =         61 seconds =       1.02 minutes

			-----------------------------------------
			 OPTKING 2.0: for geometry optimizations 
			  - R.A. King,  Bethel University        
			-----------------------------------------
	At level 1: Red. Int., RFO, no backsteps, dynamic trust

	Previous internal coordinate definitions found.
	---Fragment 1 Geometry and Gradient---
	 C           0.0807760591       -0.0661982097       -0.3412042415
	 C           0.1833926626        2.2548990432        0.9597338035
	 C           0.1146759252        2.2813600955        3.5892643791
	 C          -0.0056140625        0.0106249546        4.9336591172
	 C          -0.0846485104       -2.3001894984        3.6508717115
	 C          -0.0613713426       -2.3489386460        1.0250807649
	 C           0.0981432494       -0.0737563194       -3.1169448820
	 H           0.2023270056        4.0295010668       -0.0739707147
	 H           0.1431154025        4.0723662995        4.5881200609
	 H          -0.0458393574        0.0399155762        6.9851639104
	 H          -0.1641440847       -4.0609926395        4.7009932974
	 H          -0.0814192375       -4.1584165516        0.0551100724
	 N          -1.2670721677       -1.7621639545       -4.4805093506
	 N           1.2832146253        1.7908907262       -4.3150143399
	 H           1.2000360369        1.9844928210       -6.2204908226
	 H           2.3276283654        3.1009003680       -3.3394834123
	 H          -2.4121674729       -1.2035266503       -5.9096695068
	 H          -1.3251180601       -3.6345175316       -4.0003354106
	            -0.0093386245        0.0101991421       -0.0001295543
	            -0.0009900446        0.0008812973       -0.0006018501
	             0.0001815773        0.0001606875        0.0004708552
	            -0.0000577789       -0.0000837197       -0.0000275702
	             0.0001571121        0.0003046538       -0.0001546467
	             0.0005890764       -0.0019655395        0.0005441654
	             0.0064901213       -0.0079553175        0.0010051476
	             0.0005211558       -0.0001657880       -0.0017395566
	             0.0001254375        0.0000367567        0.0001488035
	            -0.0000041245       -0.0000416857        0.0002494349
	            -0.0000816879       -0.0003801629        0.0001841449
	             0.0004300354       -0.0001234768       -0.0000599014
	            -0.0067557293        0.0068209085       -0.0028578042
	             0.0027355544       -0.0047500017       -0.0036530343
	            -0.0014439017        0.0015159104        0.0000419095
	             0.0080782242        0.0070721847        0.0056205108
	            -0.0088590484        0.0015603019        0.0062478305
	             0.0082243844       -0.0130831292       -0.0052890571

	---Fragment 1 Intrafragment Coordinates---
	 - Coordinate -           - BOHR/RAD -       - ANG/DEG -
	 R(1,2)           =         2.662792	       1.409089
	 R(1,6)           =         2.664178	       1.409822
	 R(1,7)           =         2.775805	       1.468893
	 R(2,3)           =         2.630561	       1.392033
	 R(2,8)           =         2.053805	       1.086827
	 R(3,4)           =         2.641610	       1.397880
	 R(3,9)           =         2.050908	       1.085294
	 R(4,5)           =         2.644173	       1.399236
	 R(4,10)          =         2.052108	       1.085929
	 R(5,6)           =         2.626347	       1.389803
	 R(5,11)          =         2.051707	       1.085717
	 R(6,12)          =         2.053157	       1.086484
	 R(7,13)          =         2.563950	       1.356784
	 R(7,14)          =         2.513299	       1.329981
	 R(13,17)         =         1.914633	       1.013180
	 R(13,18)         =         1.933816	       1.023331
	 R(14,15)         =         1.917092	       1.014481
	 R(14,16)         =         1.938707	       1.025920
	 B(1,2,3)         =         2.089934	     119.744407
	 B(1,2,8)         =         2.103234	     120.506406
	 B(1,6,5)         =         2.091275	     119.821252
	 B(1,6,12)        =         2.109912	     120.889050
	 B(1,7,13)        =         2.129716	     122.023763
	 B(1,7,14)        =         2.068730	     118.529478
	 B(2,1,6)         =         2.092528	     119.893004
	 B(2,1,7)         =         2.083669	     119.385455
	 B(2,3,4)         =         2.095866	     120.084275
	 B(2,3,9)         =         2.088933	     119.687039
	 B(3,2,8)         =         2.088244	     119.647586
	 B(3,4,5)         =         2.100978	     120.377168
	 B(3,4,10)        =         2.091399	     119.828365
	 B(4,3,9)         =         2.098367	     120.227585
	 B(4,5,6)         =         2.095540	     120.065605
	 B(4,5,11)        =         2.097709	     120.189872
	 B(5,4,10)        =         2.090799	     119.793979
	 B(5,6,12)        =         2.081282	     119.248665
	 B(6,1,7)         =         2.106940	     120.718755
	 B(6,5,11)        =         2.089936	     119.744522
	 B(7,13,17)       =         2.121504	     121.553250
	 B(7,13,18)       =         2.119425	     121.434108
	 B(7,14,15)       =         2.127357	     121.888587
	 B(7,14,16)       =         2.112353	     121.028909
	 B(13,7,14)       =         2.078436	     119.085594
	 B(15,14,16)      =         2.043475	     117.082492
	 B(17,13,18)      =         2.037440	     116.736715
	 D(1,2,3,4)       =         0.021853	       1.252062
	 D(1,2,3,9)       =        -3.113095	    -178.367210
	 D(1,6,5,4)       =         0.016771	       0.960919
	 D(1,6,5,11)      =        -3.124715	    -179.032988
	*D(1,7,13,17)     =         2.268928	     129.999987
	 D(1,7,13,18)     =        -0.763909	     -43.768769
	 D(1,7,14,15)     =        -3.026792	    -173.422384
	 D(1,7,14,16)     =         0.115501	       6.617735
	 D(2,1,6,5)       =        -0.006598	      -0.378064
	 D(2,1,6,12)      =        -3.107222	    -178.030727
	 D(2,1,7,13)      =        -2.505283	    -143.542122
	 D(2,1,7,14)      =         0.514725	      29.491592
	 D(2,3,4,5)       =        -0.011776	      -0.674734
	 D(2,3,4,10)      =         3.134262	     179.579989
	 D(3,2,1,6)       =        -0.012741	      -0.730001
	 D(3,2,1,7)       =         3.118331	     178.667187
	 D(3,4,5,6)       =        -0.007726	      -0.442684
	 D(3,4,5,11)      =         3.133760	     179.551194
	 D(4,3,2,8)       =         3.099816	     177.606393
	 D(4,5,6,12)      =         3.118069	     178.652194
	 D(5,4,3,9)       =         3.123135	     178.942463
	 D(5,6,1,7)       =        -3.137527	    -179.767080
	 D(6,1,2,8)       =        -3.090149	    -177.052502
	 D(6,1,7,13)      =         0.625700	      35.849966
	 D(6,1,7,14)      =        -2.637477	    -151.116320
	 D(6,5,4,10)      =         3.129422	     179.302680
	 D(7,1,2,8)       =         0.040922	       2.344686
	 D(7,1,6,12)      =         0.045034	       2.580257
	 D(8,2,3,9)       =        -0.035131	      -2.012879
	 D(9,3,4,10)      =        -0.014012	      -0.802814
	 D(10,4,5,11)     =        -0.012277	      -0.703441
	 D(11,5,6,12)     =        -0.023417	      -1.341712
	 D(13,7,14,15)    =        -0.003140	      -0.179898
	 D(13,7,14,16)    =         3.139153	     179.860221
	 D(14,7,13,17)    =        -0.750426	     -42.996258
	 D(14,7,13,18)    =         2.499922	     143.234987

	Current energy   :      -381.4485387042

	Energy change for the previous step:
		Projected    :        -0.0080346326
		Actual       :        -0.0089116592
	Energy ratio indicates good step: Trust radius increased to 1.000e+00.


	Performing BFGS update.
	Previous computed or guess Hessian on step 1.
	Steps to be used in Hessian update: 1
	Taking RFO optimization step.
	Going to follow RFO solution 1.
	Using RFO vector 1.
	Norm of target step-size    0.63293
	Projected energy change by RFO approximation:        -0.0035415844

	Back-transformation to cartesian coordinates...
	Could not converge backtransformation.
	Using first guess instead.

	Back-transformation to cartesian coordinates to adjust frozen coordinates...
	Successfully converged to displaced geometry.

	--- Internal Coordinate Step in ANG or DEG, aJ/ANG or AJ/DEG ---
	 ---------------------------------------------------------------------------
	   Coordinate                Previous        Force       Change         New 
	   ----------                --------       ------       ------       ------
	    1 R(1,2)          =      1.409089     0.006149     0.002049     1.411138
	    2 R(1,6)          =      1.409822    -0.012437    -0.000857     1.408966
	    3 R(1,7)          =      1.468893     0.008556     0.002780     1.471673
	    4 R(2,3)          =      1.392033    -0.005755    -0.000152     1.391881
	    5 R(2,8)          =      1.086827    -0.006072    -0.000736     1.086091
	    6 R(3,4)          =      1.397880    -0.006395    -0.001055     1.396825
	    7 R(3,9)          =      1.085294    -0.000876     0.000055     1.085349
	    8 R(4,5)          =      1.399236    -0.005703    -0.000432     1.398804
	    9 R(4,10)         =      1.085929    -0.002050    -0.000009     1.085920
	   10 R(5,6)          =      1.389803    -0.001408    -0.000612     1.389191
	   11 R(5,11)         =      1.085717    -0.003491    -0.000223     1.085494
	   12 R(6,12)         =      1.086484    -0.001095     0.000013     1.086497
	   13 R(7,13)         =      1.356784    -0.066260     0.003875     1.360659
	   14 R(7,14)         =      1.329981    -0.051958    -0.003907     1.326073
	   15 R(13,17)        =      1.013180    -0.008980    -0.000554     1.012626
	   16 R(13,18)        =      1.023331    -0.091513     0.048943     1.072274
	   17 R(14,15)        =      1.014481    -0.001436     0.002966     1.017448
	   18 R(14,16)        =      1.025920    -0.098520    -0.001049     1.024871
	   19 B(1,2,3)        =    119.744407     0.000032     0.159145   119.903552
	   20 B(1,2,8)        =    120.506406     0.000107     0.608571   121.114977
	   21 B(1,6,5)        =    119.821252     0.000078     0.384831   120.206083
	   22 B(1,6,12)       =    120.889050    -0.000038     0.010245   120.899295
	   23 B(1,7,13)       =    122.023763    -0.000094     0.566557   122.590320
	   24 B(1,7,14)       =    118.529478     0.000657     1.786718   120.316196
	   25 B(2,1,6)        =    119.893004    -0.000095    -0.479693   119.413311
	   26 B(2,1,7)        =    119.385455     0.000274     0.773358   120.158813
	   27 B(2,3,4)        =    120.084275     0.000023     0.119842   120.204117
	   28 B(2,3,9)        =    119.687039    -0.000020    -0.110020   119.577019
	   29 B(3,2,8)        =    119.647586    -0.000140    -0.820922   118.826665
	   30 B(3,4,5)        =    120.377168    -0.000032    -0.161483   120.215685
	   31 B(3,4,10)       =    119.828365     0.000013     0.071685   119.900050
	   32 B(4,3,9)        =    120.227585    -0.000003    -0.010938   120.216648
	   33 B(4,5,6)        =    120.065605    -0.000005    -0.031047   120.034559
	   34 B(4,5,11)       =    120.189872    -0.000000    -0.016789   120.173083
	   35 B(5,4,10)       =    119.793979     0.000020     0.087159   119.881138
	   36 B(5,6,12)       =    119.248665    -0.000039    -0.379946   118.868718
	   37 B(6,1,7)        =    120.718755    -0.000179    -0.314186   120.404569
	   38 B(6,5,11)       =    119.744522     0.000005     0.047466   119.791988
	   39 B(7,13,17)      =    121.553250     0.000073     0.587258   122.140507
	   40 B(7,13,18)      =    121.434108    -0.000179    -4.466564   116.967544
	   41 B(7,14,15)      =    121.888587    -0.000026    -0.796232   121.092355
	   42 B(7,14,16)      =    121.028909    -0.000005     0.581509   121.610418
	   43 B(13,7,14)      =    119.085594    -0.000566    -2.484871   116.600723
	   44 B(15,14,16)     =    117.082492     0.000031     0.213385   117.295878
	   45 B(17,13,18)     =    116.736715     0.000038    -1.783945   114.952770
	   46 D(1,2,3,4)      =      1.252062     0.000001     0.211943     1.464005
	   47 D(1,2,3,9)      =   -178.367210     0.000002     0.371583  -177.995627
	   48 D(1,6,5,4)      =      0.960919     0.000002     0.308711     1.269629
	   49 D(1,6,5,11)     =   -179.032988     0.000001     0.081754  -178.951234
	   50 *D(1,7,13,17)   =    129.999987     0.000000    -0.000000   129.999987
	   51 D(1,7,13,18)    =    -43.768769     0.000174    22.284041   -21.484728
	   52 D(1,7,14,15)    =   -173.422384    -0.000025    -3.475591  -176.897975
	   53 D(1,7,14,16)    =      6.617735    -0.000025    -3.949793     2.667942
	   54 D(2,1,6,5)      =     -0.378064    -0.000003    -0.507649    -0.885713
	   55 D(2,1,6,12)     =   -178.030727    -0.000006    -0.982766  -179.013492
	   56 D(2,1,7,13)     =   -143.542122    -0.000001    -0.995937  -144.538059
	   57 D(2,1,7,14)     =     29.491592    -0.000016    -2.359666    27.131926
	   58 D(2,3,4,5)      =     -0.674734    -0.000002    -0.413465    -1.088199
	   59 D(2,3,4,10)     =    179.579989     0.000000    -0.024157   179.555833
	   60 D(3,2,1,6)      =     -0.730001     0.000002     0.247830    -0.482171
	   61 D(3,2,1,7)      =    178.667187    -0.000006    -0.898131   177.769056
	   62 D(3,4,5,6)      =     -0.442684     0.000001     0.155653    -0.287031
	   63 D(3,4,5,11)     =    179.551194     0.000002     0.383487   179.934681
	   64 D(4,3,2,8)      =    177.606393    -0.000004    -0.613603   176.992790
	   65 D(4,5,6,12)     =    178.652194     0.000005     0.782977   179.435171
	   66 D(5,4,3,9)      =    178.942463    -0.000003    -0.574510   178.367953
	   67 D(5,6,1,7)      =   -179.767080     0.000004     0.634526  -179.132554
	   68 D(6,1,2,8)      =   -177.052502     0.000008     1.145957  -175.906544
	   69 D(6,1,7,13)     =     35.849966    -0.000009    -2.154294    33.695672
	   70 D(6,1,7,14)     =   -151.116320    -0.000023    -3.518023  -154.634343
	   71 D(6,5,4,10)     =    179.302680    -0.000001    -0.233621   179.069059
	   72 D(7,1,2,8)      =      2.344686     0.000001    -0.000003     2.344683
	   73 D(7,1,6,12)     =      2.580257     0.000001     0.159410     2.739667
	   74 D(8,2,3,9)      =     -2.012879    -0.000003    -0.453963    -2.466842
	   75 D(9,3,4,10)     =     -0.802814    -0.000001    -0.185201    -0.988015
	   76 D(10,4,5,11)    =     -0.703441    -0.000000    -0.005788    -0.709228
	   77 D(11,5,6,12)    =     -1.341712     0.000004     0.556020    -0.785693
	   78 D(13,7,14,15)   =     -0.179898    -0.000033    -4.564209    -4.744106
	   79 D(13,7,14,16)   =    179.860221    -0.000032    -5.038410   174.821811
	   80 D(14,7,13,17)   =    -42.996258    -0.000004     1.036492   -41.959766
	   81 D(14,7,13,18)   =    143.234987     0.000169    23.320533   166.555519
	 ---------------------------------------------------------------------------
	Successfully symmetrized geometry.

  ==> Convergence Check <==

  Measures of convergence in internal coordinates in au.
  Criteria marked as inactive (o), active & met (*), and active & unmet ( ).
  ---------------------------------------------------------------------------------------------
   Step     Total Energy     Delta E     MAX Force     RMS Force      MAX Disp      RMS Disp   
  ---------------------------------------------------------------------------------------------
    Convergence Criteria    1.00e-06 *    3.00e-04 *             o    1.20e-03 *             o
  ---------------------------------------------------------------------------------------------
      2    -381.44853870   -8.91e-03      1.20e-02      3.05e-03 o    4.07e-01      6.75e-02 o  ~
  ---------------------------------------------------------------------------------------------

	Writing optimization data to binary file.
	Structure for next step:
	Cartesian Geometry (in Angstrom)
	    C     0.0825937607  -0.0288890664  -0.1851947287
	    C     0.1235573610   1.1925996387   0.5202112862
	    C     0.0600660152   1.1934061383   1.9106430797
	    C    -0.0133045181  -0.0126688781   2.6114421769
	    C    -0.0463643723  -1.2279517091   1.9195990380
	    C    -0.0122651237  -1.2386164631   0.5308678307
	    C     0.0998721351  -0.0338060735  -1.6567583010
	    H     0.1301287501   2.1436426372  -0.0042571148
	    H     0.0590451160   2.1373461066   2.4463278895
	    H    -0.0553549354  -0.0065441926   3.6965302395
	    H    -0.1023159590  -2.1648517415   2.4649290662
	    H    -0.0294967047  -2.1936209228   0.0130394200
	    N    -0.5937598284  -0.9424014814  -2.3948107992
	    N     0.6704688878   0.9608210678  -2.3227960854
	    H     0.6484379835   0.9931663233  -3.3394909269
	    H     1.1444949327   1.7295194179  -1.8382732807
	    H    -1.2002127704  -0.6666884121  -3.1574433606
	    H    -0.8672087301  -1.8576133893  -1.9075894293
			--------------------------
			 OPTKING Finished Execution 
			--------------------------

    Structure for next step:
    Molecular point group: c1
    Full point group: C1

    Geometry (in Angstrom), charge = 1, multiplicity = 1:

    C            0.082593760717    -0.028889066352    -0.185194728746
    C            0.123557360952     1.192599638749     0.520211286167
    C            0.060066015202     1.193406138300     1.910643079723
    C           -0.013304518092    -0.012668878075     2.611442176887
    C           -0.046364372255    -1.227951709095     1.919599037968
    C           -0.012265123661    -1.238616463063     0.530867830698
    C            0.099872135057    -0.033806073518    -1.656758301048
    H            0.130128750115     2.143642637210    -0.004257114759
    H            0.059045116027     2.137346106568     2.446327889466
    H           -0.055354935407    -0.006544192641     3.696530239463
    H           -0.102315958950    -2.164851741493     2.464929066243
    H           -0.029496704683    -2.193620922814     0.013039419997
    N           -0.593759828436    -0.942401481428    -2.394810799177
    N            0.670468887767     0.960821067832    -2.322796085446
    H            0.648437983481     0.993166323295    -3.339490926923
    H            1.144494932656     1.729519417911    -1.838273280655
    H           -1.200212770394    -0.666688412084    -3.157443360596
    H           -0.867208730093    -1.857613389302    -1.907589429262

gradient() will perform analytic gradient computation.

*** tstart() called on arancio.prib.upf.edu
*** at Sat Sep 29 20:37:07 2018

   => Loading Basis Set <=

    Name: 6-31G*
    Role: ORBITAL
    Keyword: BASIS
    atoms 1-7         entry C          line   111 file /shared/joao/test_parameterize/miniconda3/share/psi4/basis/6-31gs.gbs 
    atoms 8-12, 15-18 entry H          line    44 file /shared/joao/test_parameterize/miniconda3/share/psi4/basis/6-31gs.gbs 
[...]
	 R(6,Z)           =         0.974537	       0.515703
	 R(7,X)           =         0.168650	       0.089246
	 R(7,Y)           =        -0.060218	      -0.031866
	 R(7,Z)           =        -3.138934	      -1.661052
	 R(8,X)           =         0.113873	       0.060259
	 R(8,Y)           =         4.044332	       2.140168
	 R(8,Z)           =        -0.043282	      -0.022904
	 R(9,X)           =        -0.002048	      -0.001084
	 R(9,Y)           =         4.029947	       2.132556
	 R(9,Z)           =         4.599817	       2.434118
	 R(10,X)          =        -0.107194	      -0.056725
	 R(10,Y)          =        -0.028456	      -0.015058
	 R(10,Z)          =         6.957660	       3.681835
	 R(11,X)          =        -0.056701	      -0.030005
	 R(11,Y)          =        -4.107761	      -2.173733
	 R(11,Z)          =         4.629846	       2.450009
	 R(12,X)          =         0.130488	       0.069051
	 R(12,Y)          =        -4.151539	      -2.196900
	 R(12,Z)          =        -0.013956	      -0.007385
	 R(13,X)          =        -1.080903	      -0.571989
	 R(13,Y)          =        -1.837127	      -0.972166
	 R(13,Z)          =        -4.486537	      -2.374173
	 R(14,X)          =         1.292177	       0.683791
	 R(14,Y)          =         1.795445	       0.950108
	 R(14,Z)          =        -4.387099	      -2.321553
	 R(15,X)          =         1.321012	       0.699050
	 R(15,Y)          =         1.852250	       0.980169
	 R(15,Z)          =        -6.302356	      -3.335063
	 R(16,X)          =         2.362508	       1.250185
	 R(16,Y)          =         3.083503	       1.631720
	 R(16,Z)          =        -3.464494	      -1.833332
	 R(17,X)          =        -2.234155	      -1.182264
	 R(17,Y)          =        -1.254086	      -0.663634
	 R(17,Z)          =        -5.908000	      -3.126379
	 R(18,X)          =        -2.001170	      -1.058974
	 R(18,Y)          =        -3.131490	      -1.657113
	 R(18,Z)          =        -3.411986	      -1.805545

	Current energy   :      -381.4589087548

	Generating empirical Hessian (Schlegel '84) for each fragment.
	Taking RFO optimization step.
	Going to follow RFO solution 1.
	Using RFO vector 1.
	Norm of target step-size    0.00231
	Projected energy change by RFO approximation:        -0.0000003030

	Back-transformation to cartesian coordinates...
	Successfully converged to displaced geometry.

	Back-transformation to cartesian coordinates to adjust frozen coordinates...
	Successfully converged to displaced geometry.

	--- Internal Coordinate Step in ANG or DEG, aJ/ANG or AJ/DEG ---
	 ---------------------------------------------------------------------------
	   Coordinate                Previous        Force       Change         New 
	   ----------                --------       ------       ------       ------
	    1 R(1,2)          =      1.408246     0.000216     0.000052     1.408298
	    2 R(1,6)          =      1.408689    -0.000095    -0.000021     1.408668
	    3 R(1,7)          =      1.467157    -0.000079    -0.000011     1.467146
	    4 R(2,3)          =      1.391372     0.000065     0.000021     1.391392
	    5 R(2,8)          =      1.086203    -0.000040    -0.000006     1.086196
	    6 R(3,4)          =      1.397753    -0.000079    -0.000013     1.397740
	    7 R(3,9)          =      1.085142    -0.000022    -0.000001     1.085141
	    8 R(4,5)          =      1.398374     0.000122     0.000027     1.398401
	    9 R(4,10)         =      1.085563     0.000014     0.000007     1.085569
	   10 R(5,6)          =      1.390473    -0.000009    -0.000001     1.390471
	   11 R(5,11)         =      1.085077     0.000026     0.000005     1.085082
	   12 R(6,12)         =      1.086992     0.000054     0.000019     1.087011
	   13 R(7,13)         =      1.352752     0.000105     0.000050     1.352802
	   14 R(7,14)         =      1.324393     0.000337     0.000073     1.324467
	   15 R(13,17)        =      1.016583    -0.000119    -0.000019     1.016564
	   16 R(13,18)        =      1.014714     0.000911     0.000195     1.014909
	   17 R(14,15)        =      1.014071     0.000043     0.000014     1.014085
	   18 R(14,16)        =      1.011809     0.000077     0.000035     1.011843
	   19 B(1,2,3)        =    119.716310    -0.000000    -0.000954   119.715356
	   20 B(1,2,8)        =    120.931986    -0.000000    -0.002273   120.929714
	   21 B(1,6,5)        =    119.885852    -0.000000    -0.001515   119.884337
	   22 B(1,6,12)       =    120.793195    -0.000000    -0.002619   120.790576
	   23 B(1,7,13)       =    121.367176     0.000000    -0.004255   121.362921
	   24 B(1,7,14)       =    120.298533    -0.000001    -0.006444   120.292089
	   25 B(2,1,6)        =    119.867605     0.000000     0.001177   119.868781
	   26 B(2,1,7)        =    119.948890    -0.000000     0.002950   119.951840
	   27 B(2,3,4)        =    120.181933     0.000000    -0.000157   120.181777
	   28 B(2,3,9)        =    119.581529    -0.000000     0.001070   119.582599
	   29 B(3,2,8)        =    119.232550     0.000001     0.004153   119.236703
	   30 B(3,4,5)        =    120.303254    -0.000000    -0.000460   120.302794
	   31 B(3,4,10)       =    119.840508     0.000000     0.000382   119.840890
	   32 B(4,3,9)        =    120.234822     0.000000    -0.000920   120.233902
	   33 B(4,5,6)        =    120.033043     0.000000     0.002109   120.035152
	   34 B(4,5,11)       =    120.254388    -0.000000    -0.001903   120.252485
	   35 B(5,4,10)       =    119.856183    -0.000000     0.000074   119.856257
	   36 B(5,6,12)       =    119.240833     0.000001     0.004000   119.244833
	   37 B(6,1,7)        =    120.181113     0.000000    -0.004210   120.176903
	   38 B(6,5,11)       =    119.710914     0.000000    -0.000217   119.710697
	   39 B(7,13,17)      =    118.199603     0.000001     0.009995   118.209598
	   40 B(7,13,18)      =    114.103153    -0.000001     0.005058   114.108212
	   41 B(7,14,15)      =    121.814959    -0.000002    -0.008783   121.806176
	   42 B(7,14,16)      =    120.672997     0.000001     0.002608   120.675605
	   43 B(13,7,14)      =    118.158517     0.000000     0.007015   118.165532
	   44 B(15,14,16)     =    116.991873     0.000001     0.000617   116.992490
	   45 B(17,13,18)     =    109.354178     0.000001     0.010502   109.364681
	   46 D(1,2,3,4)      =      1.213886    -0.000000    -0.010861     1.203026
	   47 D(1,2,3,9)      =   -178.310688    -0.000000    -0.009903  -178.320592
	   48 D(1,6,5,4)      =      0.624545     0.000000     0.004895     0.629440
	   49 D(1,6,5,11)     =   -178.908620     0.000000     0.006482  -178.902138
	   50 *D(1,7,13,17)   =    129.999987    -0.000000     0.000000   129.999987
	   51 D(1,7,13,18)    =     -0.680579    -0.000000    -0.032280    -0.712859
	   52 D(1,7,14,15)    =   -178.860687    -0.000000    -0.007048  -178.867735
	   53 D(1,7,14,16)    =      9.662091     0.000000     0.038018     9.700109
	   54 D(2,1,6,5)      =      0.099466    -0.000000    -0.014997     0.084469
	   55 D(2,1,6,12)     =   -176.621050    -0.000000    -0.012375  -176.633425
	   56 D(2,1,7,13)     =   -145.354319     0.000000     0.030420  -145.323899
	   57 D(2,1,7,14)     =     29.738229    -0.000000    -0.020287    29.717942
	   58 D(2,3,4,5)      =     -0.493340    -0.000000     0.000711    -0.492629
	   59 D(2,3,4,10)     =    179.592577     0.000000     0.003311   179.595887
	   60 D(3,2,1,6)      =     -1.018746     0.000000     0.017966    -1.000780
	   61 D(3,2,1,7)      =    178.419664     0.000000     0.008292   178.427955
	   62 D(3,4,5,6)      =     -0.434602     0.000000     0.002279    -0.432323
	   63 D(3,4,5,11)     =    179.096001     0.000000     0.000691   179.096692
	   64 D(4,3,2,8)      =    177.283236     0.000000     0.004332   177.287568
	   65 D(4,5,6,12)     =    177.396055     0.000000     0.002099   177.398154
	   66 D(5,4,3,9)      =    179.028106    -0.000000    -0.000243   179.027863
	   67 D(5,6,1,7)      =   -179.337625    -0.000000    -0.005341  -179.342966
	   68 D(6,1,2,8)      =   -177.019862     0.000000     0.002252  -177.017609
	   69 D(6,1,7,13)     =     34.082312     0.000000     0.020746    34.103058
	   70 D(6,1,7,14)     =   -150.825140    -0.000000    -0.029961  -150.855102
	   71 D(6,5,4,10)     =    179.479468     0.000000    -0.000321   179.479147
	   72 D(7,1,2,8)      =      2.418548    -0.000000    -0.007422     2.411126
	   73 D(7,1,6,12)     =      3.941860    -0.000000    -0.002719     3.939140
	   74 D(8,2,3,9)      =     -2.241338     0.000000     0.005289    -2.236049
	   75 D(9,3,4,10)     =     -0.885977     0.000000     0.002357    -0.883621
	   76 D(10,4,5,11)    =     -0.989929    -0.000000    -0.001909    -0.991838
	   77 D(11,5,6,12)    =     -2.137110     0.000000     0.003686    -2.133424
	   78 D(13,7,14,15)   =     -3.613057    -0.000001    -0.056679    -3.669736
	   79 D(13,7,14,16)   =   -175.090279    -0.000000    -0.011613  -175.101892
	   80 D(14,7,13,17)   =    -45.194314     0.000000     0.050290   -45.144024
	   81 D(14,7,13,18)   =   -175.874880     0.000000     0.018010  -175.856869
	   82 R(1,X)          =      0.065734     0.000086     0.000130     0.065863
	   83 R(1,Y)          =     -0.029208    -0.000132    -0.000042    -0.029250
	   84 R(1,Z)          =     -0.194086    -0.000045    -0.000019    -0.194105
	   85 R(2,X)          =      0.075082    -0.000008    -0.000065     0.075017
	   86 R(2,Y)          =      1.192095     0.000092     0.000019     1.192114
	   87 R(2,Z)          =      0.506977     0.000002    -0.000019     0.506958
	   88 R(3,X)          =      0.019382    -0.000007    -0.000011     0.019371
	   89 R(3,Y)          =      1.189759     0.000035     0.000015     1.189774
	   90 R(3,Z)          =      1.897231     0.000067     0.000004     1.897235
	   91 R(4,X)          =     -0.020019     0.000008     0.000010    -0.020009
	   92 R(4,Y)          =     -0.019630     0.000089     0.000022    -0.019607
	   93 R(4,Z)          =      2.596903     0.000005    -0.000008     2.596894
	   94 R(5,X)          =     -0.014180    -0.000001    -0.000009    -0.014189
	   95 R(5,Y)          =     -1.235203     0.000010     0.000009    -1.235194
	   96 R(5,Z)          =      1.905673    -0.000102    -0.000038     1.905634
	   97 R(6,X)          =      0.021842     0.000013    -0.000002     0.021840
	   98 R(6,Y)          =     -1.245216    -0.000047    -0.000024    -1.245240
	   99 R(6,Z)          =      0.515703    -0.000093    -0.000037     0.515666
	  100 R(7,X)          =      0.089246     0.000103     0.000254     0.089500
	  101 R(7,Y)          =     -0.031866    -0.000116    -0.000147    -0.032013
	  102 R(7,Z)          =     -1.661052     0.000034    -0.000006    -1.661058
	  103 R(8,X)          =      0.060259     0.000001    -0.000005     0.060254
	  104 R(8,Y)          =      2.140168    -0.000023    -0.000020     2.140148
	  105 R(8,Z)          =     -0.022904    -0.000122    -0.000078    -0.022982
	  106 R(9,X)          =     -0.001084    -0.000013    -0.000001    -0.001085
	  107 R(9,Y)          =      2.132556     0.000006     0.000003     2.132559
	  108 R(9,Z)          =      2.434118     0.000072     0.000025     2.434143
	  109 R(10,X)         =     -0.056725    -0.000004    -0.000002    -0.056726
	  110 R(10,Y)         =     -0.015058     0.000027     0.000010    -0.015049
	  111 R(10,Z)         =      3.681835     0.000019    -0.000002     3.681833
	  112 R(11,X)         =     -0.030005    -0.000014    -0.000004    -0.030009
	  113 R(11,Y)         =     -2.173733     0.000018     0.000015    -2.173718
	  114 R(11,Z)         =      2.450009    -0.000036    -0.000017     2.449991
	  115 R(12,X)         =      0.069051    -0.000034    -0.000051     0.069000
	  116 R(12,Y)         =     -2.196900    -0.000059    -0.000018    -2.196918
	  117 R(12,Z)         =     -0.007385    -0.000187    -0.000091    -0.007476
	  118 R(13,X)         =     -0.571989    -0.000109    -0.000137    -0.572126
	  119 R(13,Y)         =     -0.972166    -0.000008     0.000008    -0.972158
	  120 R(13,Z)         =     -2.374173    -0.000111     0.000058    -2.374116
	  121 R(14,X)         =      0.683791     0.000115    -0.000077     0.683714
	  122 R(14,Y)         =      0.950108     0.000349     0.000196     0.950304
	  123 R(14,Z)         =     -2.321553     0.000060     0.000059    -2.321494
	  124 R(15,X)         =      0.699050     0.000073     0.000063     0.699113
	  125 R(15,Y)         =      0.980169     0.000128     0.000033     0.980202
	  126 R(15,Z)         =     -3.335063     0.000009     0.000042    -3.335021
	  127 R(16,X)         =      1.250185     0.000172     0.000030     1.250216
	  128 R(16,Y)         =      1.631720     0.000376     0.000162     1.631882
	  129 R(16,Z)         =     -1.833332     0.000115     0.000052    -1.833279
	  130 R(17,X)         =     -1.182264     0.000023    -0.000005    -1.182269
	  131 R(17,Y)         =     -0.663634    -0.000032    -0.000003    -0.663637
	  132 R(17,Z)         =     -3.126379    -0.000066    -0.000029    -3.126408
	  133 R(18,X)         =     -1.058974    -0.000445    -0.000146    -1.059119
	  134 R(18,Y)         =     -1.657113    -0.000641    -0.000189    -1.657303
	  135 R(18,Z)         =     -1.805545     0.000464     0.000160    -1.805386
	 ---------------------------------------------------------------------------
	Successfully symmetrized geometry.

  ==> Convergence Check <==

  Measures of convergence in internal coordinates in au.
  Criteria marked as inactive (o), active & met (*), and active & unmet ( ).
  --------------------------------------------------------------------------------------------- ~
   Step     Total Energy     Delta E     MAX Force     RMS Force      MAX Disp      RMS Disp    ~
  --------------------------------------------------------------------------------------------- ~
    Convergence Criteria    1.00e-06 *    3.00e-04 *             o    1.20e-03 *             o  ~
  --------------------------------------------------------------------------------------------- ~
      1    -381.45890875   -3.81e+02      1.11e-04 *    1.74e-05 o    9.89e-04 *    1.99e-04 o  ~
  ---------------------------------------------------------------------------------------------


  **** Optimization is complete! (in 1 steps) ****

  ==> Optimization Summary <==

  Measures of convergence in internal coordinates in au.
  --------------------------------------------------------------------------------------------------------------- ~
   Step         Total Energy             Delta E       MAX Force       RMS Force        MAX Disp        RMS Disp  ~
  --------------------------------------------------------------------------------------------------------------- ~
      1    -381.458908754813   -381.458908754813      0.00011057      0.00001744      0.00098924      0.00019912  ~
  --------------------------------------------------------------------------------------------------------------- ~

	Writing optimization data to binary file.
	Final energy is   -381.4589087548133
	Final (previous) structure:
	Cartesian Geometry (in Angstrom)
	    C     0.0657335129  -0.0292076203  -0.1940862234
	    C     0.0750819831   1.1920947866   0.5069768333
	    C     0.0193824573   1.1897592640   1.8972313150
	    C    -0.0200192972  -0.0196298534   2.5969026442
	    C    -0.0141798940  -1.2352025123   1.9056726496
	    C     0.0218417434  -1.2452160112   0.5157028441
	    C     0.0892458499  -0.0318657287  -1.6610521131
	    H     0.0602589888   2.1401681121  -0.0229036647
	    H    -0.0010839149   2.1325561589   2.4341184273
	    H    -0.0567247008  -0.0150583823   3.6818349219
	    H    -0.0300047061  -2.1737334140   2.4500087533
	    H     0.0690514349  -2.1968997504  -0.0073854401
	    N    -0.5719894684  -0.9721657951  -2.3741733825
	    N     0.6837905635   0.9501084413  -2.3215528369
	    H     0.6990497018   0.9801685026  -3.3350632337
	    H     1.2501854395   1.6317197653  -1.8333315020
	    H    -1.1822640682  -0.6636336287  -3.1263787993
	    H    -1.0589736254  -1.6571133344  -1.8055451932
	Saving final (previous) structure.
	Removing binary optimization data file.
			--------------------------
			 OPTKING Finished Execution 
			--------------------------

    Final optimized geometry and variables:
    Molecular point group: c1
    Full point group: C1

    Geometry (in Angstrom), charge = 1, multiplicity = 1:

    C            0.065733512931    -0.029207620281    -0.194086223395
    C            0.075081983076     1.192094786632     0.506976833324
    C            0.019382457282     1.189759263961     1.897231314996
    C           -0.020019297221    -0.019629853376     2.596902644200
    C           -0.014179894013    -1.235202512258     1.905672649627
    C            0.021841743431    -1.245216011236     0.515702844126
    C            0.089245849897    -0.031865728685    -1.661052113085
    H            0.060258988772     2.140168112082    -0.022903664742
    H           -0.001083914867     2.132556158870     2.434118427342
    H           -0.056724700795    -0.015058382311     3.681834921913
    H           -0.030004706096    -2.173733413980     2.450008753322
    H            0.069051434937    -2.196899750418    -0.007385440083
    N           -0.571989468432    -0.972165795090    -2.374173382467
    N            0.683790563452     0.950108441294    -2.321552836934
    H            0.699049701777     0.980168502579    -3.335063233662
    H            1.250185439537     1.631719765299    -1.833331501974
    H           -1.182264068234    -0.663633628726    -3.126378799281
    H           -1.058973625432    -1.657113334353    -1.805545193227

	Removing binary optimization data file.
	Cleaning optimization helper files.


Properties will be evaluated at   0.000000,   0.000000,   0.000000 [a0]
OEProp: No title given, name of density matrix used for the following properties is 'SCF density'
  Nuclear Dipole Moment: [e a0]
     X:     3.6937      Y:    -1.9877      Z:    -1.9476

  Electronic Dipole Moment: [e a0]
     X:    -3.8525      Y:     2.3013      Z:    -0.0390

  Dipole Moment: [e a0]
     X:    -0.1588      Y:     0.3136      Z:    -1.9866     Total:     2.0175

  Dipole Moment: [D]
     X:    -0.4035      Y:     0.7972      Z:    -5.0494     Total:     5.1279

  Quadrupole Moment: [D A]
    XX:   -49.0122     YY:   -37.9621     ZZ:   -16.3082
    XY:     6.0202     XZ:     1.5106     YZ:    -3.4453

  Traceless Quadrupole Moment: [D A]
    XX:   -14.5847     YY:    -3.5346     ZZ:    18.1193
    XY:     6.0202     XZ:     1.5106     YZ:    -3.4453

  Mulliken Charges: (a.u.)
   Center  Symbol    Alpha    Beta     Spin     Total
       1     C     2.94468  2.94468  0.00000  0.11064
       2     C     3.08388  3.08388  0.00000 -0.16776
       3     C     3.06208  3.06208  0.00000 -0.12417
       4     C     3.05130  3.05130  0.00000 -0.10261
       5     C     3.06215  3.06215  0.00000 -0.12429
       6     C     3.08749  3.08749  0.00000 -0.17498
       7     C     2.74681  2.74681  0.00000  0.50638
       8     H     0.41595  0.41595  0.00000  0.16811
       9     H     0.40462  0.40462  0.00000  0.19076
      10     H     0.40289  0.40289  0.00000  0.19421
      11     H     0.40424  0.40424  0.00000  0.19152
      12     H     0.41128  0.41128  0.00000  0.17744
      13     N     3.85737  3.85737  0.00000 -0.71473
      14     N     3.85312  3.85312  0.00000 -0.70624
      15     H     0.30114  0.30114  0.00000  0.39773
      16     H     0.29861  0.29861  0.00000  0.40277
      17     H     0.30477  0.30477  0.00000  0.39045
      18     H     0.30761  0.30761  0.00000  0.38477

   Total alpha = 32.00000, Total beta = 32.00000, Total charge =  1.00000


    Psi4 stopped on: Saturday, 29 September 2018 08:42PM
    Psi4 wall time for execution: 0:06:45.99

*** Psi4 exiting successfully. Buy a developer a beer!
