
    -----------------------------------------------------------------------
          Psi4: An Open-Source Ab Initio Electronic Structure Package
                               Psi4 1.2.1 release

                         Git: Rev {HEAD} 406f4de 


    R. M. Parrish, L. A. Burns, D. G. A. Smith, A. C. Simmonett,
    A. E. DePrince III, E. G. Hohenstein, U. Bozkaya, A. Yu. Sokolov,
    R. Di Remigio, R. M. Richard, J. F. Gonthier, A. M. James,
    H. R. McAlexander, A. Kumar, M. Saitow, X. Wang, B. P. Pritchard,
    P. Verma, H. F. Schaefer III, K. Patkowski, R. A. King, E. F. Valeev,
    F. A. Evangelista, J. M. Turney, T. D. Crawford, and C. D. Sherrill,
    J. Chem. Theory Comput. 13(7) pp 3185--3197 (2017).
    (doi: 10.1021/acs.jctc.7b00174)


                         Additional Contributions by
    P. Kraus, H. Kruse, M. H. Lechner, M. C. Schieber, and R. A. Shaw

    -----------------------------------------------------------------------


    Psi4 started on: Saturday, 29 September 2018 04:50PM

    Process ID: 5036
    Host:       loro.prib.upf.edu
    PSIDATADIR: /shared/joao/test_parameterize/miniconda3/share/psi4
    Memory:     500.0 MiB
    Threads:    1
    
  ==> Input File <==

--------------------------------------------------------------------------
set_num_threads(1)
set_memory('5348 MB')

set { scf_mem_safety_factor 0.7 }

set { reference rks }
set { basis cc-pVDZ }

molecule MOL {
    0 1
    noreorient
    nocom
    symmetry c1
    O    1.141000   0.017000   0.083000
    C    2.558000   0.086000  -0.005000
    C    3.192000  -0.789000   1.067000
    O    4.610000  -0.719000   0.979000
    H    0.789000   0.590000  -0.620000
    H    2.874000   1.128000   0.115000
    H    2.871000  -0.243000  -1.001000
    H    2.876000  -1.830000   0.947000
    H    2.879000  -0.459000   2.064000
    H    4.886395  -1.427958   0.372476
}

set optking { frozen_dihedral = (" 2 3 4 10 ") }

energy, wfn = energy('B3LYP-D3', return_wfn=True)

import os
os.chdir(os.environ['HTMD_PSI4_WORKDIR'])

oeprop(wfn, 'DIPOLE', 'QUADRUPOLE', 'MULLIKEN_CHARGES')

with open('psi4out.xyz', 'w') as f:
    f.write('10 ' )
    f.write('%.12f\n' % energy)
    f.write(MOL.save_string_xyz())
--------------------------------------------------------------------------
  Threads set to 1 by Python driver.

  Memory set to   4.981 GiB by Python driver.

*** tstart() called on loro.prib.upf.edu
*** at Sat Sep 29 16:50:08 2018

   => Loading Basis Set <=

    Name: CC-PVDZ
    Role: ORBITAL
    Keyword: BASIS
    atoms 1, 4 entry O          line   198 file /shared/joao/test_parameterize/miniconda3/share/psi4/basis/cc-pvdz.gbs 
    atoms 2-3  entry C          line   138 file /shared/joao/test_parameterize/miniconda3/share/psi4/basis/cc-pvdz.gbs 
    atoms 5-10 entry H          line    22 file /shared/joao/test_parameterize/miniconda3/share/psi4/basis/cc-pvdz.gbs 


         ---------------------------------------------------------
                                   SCF
            by Justin Turney, Rob Parrish, Andy Simmonett
                             and Daniel Smith
                              RKS Reference
                        1 Threads,   5100 MiB Core
         ---------------------------------------------------------

  ==> Geometry <==

    Molecular point group: c1
    Full point group: C1

    Geometry (in Angstrom), charge = 0, multiplicity = 1:

       Center              X                  Y                   Z               Mass       
    ------------   -----------------  -----------------  -----------------  -----------------
         O            1.141000000000     0.017000000000     0.083000000000    15.994914619560
         C            2.558000000000     0.086000000000    -0.005000000000    12.000000000000
         C            3.192000000000    -0.789000000000     1.067000000000    12.000000000000
         O            4.610000000000    -0.719000000000     0.979000000000    15.994914619560
         H            0.789000000000     0.590000000000    -0.620000000000     1.007825032070
         H            2.874000000000     1.128000000000     0.115000000000     1.007825032070
         H            2.871000000000    -0.243000000000    -1.001000000000     1.007825032070
         H            2.876000000000    -1.830000000000     0.947000000000     1.007825032070
         H            2.879000000000    -0.459000000000     2.064000000000     1.007825032070
         H            4.886395000000    -1.427958000000     0.372476000000     1.007825032070

  Running in c1 symmetry.

  Rotational constants: A =      0.81616  B =      0.02547  C =      0.02499 [cm^-1]
  Rotational constants: A =  24467.85074  B =    763.42159  C =    749.28164 [MHz]
  Nuclear repulsion =  129.714565871289693

  Charge       = 0
  Multiplicity = 1
  Electrons    = 34
  Nalpha       = 17
  Nbeta        = 17

  ==> Algorithm <==

  SCF Algorithm Type is DF.
  DIIS enabled.
  MOM disabled.
  Fractional occupation disabled.
  Guess Type is SAD.
  Energy threshold   = 1.00e-06
  Density threshold  = 1.00e-06
  Integral threshold = 0.00e+00

  ==> Primary Basis <==

  Basis Set: CC-PVDZ
    Blend: CC-PVDZ
    Number of shells: 42
    Number of basis function: 86
    Number of Cartesian functions: 90
    Spherical Harmonics?: true
    Max angular momentum: 2

  ==> DFT Potential <==

   => Composite Functional: B3LYP-D3ZERO <= 

    B3LYP-d3zero Hyb-GGA Exchange-Correlation Functional

    P. J. Stephens, F. J. Devlin, C. F. Chabalowski, and M. J. Frisch, J. Phys. Chem. 98, 11623 (1994)

    Deriv               =              1
    GGA                 =           TRUE
    Meta                =          FALSE

    Exchange Hybrid     =           TRUE
    MP2 Hybrid          =          FALSE

   => Exchange Functionals <=

    0.0800   Slater exchange
    0.7200         Becke 88

   => Exact (HF) Exchange <=

    0.2000               HF 

   => Correlation Functionals <=

    0.1900   Vosko, Wilk & Nusair (VWN5_RPA)
    0.8100   Lee, Yang & Parr

   => Molecular Quadrature <=

    Radial Scheme       =       TREUTLER
    Pruning Scheme      =           FLAT
    Nuclear Scheme      =       TREUTLER

    BS radius alpha     =              1
    Pruning alpha       =              1
    Radial Points       =             75
    Spherical Points    =            302
    Total Points        =         222546
    Total Blocks        =           1733
    Max Points          =            256
    Max Functions       =             86

   => -D3ZERO: Empirical Dispersion <=

    Grimme's -D3 (zero-damping) Dispersion Correction
    Grimme S.; Antony J.; Ehrlich S.; Krieg H. (2010), J. Chem. Phys., 132: 154104

        S6 =   1.000000E+00
        S8 =   1.703000E+00
       SR6 =   1.261000E+00
       SR8 =   1.000000E+00
    ALPHA6 =   1.400000E+01

   => Loading Basis Set <=

    Name: (CC-PVDZ AUX)
    Role: JKFIT
    Keyword: DF_BASIS_SCF
    atoms 1, 4 entry O          line   221 file /shared/joao/test_parameterize/miniconda3/share/psi4/basis/cc-pvdz-jkfit.gbs 
    atoms 2-3  entry C          line   121 file /shared/joao/test_parameterize/miniconda3/share/psi4/basis/cc-pvdz-jkfit.gbs 
    atoms 5-10 entry H          line    51 file /shared/joao/test_parameterize/miniconda3/share/psi4/basis/cc-pvdz-jkfit.gbs 

  ==> Pre-Iterations <==

   -------------------------------------------------------
    Irrep   Nso     Nmo     Nalpha   Nbeta   Ndocc  Nsocc
   -------------------------------------------------------
     A         86      86       0       0       0       0
   -------------------------------------------------------
    Total      86      86      17      17      17       0
   -------------------------------------------------------

  ==> Integral Setup <==

  DFHelper Memory: AOs need 0.030 [GiB]; user supplied 3.486 [GiB]. Using in-core AOs.

  ==> MemDFJK: Density-Fitted J/K Matrices <==

    J tasked:                   Yes
    K tasked:                   Yes
    wK tasked:                   No
    OpenMP threads:               1
    Memory (MB):               3570
    Algorithm:                 Core
    Schwarz Cutoff:           1E-12
    Mask sparsity (%):       0.2975
    Fitting Condition:        1E-12

   => Auxiliary Basis Set <=

  Basis Set: (CC-PVDZ AUX)
    Blend: CC-PVDZ-JKFIT
    Number of shells: 150
    Number of basis function: 418
    Number of Cartesian functions: 474
    Spherical Harmonics?: true
    Max angular momentum: 3

  Minimum eigenvalue in the overlap matrix is 5.0784109965E-03.
  Using Symmetric Orthogonalization.

  SCF Guess: Superposition of Atomic Densities via on-the-fly atomic UHF.

  ==> Iterations <==

                           Total Energy        Delta E     RMS |[F,P]|

   @DF-RKS iter   0:  -231.04910015720526   -2.31049e+02   4.14275e-02 
   @DF-RKS iter   1:  -230.19302422224820    8.56076e-01   4.66074e-03 
   @DF-RKS iter   2:  -230.16566667679803    2.73575e-02   5.87740e-03 DIIS
   @DF-RKS iter   3:  -230.25672018736691   -9.10535e-02   7.02960e-04 DIIS
   @DF-RKS iter   4:  -230.25803715936215   -1.31697e-03   2.16464e-04 DIIS
   @DF-RKS iter   5:  -230.25820180618365   -1.64647e-04   4.62790e-05 DIIS
   @DF-RKS iter   6:  -230.25820922205116   -7.41587e-06   6.99848e-06 DIIS
   @DF-RKS iter   7:  -230.25820931794979   -9.58986e-08   4.05530e-06 DIIS
   @DF-RKS iter   8:  -230.25820936172320   -4.37734e-08   4.63305e-07 DIIS

  ==> Post-Iterations <==

    Orbital Energies [Eh]
    ---------------------

    Doubly Occupied:                                                      

       1A    -19.134995     2A    -19.131386     3A    -10.227201  
       4A    -10.224684     5A     -1.020761     6A     -1.009602  
       7A     -0.730862     8A     -0.611405     9A     -0.522793  
      10A     -0.494589    11A     -0.451563    12A     -0.428072  
      13A     -0.397124    14A     -0.338351    15A     -0.326104  
      16A     -0.270047    17A     -0.264635  

    Virtual:                                                              

      18A      0.043752    19A      0.050968    20A      0.105936  
      21A      0.118349    22A      0.126855    23A      0.163689  
      24A      0.186507    25A      0.244769    26A      0.251803  
      27A      0.435380    28A      0.441588    29A      0.503222  
      30A      0.518666    31A      0.552774    32A      0.585623  
      33A      0.604063    34A      0.623430    35A      0.637606  
      36A      0.648054    37A      0.665065    38A      0.682669  
      39A      0.882475    40A      0.904562    41A      0.909838  
      42A      0.971899    43A      1.015025    44A      1.058363  
      45A      1.064382    46A      1.082072    47A      1.202099  
      48A      1.217837    49A      1.303168    50A      1.332455  
      51A      1.344902    52A      1.396287    53A      1.443407  
      54A      1.516447    55A      1.599553    56A      1.600578  
      57A      1.644503    58A      1.651096    59A      1.665167  
      60A      1.706622    61A      1.726853    62A      1.766951  
      63A      1.833940    64A      1.853763    65A      1.916736  
      66A      1.978722    67A      2.034518    68A      2.076127  
      69A      2.097984    70A      2.166566    71A      2.244753  
      72A      2.289865    73A      2.404665    74A      2.425076  
      75A      2.471670    76A      2.519374    77A      2.910781  
      78A      2.944527    79A      2.969367    80A      3.029467  
      81A      3.065343    82A      3.140873    83A      3.191182  
      84A      3.235736    85A      3.666714    86A      3.689132  

    Final Occupation by Irrep:
              A 
    DOCC [    17 ]

  Energy converged.

  @DF-RKS Final Energy:  -230.25820936172320

   => Energetics <=

    Nuclear Repulsion Energy =            129.7145658712896932
    One-Electron Energy =                -571.1443597133982166
    Two-Electron Energy =                 235.7147291910898446
    DFT Exchange-Correlation Energy =     -24.5385741207045065
    Empirical Dispersion Energy =          -0.0045705900000000
    VV10 Nonlocal Energy =                  0.0000000000000000
    Total Energy =                       -230.2582093617232033



Properties will be evaluated at   0.000000,   0.000000,   0.000000 [a0]

Properties computed using the SCF density matrix

  Nuclear Dipole Moment: [e a0]
     X:   184.5949      Y:   -22.8203      Z:    31.6444

  Electronic Dipole Moment: [e a0]
     X:  -184.6371      Y:    22.7236      Z:   -32.3656

  Dipole Moment: [e a0]
     X:    -0.0422      Y:    -0.0966      Z:    -0.7212     Total:     0.7289

  Dipole Moment: [D]
     X:    -0.1073      Y:    -0.2456      Z:    -1.8332     Total:     1.8527


*** tstop() called on loro.prib.upf.edu at Sat Sep 29 16:50:23 2018
Module time:
	user time   =      12.84 seconds =       0.21 minutes
	system time =       0.20 seconds =       0.00 minutes
	total time  =         15 seconds =       0.25 minutes
Total time:
	user time   =      12.84 seconds =       0.21 minutes
	system time =       0.20 seconds =       0.00 minutes
	total time  =         15 seconds =       0.25 minutes


Properties will be evaluated at   0.000000,   0.000000,   0.000000 [a0]
OEProp: No title given, name of density matrix used for the following properties is 'SCF density'
  Nuclear Dipole Moment: [e a0]
     X:   184.5949      Y:   -22.8203      Z:    31.6444

  Electronic Dipole Moment: [e a0]
     X:  -184.6371      Y:    22.7236      Z:   -32.3656

  Dipole Moment: [e a0]
     X:    -0.0422      Y:    -0.0966      Z:    -0.7212     Total:     0.7289

  Dipole Moment: [D]
     X:    -0.1073      Y:    -0.2456      Z:    -1.8332     Total:     1.8527

  Quadrupole Moment: [D A]
    XX:   -27.7087     YY:   -21.5557     ZZ:   -24.9665
    XY:    -4.7955     XZ:    -5.4592     YZ:    -0.3489

  Traceless Quadrupole Moment: [D A]
    XX:    -2.9651     YY:     3.1879     ZZ:    -0.2228
    XY:    -4.7955     XZ:    -5.4592     YZ:    -0.3489

  Mulliken Charges: (a.u.)
   Center  Symbol    Alpha    Beta     Spin     Total
       1     O     4.14073  4.14073  0.00000 -0.28146
       2     C     2.93834  2.93834  0.00000  0.12332
       3     C     2.93403  2.93403  0.00000  0.13195
       4     O     4.13956  4.13956  0.00000 -0.27912
       5     H     0.42819  0.42819  0.00000  0.14361
       6     H     0.49805  0.49805  0.00000  0.00390
       7     H     0.50752  0.50752  0.00000 -0.01503
       8     H     0.49706  0.49706  0.00000  0.00588
       9     H     0.48726  0.48726  0.00000  0.02547
      10     H     0.42926  0.42926  0.00000  0.14148

   Total alpha = 17.00000, Total beta = 17.00000, Total charge = -0.00000


    Psi4 stopped on: Saturday, 29 September 2018 04:50PM
    Psi4 wall time for execution: 0:00:15.66

*** Psi4 exiting successfully. Buy a developer a beer!
