
    -----------------------------------------------------------------------
          Psi4: An Open-Source Ab Initio Electronic Structure Package
                               Psi4 1.2.1 release

                         Git: Rev {HEAD} 406f4de 


    R. M. Parrish, L. A. Burns, D. G. A. Smith, A. C. Simmonett,
    A. E. DePrince III, E. G. Hohenstein, U. Bozkaya, A. Yu. Sokolov,
    R. Di Remigio, R. M. Richard, J. F. Gonthier, A. M. James,
    H. R. McAlexander, A. Kumar, M. Saitow, X. Wang, B. P. Pritchard,
    P. Verma, H. F. Schaefer III, K. Patkowski, R. A. King, E. F. Valeev,
    F. A. Evangelista, J. M. Turney, T. D. Crawford, and C. D. Sherrill,
    J. Chem. Theory Comput. 13(7) pp 3185--3197 (2017).
    (doi: 10.1021/acs.jctc.7b00174)


                         Additional Contributions by
    P. Kraus, H. Kruse, M. H. Lechner, M. C. Schieber, and R. A. Shaw

    -----------------------------------------------------------------------


    Psi4 started on: Saturday, 29 September 2018 08:41PM

    Process ID: 27558
    Host:       oliva.prib.upf.edu
    PSIDATADIR: /shared/joao/test_parameterize/miniconda3/share/psi4
    Memory:     500.0 MiB
    Threads:    1
    
  ==> Input File <==

--------------------------------------------------------------------------
set_num_threads(4)
set_memory('3000 MB')

set { scf_mem_safety_factor 0.7 }

set { reference rks }
set { basis 6-31G* }

molecule MOL {
    1 1
    noreorient
    nocom
    symmetry c1
    C   -0.000000  -0.000000  -0.177864
    C    0.036678   1.219374   0.524165
    C    0.031765   1.213120   1.915444
    C    0.000000   0.000000   2.610107
    C   -0.031765  -1.213120   1.915444
    C   -0.036678  -1.219375   0.524165
    C   -0.000000   0.000000  -1.644734
    H    0.018170   2.164705  -0.010854
    H    0.042402   2.152895   2.457886
    H    0.000000   0.000000   3.695756
    H   -0.042402  -2.152895   2.457886
    H   -0.018170  -2.164705  -0.010853
    N   -0.426605  -1.070765  -2.308461
    N    0.426605   1.070765  -2.308460
    H    0.360563   1.156065  -3.315997
    H    0.899563   1.815363  -1.813316
    H   -0.899563  -1.815363  -1.813317
    H   -0.360563  -1.156065  -3.315997
}

set optking { frozen_dihedral = (" 2 1 7 13 ") }

set optking { dynamic_level = 1 
 geom_maxiter = 250
 print_trajectory_xyz_file = True }

energy, wfn = optimize('B3LYP-D3', return_wfn=True)

import os
os.chdir(os.environ['HTMD_PSI4_WORKDIR'])

oeprop(wfn, 'DIPOLE', 'QUADRUPOLE', 'MULLIKEN_CHARGES')

with open('psi4out.xyz', 'w') as f:
    f.write('18 ' )
    f.write('%.12f\n' % energy)
    f.write(MOL.save_string_xyz())
--------------------------------------------------------------------------
  Threads set to 4 by Python driver.

  Memory set to   2.794 GiB by Python driver.
gradient() will perform analytic gradient computation.

*** tstart() called on oliva.prib.upf.edu
*** at Sat Sep 29 20:41:04 2018

   => Loading Basis Set <=

    Name: 6-31G*
    Role: ORBITAL
    Keyword: BASIS
    atoms 1-7         entry C          line   111 file /shared/joao/test_parameterize/miniconda3/share/psi4/basis/6-31gs.gbs 
    atoms 8-12, 15-18 entry H          line    44 file /shared/joao/test_parameterize/miniconda3/share/psi4/basis/6-31gs.gbs 
    atoms 13-14       entry N          line   128 file /shared/joao/test_parameterize/miniconda3/share/psi4/basis/6-31gs.gbs 


         ---------------------------------------------------------
                                   SCF
            by Justin Turney, Rob Parrish, Andy Simmonett
                             and Daniel Smith
                              RKS Reference
                        4 Threads,   2861 MiB Core
         ---------------------------------------------------------

  ==> Geometry <==

    Molecular point group: c1
    Full point group: C1

    Geometry (in Angstrom), charge = 1, multiplicity = 1:

       Center              X                  Y                   Z               Mass       
    ------------   -----------------  -----------------  -----------------  -----------------
         C            0.000000000000     0.000000000000    -0.177864000000    12.000000000000
         C            0.036678000000     1.219374000000     0.524165000000    12.000000000000
         C            0.031765000000     1.213120000000     1.915444000000    12.000000000000
         C            0.000000000000     0.000000000000     2.610107000000    12.000000000000
         C           -0.031765000000    -1.213120000000     1.915444000000    12.000000000000
         C           -0.036678000000    -1.219375000000     0.524165000000    12.000000000000
         C            0.000000000000     0.000000000000    -1.644734000000    12.000000000000
         H            0.018170000000     2.164705000000    -0.010854000000     1.007825032070
         H            0.042402000000     2.152895000000     2.457886000000     1.007825032070
         H            0.000000000000     0.000000000000     3.695756000000     1.007825032070
         H           -0.042402000000    -2.152895000000     2.457886000000     1.007825032070
         H           -0.018170000000    -2.164705000000    -0.010853000000     1.007825032070
         N           -0.426605000000    -1.070765000000    -2.308461000000    14.003074004780
         N            0.426605000000     1.070765000000    -2.308460000000    14.003074004780
         H            0.360563000000     1.156065000000    -3.315997000000     1.007825032070
         H            0.899563000000     1.815363000000    -1.813316000000     1.007825032070
         H           -0.899563000000    -1.815363000000    -1.813317000000     1.007825032070
         H           -0.360563000000    -1.156065000000    -3.315997000000     1.007825032070

  Running in c1 symmetry.

  Rotational constants: A =      0.12190  B =      0.04039  C =      0.03080 [cm^-1]
  Rotational constants: A =   3654.48754  B =   1210.85308  C =    923.30968 [MHz]
  Nuclear repulsion =  417.422718910352387

  Charge       = 1
  Multiplicity = 1
  Electrons    = 64
  Nalpha       = 32
  Nbeta        = 32

  ==> Algorithm <==

  SCF Algorithm Type is DF.
  DIIS enabled.
  MOM disabled.
  Fractional occupation disabled.
  Guess Type is SAD.
  Energy threshold   = 1.00e-08
  Density threshold  = 1.00e-08
  Integral threshold = 0.00e+00

  ==> Primary Basis <==

  Basis Set: 6-31G*
    Blend: 6-31G*
    Number of shells: 72
    Number of basis function: 153
    Number of Cartesian functions: 153
    Spherical Harmonics?: false
    Max angular momentum: 2

  ==> DFT Potential <==

   => Composite Functional: B3LYP-D3ZERO <= 

    B3LYP-d3zero Hyb-GGA Exchange-Correlation Functional

    P. J. Stephens, F. J. Devlin, C. F. Chabalowski, and M. J. Frisch, J. Phys. Chem. 98, 11623 (1994)

    Deriv               =              1
    GGA                 =           TRUE
    Meta                =          FALSE

    Exchange Hybrid     =           TRUE
    MP2 Hybrid          =          FALSE

   => Exchange Functionals <=

    0.0800   Slater exchange
    0.7200         Becke 88

   => Exact (HF) Exchange <=

    0.2000               HF 

   => Correlation Functionals <=

    0.1900   Vosko, Wilk & Nusair (VWN5_RPA)
    0.8100   Lee, Yang & Parr

   => Molecular Quadrature <=

    Radial Scheme       =       TREUTLER
    Pruning Scheme      =           FLAT
    Nuclear Scheme      =       TREUTLER

    BS radius alpha     =              1
    Pruning alpha       =              1
    Radial Points       =             75
    Spherical Points    =            302
    Total Points        =         396714
    Total Blocks        =           2993
    Max Points          =            256
    Max Functions       =            149

   => -D3ZERO: Empirical Dispersion <=

    Grimme's -D3 (zero-damping) Dispersion Correction
    Grimme S.; Antony J.; Ehrlich S.; Krieg H. (2010), J. Chem. Phys., 132: 154104

        S6 =   1.000000E+00
        S8 =   1.703000E+00
       SR6 =   1.261000E+00
       SR8 =   1.000000E+00
    ALPHA6 =   1.400000E+01

   => Loading Basis Set <=

    Name: (6-31G* AUX)
    Role: JKFIT
    Keyword: DF_BASIS_SCF
    atoms 1-7         entry C          line   121 file /shared/joao/test_parameterize/miniconda3/share/psi4/basis/cc-pvdz-jkfit.gbs 
    atoms 8-12, 15-18 entry H          line    51 file /shared/joao/test_parameterize/miniconda3/share/psi4/basis/cc-pvdz-jkfit.gbs 
    atoms 13-14       entry N          line   171 file /shared/joao/test_parameterize/miniconda3/share/psi4/basis/cc-pvdz-jkfit.gbs 

  ==> Pre-Iterations <==

   -------------------------------------------------------
    Irrep   Nso     Nmo     Nalpha   Nbeta   Ndocc  Nsocc
   -------------------------------------------------------
     A        153     153       0       0       0       0
   -------------------------------------------------------
    Total     153     153      32      32      32       0
   -------------------------------------------------------

  ==> Integral Setup <==

  ==> DiskDFJK: Density-Fitted J/K Matrices <==

    J tasked:                  Yes
    K tasked:                  Yes
    wK tasked:                  No
    OpenMP threads:              4
    Integrals threads:           4
    Memory (MB):              2002
    Algorithm:                Core
    Integral Cache:           NONE
    Schwarz Cutoff:          1E-12
    Fitting Condition:       1E-12

   => Auxiliary Basis Set <=

  Basis Set: (6-31G* AUX)
    Blend: CC-PVDZ-JKFIT
    Number of shells: 297
    Number of basis function: 954
    Number of Cartesian functions: 954
    Spherical Harmonics?: false
    Max angular momentum: 3

  Minimum eigenvalue in the overlap matrix is 4.8422295632E-04.
  Using Symmetric Orthogonalization.

  SCF Guess: Superposition of Atomic Densities via on-the-fly atomic UHF.

  ==> Iterations <==

                           Total Energy        Delta E     RMS |[F,P]|

   @DF-RKS iter   0:  -379.55878020042644   -3.79559e+02   6.79521e-02 
   @DF-RKS iter   1:  -381.02635051513192   -1.46757e+00   1.22242e-02 
   @DF-RKS iter   2:  -380.93224619054519    9.41043e-02   1.33249e-02 DIIS
   @DF-RKS iter   3:  -381.45970344822331   -5.27457e-01   1.79660e-03 DIIS
   @DF-RKS iter   4:  -381.46659459297234   -6.89114e-03   8.60778e-04 DIIS
   @DF-RKS iter   5:  -381.46841066466538   -1.81607e-03   2.48488e-04 DIIS
   @DF-RKS iter   6:  -381.46855965882673   -1.48994e-04   8.57466e-05 DIIS
   @DF-RKS iter   7:  -381.46857982095906   -2.01621e-05   2.09320e-05 DIIS
   @DF-RKS iter   8:  -381.46858111200112   -1.29104e-06   6.48297e-06 DIIS
   @DF-RKS iter   9:  -381.46858124608229   -1.34081e-07   2.10755e-06 DIIS
   @DF-RKS iter  10:  -381.46858125924342   -1.31611e-08   6.09026e-07 DIIS
   @DF-RKS iter  11:  -381.46858126025171   -1.00829e-09   1.37070e-07 DIIS
   @DF-RKS iter  12:  -381.46858126029036   -3.86535e-11   8.68575e-08 DIIS
   @DF-RKS iter  13:  -381.46858126031663   -2.62617e-11   1.21392e-08 DIIS
   @DF-RKS iter  14:  -381.46858126031697   -3.41061e-13   3.79248e-09 DIIS

  ==> Post-Iterations <==

    Orbital Energies [Eh]
    ---------------------

    Doubly Occupied:                                                      

       1A    -14.566205     2A    -14.566198     3A    -10.496469  
       4A    -10.375036     5A    -10.359564     6A    -10.359554  
       7A    -10.345832     8A    -10.342983     9A    -10.342932  
      10A     -1.183071    11A     -1.091493    12A     -1.016469  
      13A     -0.927986    14A     -0.905201    15A     -0.846706  
      16A     -0.785590    17A     -0.777411    18A     -0.738557  
      19A     -0.736236    20A     -0.689258    21A     -0.668909  
      22A     -0.630176    23A     -0.613985    24A     -0.594952  
      25A     -0.580469    26A     -0.576818    27A     -0.518555  
      28A     -0.508714    29A     -0.501186    30A     -0.471967  
      31A     -0.413117    32A     -0.407994  

    Virtual:                                                              

      33A     -0.222006    34A     -0.158747    35A     -0.117499  
      36A     -0.110254    37A     -0.072189    38A     -0.065553  
      39A     -0.040106    40A     -0.033137    41A      0.010047  
      42A      0.022724    43A      0.026275    44A      0.062630  
      45A      0.066498    46A      0.085705    47A      0.120560  
      48A      0.136139    49A      0.153573    50A      0.178345  
      51A      0.204796    52A      0.246068    53A      0.300751  
      54A      0.350327    55A      0.351973    56A      0.376553  
      57A      0.390477    58A      0.396289    59A      0.419013  
      60A      0.426801    61A      0.437482    62A      0.450272  
      63A      0.453061    64A      0.470032    65A      0.471235  
      66A      0.473188    67A      0.483418    68A      0.503385  
      69A      0.513687    70A      0.538545    71A      0.553929  
      72A      0.596546    73A      0.613184    74A      0.650383  
      75A      0.667319    76A      0.688039    77A      0.692816  
      78A      0.703234    79A      0.717081    80A      0.734176  
      81A      0.758272    82A      0.774262    83A      0.792941  
      84A      0.805266    85A      0.833072    86A      0.837604  
      87A      0.858024    88A      0.933240    89A      0.956733  
      90A      1.018216    91A      1.018560    92A      1.039028  
      93A      1.075522    94A      1.087905    95A      1.131100  
      96A      1.179530    97A      1.187267    98A      1.274849  
      99A      1.278558   100A      1.308265   101A      1.323037  
     102A      1.341556   103A      1.359345   104A      1.390518  
     105A      1.442998   106A      1.453189   107A      1.488880  
     108A      1.599623   109A      1.625736   110A      1.647655  
     111A      1.666474   112A      1.737156   113A      1.754192  
     114A      1.795124   115A      1.819345   116A      1.860468  
     117A      1.902346   118A      1.909980   119A      1.942458  
     120A      1.976011   121A      1.992950   122A      2.018234  
     123A      2.043102   124A      2.064283   125A      2.117616  
     126A      2.122706   127A      2.149472   128A      2.211493  
     129A      2.260574   130A      2.278160   131A      2.327165  
     132A      2.360638   133A      2.447449   134A      2.470970  
     135A      2.489307   136A      2.496019   137A      2.535810  
     138A      2.589774   139A      2.595585   140A      2.639803  
     141A      2.740510   142A      2.885504   143A      3.002568  
     144A      3.258652   145A      3.642208   146A      3.681755  
     147A      3.901297   148A      3.943569   149A      3.960309  
     150A      4.040601   151A      4.168546   152A      4.257306  
     153A      4.546577  

    Final Occupation by Irrep:
              A 
    DOCC [    32 ]

  Energy converged.

  @DF-RKS Final Energy:  -381.46858126031697

   => Energetics <=

    Nuclear Repulsion Energy =            417.4227189103523870
    One-Electron Energy =               -1329.9540893409389355
    Two-Electron Energy =                 575.4833998527939229
    DFT Exchange-Correlation Energy =     -44.4090070325244071
    Empirical Dispersion Energy =          -0.0116036500000000
    VV10 Nonlocal Energy =                  0.0000000000000000
    Total Energy =                       -381.4685812603170234



Properties will be evaluated at   0.000000,   0.000000,   0.000000 [a0]

Properties computed using the SCF density matrix

  Nuclear Dipole Moment: [e a0]
     X:     0.0000      Y:    -0.0000      Z:     0.0248

  Electronic Dipole Moment: [e a0]
     X:     0.0000      Y:     0.0000      Z:    -2.1994

  Dipole Moment: [e a0]
     X:     0.0000      Y:     0.0000      Z:    -2.1747     Total:     2.1747

  Dipole Moment: [D]
     X:     0.0000      Y:     0.0000      Z:    -5.5275     Total:     5.5275


*** tstop() called on oliva.prib.upf.edu at Sat Sep 29 20:41:32 2018
Module time:
	user time   =      99.09 seconds =       1.65 minutes
	system time =       0.72 seconds =       0.01 minutes
	total time  =         28 seconds =       0.47 minutes
Total time:
	user time   =      99.09 seconds =       1.65 minutes
	system time =       0.72 seconds =       0.01 minutes
	total time  =         28 seconds =       0.47 minutes

*** tstart() called on oliva.prib.upf.edu
*** at Sat Sep 29 20:41:32 2018


         ------------------------------------------------------------
                                   SCF GRAD                          
                          Rob Parrish, Justin Turney,                
                       Andy Simmonett, and Alex Sokolov              
         ------------------------------------------------------------

  ==> Geometry <==

    Molecular point group: c1
    Full point group: C1

    Geometry (in Angstrom), charge = 1, multiplicity = 1:

       Center              X                  Y                   Z               Mass       
    ------------   -----------------  -----------------  -----------------  -----------------
         C            0.000000000000     0.000000000000    -0.177864000000    12.000000000000
         C            0.036678000000     1.219374000000     0.524165000000    12.000000000000
         C            0.031765000000     1.213120000000     1.915444000000    12.000000000000
         C            0.000000000000     0.000000000000     2.610107000000    12.000000000000
         C           -0.031765000000    -1.213120000000     1.915444000000    12.000000000000
         C           -0.036678000000    -1.219375000000     0.524165000000    12.000000000000
         C            0.000000000000     0.000000000000    -1.644734000000    12.000000000000
         H            0.018170000000     2.164705000000    -0.010854000000     1.007825032070
         H            0.042402000000     2.152895000000     2.457886000000     1.007825032070
         H            0.000000000000     0.000000000000     3.695756000000     1.007825032070
         H           -0.042402000000    -2.152895000000     2.457886000000     1.007825032070
         H           -0.018170000000    -2.164705000000    -0.010853000000     1.007825032070
         N           -0.426605000000    -1.070765000000    -2.308461000000    14.003074004780
         N            0.426605000000     1.070765000000    -2.308460000000    14.003074004780
         H            0.360563000000     1.156065000000    -3.315997000000     1.007825032070
         H            0.899563000000     1.815363000000    -1.813316000000     1.007825032070
         H           -0.899563000000    -1.815363000000    -1.813317000000     1.007825032070
         H           -0.360563000000    -1.156065000000    -3.315997000000     1.007825032070

  Nuclear repulsion =  417.422718910352387

  ==> Basis Set <==

  Basis Set: 6-31G*
    Blend: 6-31G*
    Number of shells: 72
    Number of basis function: 153
    Number of Cartesian functions: 153
    Spherical Harmonics?: false
    Max angular momentum: 2

  ==> DFJKGrad: Density-Fitted SCF Gradients <==

    Gradient:                    1
    J tasked:                  Yes
    K tasked:                  Yes
    wK tasked:                  No
    OpenMP threads:              4
    Integrals threads:           4
    Memory (MB):              2002
    Schwarz Cutoff:          0E+00
    Fitting Condition:       1E-12

   => Auxiliary Basis Set <=

  Basis Set: (6-31G* AUX)
    Blend: CC-PVDZ-JKFIT
    Number of shells: 297
    Number of basis function: 954
    Number of Cartesian functions: 954
    Spherical Harmonics?: false
    Max angular momentum: 3

  ==> DFT Potential <==

   => Composite Functional: B3LYP-D3ZERO <= 

    B3LYP-d3zero Hyb-GGA Exchange-Correlation Functional

    P. J. Stephens, F. J. Devlin, C. F. Chabalowski, and M. J. Frisch, J. Phys. Chem. 98, 11623 (1994)

    Deriv               =              1
    GGA                 =           TRUE
    Meta                =          FALSE

    Exchange Hybrid     =           TRUE
    MP2 Hybrid          =          FALSE

   => Exchange Functionals <=

    0.0800   Slater exchange
    0.7200         Becke 88

   => Exact (HF) Exchange <=

    0.2000               HF 

   => Correlation Functionals <=

    0.1900   Vosko, Wilk & Nusair (VWN5_RPA)
    0.8100   Lee, Yang & Parr

   => Molecular Quadrature <=

    Radial Scheme       =       TREUTLER
    Pruning Scheme      =           FLAT
    Nuclear Scheme      =       TREUTLER

    BS radius alpha     =              1
    Pruning alpha       =              1
    Radial Points       =             75
    Spherical Points    =            302
    Total Points        =         396714
    Total Blocks        =           2993
    Max Points          =            256
    Max Functions       =            149


  -Total Gradient:
     Atom            X                  Y                   Z
    ------   -----------------  -----------------  -----------------
       1        0.000000040633     0.000000645202     0.002041074541
       2        0.001724143426     0.002047295103    -0.001859206056
       3       -0.000285811668    -0.001073307097     0.000759281667
       4       -0.000000000329    -0.000000065236     0.000215062791
       5        0.000285809601     0.001073529568     0.000759395046
       6       -0.001724139554    -0.002048744775    -0.001859560722
       7        0.000000091409     0.000000212952    -0.002533941310
       8        0.000897196751    -0.000500199565    -0.002260824798
       9       -0.000171915517     0.000060007383    -0.000044996783
      10        0.000000001488     0.000000006132     0.000042843540
      11        0.000171914307    -0.000060015349    -0.000045053607
      12       -0.000897201306     0.000500949253    -0.002260336167
      13        0.001550522544    -0.000498793295     0.002019465747
      14       -0.001550568615     0.000498461635     0.002020744937
      15       -0.000347048595     0.000313950730    -0.000486435434
      16       -0.000218058869     0.000568757915     0.001990289780
      17        0.000218064059    -0.000568746344     0.001990295280
      18        0.000346960264    -0.000313944230    -0.000485571318


*** tstop() called on oliva.prib.upf.edu at Sat Sep 29 20:41:39 2018
Module time:
	user time   =      27.45 seconds =       0.46 minutes
	system time =       0.26 seconds =       0.00 minutes
	total time  =          7 seconds =       0.12 minutes
Total time:
	user time   =     126.60 seconds =       2.11 minutes
	system time =       0.99 seconds =       0.02 minutes
	total time  =         35 seconds =       0.58 minutes

			-----------------------------------------
			 OPTKING 2.0: for geometry optimizations 
			  - R.A. King,  Bethel University        
			-----------------------------------------
	At level 1: Red. Int., RFO, no backsteps, dynamic trust

	Internal coordinates to be generated automatically.
	Detected frag 1 with atoms:  1 2 3 4 5 6 7 8 9 10 11 12 13 14 15 16 17 18
	---Fragment 1 Bond Connectivity---
	 1 : 2 6 7
	 2 : 1 3 8
	 3 : 2 4 9
	 4 : 3 5 10
	 5 : 4 6 11
	 6 : 1 5 12
	 7 : 1 13 14
	 8 : 2
	 9 : 3
	 10 : 4
	 11 : 5
	 12 : 6
	 13 : 7 17 18
	 14 : 7 15 16
	 15 : 14
	 16 : 14
	 17 : 13
	 18 : 13

	Assuming in current code that numbering for constraints corresponds to unified fragment.
	Frozen dihedral atom list: 
	     2     1     7    13
	---Fragment 1 Geometry and Gradient---
	 C           0.0000000000        0.0000000000       -0.3361142489
	 C           0.0693113751        2.3042829136        0.9905282984
	 C           0.0600271506        2.2924645663        3.6196645829
	 C           0.0000000000        0.0000000000        4.9323874075
	 C          -0.0600271506       -2.2924645663        3.6196645829
	 C          -0.0693113751       -2.3042848033        0.9905282984
	 C           0.0000000000        0.0000000000       -3.1080968214
	 H           0.0343363238        4.0906996085       -0.0205110874
	 H           0.0801281675        4.0683819429        4.6447314059
	 H           0.0000000000        0.0000000000        6.9839666940
	 H          -0.0801281675       -4.0683819429        4.6447314059
	 H          -0.0343363238       -4.0906996085       -0.0205091977
	 N          -0.8061666169       -2.0234526027       -4.3623590784
	 N           0.8061666169        2.0234526027       -4.3623571887
	 H           0.6813653237        2.1846462418       -6.2663261875
	 H           1.6999277093        3.4305389018       -3.4266706324
	 H          -1.6999277093       -3.4305389018       -3.4266725221
	 H          -0.6813653237       -2.1846462418       -6.2663261875
	             0.0000000406        0.0000006452        0.0020410745
	             0.0017241434        0.0020472951       -0.0018592061
	            -0.0002858117       -0.0010733071        0.0007592817
	            -0.0000000003       -0.0000000652        0.0002150628
	             0.0002858096        0.0010735296        0.0007593950
	            -0.0017241396       -0.0020487448       -0.0018595607
	             0.0000000914        0.0000002130       -0.0025339413
	             0.0008971968       -0.0005001996       -0.0022608248
	            -0.0001719155        0.0000600074       -0.0000449968
	             0.0000000015        0.0000000061        0.0000428435
	             0.0001719143       -0.0000600153       -0.0000450536
	            -0.0008972013        0.0005009493       -0.0022603362
	             0.0015505225       -0.0004987933        0.0020194657
	            -0.0015505686        0.0004984616        0.0020207449
	            -0.0003470486        0.0003139507       -0.0004864354
	            -0.0002180589        0.0005687579        0.0019902898
	             0.0002180641       -0.0005687463        0.0019902953
	             0.0003469603       -0.0003139442       -0.0004855713

	Previous optimization step data not found.  Starting new optimization.

	---Fragment 1 Intrafragment Coordinates---
	 - Coordinate -           - BOHR/RAD -       - ANG/DEG -
	 R(1,2)           =         2.659794	       1.407502
	 R(1,6)           =         2.659796	       1.407503
	 R(1,7)           =         2.771983	       1.466870
	 R(2,3)           =         2.629179	       1.391302
	 R(2,8)           =         2.052976	       1.086388
	 R(3,4)           =         2.642393	       1.398294
	 R(3,9)           =         2.050622	       1.085142
	 R(4,5)           =         2.642393	       1.398294
	 R(4,10)          =         2.051579	       1.085649
	 R(5,6)           =         2.629179	       1.391302
	 R(5,11)          =         2.050622	       1.085142
	 R(6,12)          =         2.052973	       1.086386
	 R(7,13)          =         2.513452	       1.330061
	 R(7,14)          =         2.513451	       1.330061
	 R(13,17)         =         1.911599	       1.011575
	 R(13,18)         =         1.914850	       1.013295
	 R(14,15)         =         1.914852	       1.013296
	 R(14,16)         =         1.911599	       1.011575
	 B(1,2,3)         =         2.088380	     119.655376
	 B(1,2,8)         =         2.103396	     120.515689
	 B(1,6,5)         =         2.088379	     119.655315
	 B(1,6,12)        =         2.103396	     120.515729
	 B(1,7,13)        =         2.093264	     119.935176
	 B(1,7,14)        =         2.093263	     119.935138
	 B(2,1,6)         =         2.097220	     120.161857
	 B(2,1,7)         =         2.092983	     119.919082
	 B(2,3,4)         =         2.095279	     120.050636
	 B(2,3,9)         =         2.089719	     119.732108
	 B(3,2,8)         =         2.090149	     119.756722
	 B(3,4,5)         =         2.101793	     120.423859
	 B(3,4,10)        =         2.090696	     119.788070
	 B(4,3,9)         =         2.098135	     120.214297
	 B(4,5,6)         =         2.095280	     120.050677
	 B(4,5,11)        =         2.098135	     120.214297
	 B(5,4,10)        =         2.090696	     119.788070
	 B(5,6,12)        =         2.090149	     119.756743
	 B(6,1,7)         =         2.092982	     119.919061
	 B(6,5,11)        =         2.089719	     119.732067
	 B(7,13,17)       =         2.092411	     119.886340
	 B(7,13,18)       =         2.144860	     122.891444
	 B(7,14,15)       =         2.144860	     122.891404
	 B(7,14,16)       =         2.092412	     119.886376
	 B(13,7,14)       =         2.096659	     120.129686
	 B(15,14,16)      =         2.043399	     117.078164
	 B(17,13,18)      =         2.043399	     117.078161
	 D(1,2,3,4)       =         0.007799	       0.446825
	 D(1,2,3,9)       =        -3.122896	    -178.928735
	 D(1,6,5,4)       =         0.007799	       0.446822
	 D(1,6,5,11)      =        -3.122896	    -178.928737
	 D(1,7,13,17)     =         0.187844	      10.762666
	 D(1,7,13,18)     =        -3.032164	    -173.730212
	 D(1,7,14,15)     =        -3.032164	    -173.730221
	 D(1,7,14,16)     =         0.187844	      10.762670
	 D(2,1,6,5)       =        -0.003906	      -0.223802
	 D(2,1,6,12)      =        -3.091437	    -177.126283
	*D(2,1,7,13)      =        -2.792527	    -160.000000
	 D(2,1,7,14)      =         0.349066	      20.000000
	 D(2,3,4,5)       =        -0.003942	      -0.225875
	 D(2,3,4,10)      =         3.137650	     179.774125
	 D(3,2,1,6)       =        -0.003906	      -0.223806
	 D(3,2,1,7)       =         3.137687	     179.776196
	 D(3,4,5,6)       =        -0.003942	      -0.225874
	 D(3,4,5,11)      =         3.126699	     179.146646
	 D(4,3,2,8)       =         3.095744	     177.373058
	 D(4,5,6,12)      =         3.095744	     177.373055
	 D(5,4,3,9)       =         3.126699	     179.146646
	 D(5,6,1,7)       =         3.137687	     179.776197
	 D(6,1,2,8)       =        -3.091437	    -177.126287
	 D(6,1,7,13)      =         0.349066	      20.000002
	 D(6,1,7,14)      =        -2.792527	    -159.999998
	 D(6,5,4,10)      =         3.137650	     179.774126
	 D(7,1,2,8)       =         0.050156	       2.873714
	 D(7,1,6,12)      =         0.050156	       2.873716
	 D(8,2,3,9)       =        -0.034950	      -2.002503
	 D(9,3,4,10)      =        -0.014894	      -0.853354
	 D(10,4,5,11)     =        -0.014894	      -0.853354
	 D(11,5,6,12)     =        -0.034950	      -2.002504
	 D(13,7,14,15)    =         0.109428	       6.269779
	 D(13,7,14,16)    =        -2.953749	    -169.237330
	 D(14,7,13,17)    =        -2.953749	    -169.237334
	 D(14,7,13,18)    =         0.109428	       6.269788

	Current energy   :      -381.4685812603

	Generating empirical Hessian (Schlegel '84) for each fragment.
	Taking RFO optimization step.
	Going to follow RFO solution 1.
	Using RFO vector 1.
	Norm of target step-size    0.27472
	Projected energy change by RFO approximation:        -0.0024849252

	Back-transformation to cartesian coordinates...
	Could not converge backtransformation.
	Using first guess instead.

	Back-transformation to cartesian coordinates to adjust frozen coordinates...
	Successfully converged to displaced geometry.

	--- Internal Coordinate Step in ANG or DEG, aJ/ANG or AJ/DEG ---
	 ---------------------------------------------------------------------------
	   Coordinate                Previous        Force       Change         New 
	   ----------                --------       ------       ------       ------
	    1 R(1,2)          =      1.407502     0.015941     0.002453     1.409955
	    2 R(1,6)          =      1.407503     0.015930     0.004492     1.411995
	    3 R(1,7)          =      1.466870     0.037188     0.006727     1.473597
	    4 R(2,3)          =      1.391302    -0.007016    -0.000411     1.390891
	    5 R(2,8)          =      1.086388    -0.005462     0.000243     1.086631
	    6 R(3,4)          =      1.398294    -0.007286    -0.000450     1.397844
	    7 R(3,9)          =      1.085142    -0.000228    -0.000027     1.085115
	    8 R(4,5)          =      1.398294    -0.007292    -0.000957     1.397337
	    9 R(4,10)         =      1.085649    -0.000352     0.000293     1.085942
	   10 R(5,6)          =      1.391302    -0.007028    -0.000702     1.390599
	   11 R(5,11)         =      1.085142    -0.000228     0.000993     1.086136
	   12 R(6,12)         =      1.086386    -0.005454     0.000164     1.086550
	   13 R(7,13)         =      1.330061     0.010915     0.001489     1.331550
	   14 R(7,14)         =      1.330061     0.010919     0.005721     1.335781
	   15 R(13,17)        =      1.011575    -0.010635     0.001777     1.013352
	   16 R(13,18)        =      1.013295    -0.004383     0.000351     1.013646
	   17 R(14,15)        =      1.013296    -0.004390     0.001283     1.014579
	   18 R(14,16)        =      1.011575    -0.010635     0.000268     1.011842
	   19 B(1,2,3)        =    119.655376     0.000159     0.519775   120.175151
	   20 B(1,2,8)        =    120.515689     0.000091     0.471429   120.987118
	   21 B(1,6,5)        =    119.655315     0.000160     0.550265   120.205579
	   22 B(1,6,12)       =    120.515729     0.000092     0.599926   121.115655
	   23 B(1,7,13)       =    119.935176     0.000289     0.860317   120.795493
	   24 B(1,7,14)       =    119.935138     0.000289     0.813926   120.749065
	   25 B(2,1,6)        =    120.161857    -0.000316    -0.977606   119.184251
	   26 B(2,1,7)        =    119.919082     0.000158     0.458035   120.377117
	   27 B(2,3,4)        =    120.050636     0.000014     0.039521   120.090157
	   28 B(2,3,9)        =    119.732108    -0.000002    -0.004569   119.727539
	   29 B(3,2,8)        =    119.756722    -0.000251    -1.052563   118.704158
	   30 B(3,4,5)        =    120.423859    -0.000031    -0.149330   120.274529
	   31 B(3,4,10)       =    119.788070     0.000015     0.104697   119.892767
	   32 B(4,3,9)        =    120.214297    -0.000012    -0.036447   120.177849
	   33 B(4,5,6)        =    120.050677     0.000014    -0.015892   120.034785
	   34 B(4,5,11)       =    120.214297    -0.000012    -0.028760   120.185536
	   35 B(5,4,10)       =    119.788070     0.000015     0.042018   119.830088
	   36 B(5,6,12)       =    119.756743    -0.000252    -1.174241   118.582502
	   37 B(6,1,7)        =    119.919061     0.000158     0.358449   120.277510
	   38 B(6,5,11)       =    119.732067    -0.000002     0.034009   119.766075
	   39 B(7,13,17)      =    119.886340     0.000144     0.568223   120.454563
	   40 B(7,13,18)      =    122.891444    -0.000082    -0.455421   122.436023
	   41 B(7,14,15)      =    122.891404    -0.000082    -0.274282   122.617122
	   42 B(7,14,16)      =    119.886376     0.000144     0.775872   120.662249
	   43 B(13,7,14)      =    120.129686    -0.000579    -1.820464   118.309222
	   44 B(15,14,16)     =    117.078164    -0.000066    -0.679541   116.398623
	   45 B(17,13,18)     =    117.078161    -0.000066    -0.295890   116.782271
	   46 D(1,2,3,4)      =      0.446825    -0.000000     0.260083     0.706908
	   47 D(1,2,3,9)      =   -178.928735     0.000001     0.401979  -178.526756
	   48 D(1,6,5,4)      =      0.446822    -0.000008    -1.427621    -0.980799
	   49 D(1,6,5,11)     =   -178.928737    -0.000004    -0.713056  -179.641794
	   50 D(1,7,13,17)    =     10.762666     0.000022     3.776130    14.538796
	   51 D(1,7,13,18)    =   -173.730212     0.000006     1.487710  -172.242502
	   52 D(1,7,14,15)    =   -173.730221    -0.000016    -3.057084  -176.787305
	   53 D(1,7,14,16)    =     10.762670    -0.000000    -0.796701     9.965969
	   54 D(2,1,6,5)      =     -0.223802     0.000012     2.398437     2.174636
	   55 D(2,1,6,12)     =   -177.126283     0.000016     2.918987  -174.207295
	   56 *D(2,1,7,13)    =   -160.000000    -0.000000     0.000000  -160.000000
	   57 D(2,1,7,14)     =     20.000000     0.000022     4.469745    24.469746
	   58 D(2,3,4,5)      =     -0.225875     0.000004     0.740159     0.514284
	   59 D(2,3,4,10)     =    179.774125     0.000001     0.150888   179.925013
	   60 D(3,2,1,6)      =     -0.223806    -0.000008    -1.812415    -2.036221
	   61 D(3,2,1,7)      =    179.776196     0.000013     2.787932   182.564128
	   62 D(3,4,5,6)      =     -0.225874     0.000000    -0.150057    -0.375931
	   63 D(3,4,5,11)     =    179.146646    -0.000004    -0.867250   178.279396
	   64 D(4,3,2,8)      =    177.373058    -0.000005    -0.825566   176.547492
	   65 D(4,5,6,12)     =    177.373055    -0.000010    -1.881150   175.491906
	   66 D(5,4,3,9)      =    179.146646     0.000003     0.597822   179.744469
	   67 D(5,6,1,7)      =    179.776197    -0.000009    -2.197223   177.578974
	   68 D(6,1,2,8)      =   -177.126287    -0.000000    -0.654139  -177.780426
	   69 D(6,1,7,13)     =     20.000002     0.000020     4.650865    24.650867
	   70 D(6,1,7,14)     =   -159.999998     0.000042     9.120610  -150.879388
	   71 D(6,5,4,10)     =    179.774126     0.000003     0.438844   180.212970
	   72 D(7,1,2,8)      =      2.873714     0.000020     3.946208     6.819923
	   73 D(7,1,6,12)     =      2.873716    -0.000004    -1.676674     1.197042
	   74 D(8,2,3,9)      =     -2.002503    -0.000004    -0.683669    -2.686172
	   75 D(9,3,4,10)     =     -0.853354     0.000000     0.008552    -0.844802
	   76 D(10,4,5,11)    =     -0.853354    -0.000001    -0.278350    -1.131703
	   77 D(11,5,6,12)    =     -2.002504    -0.000006    -1.166585    -3.169089
	   78 D(13,7,14,15)   =      6.269779     0.000006     1.303797     7.573576
	   79 D(13,7,14,16)   =   -169.237330     0.000022     3.564181  -165.673150
	   80 D(14,7,13,17)   =   -169.237334    -0.000000    -0.586860  -169.824194
	   81 D(14,7,13,18)   =      6.269788    -0.000016    -2.875280     3.394508
	 ---------------------------------------------------------------------------
	Successfully symmetrized geometry.

  ==> Convergence Check <==

  Measures of convergence in internal coordinates in au.
  Criteria marked as inactive (o), active & met (*), and active & unmet ( ).
  --------------------------------------------------------------------------------------------- ~
   Step     Total Energy     Delta E     MAX Force     RMS Force      MAX Disp      RMS Disp    ~
  --------------------------------------------------------------------------------------------- ~
    Convergence Criteria    1.00e-06 *    3.00e-04 *             o    1.20e-03 *             o  ~
  --------------------------------------------------------------------------------------------- ~
      1    -381.46858126   -3.81e+02      7.60e-03      1.63e-03 o    1.59e-01      3.05e-02 o  ~
  ---------------------------------------------------------------------------------------------

	Writing optimization data to binary file.
	Structure for next step:
	Cartesian Geometry (in Angstrom)
	    C    -0.0674324619   0.0088108116  -0.1739237394
	    C    -0.0288157541   1.2232306288   0.5413853624
	    C     0.0050674723   1.2148497908   1.9318381119
	    C     0.0158700730   0.0011968149   2.6253066462
	    C     0.0035709985  -1.2091844910   1.9271834172
	    C    -0.0274110839  -1.2105394354   0.5369299137
	    C    -0.0465566359   0.0108618940  -1.6473717051
	    H    -0.0939762786   2.1780019763   0.0266685528
	    H     0.0104610995   2.1538642088   2.4756185886
	    H     0.0435755007  -0.0016120576   3.7108914933
	    H     0.0401694860  -2.1511688097   2.4666429602
	    H     0.0385647248  -2.1620197141   0.0164261957
	    N    -0.4707966955  -1.0464698204  -2.3366441803
	    N     0.4800495948   1.0367940677  -2.3215088502
	    H     0.4668436179   1.0899149649  -3.3346098789
	    H     1.0048781930   1.7555783583  -1.8401262609
	    H    -1.0118279409  -1.7726706320  -1.8818919562
	    H    -0.3622339097  -1.1194395558  -3.3418146711
			--------------------------
			 OPTKING Finished Execution 
			--------------------------

    Structure for next step:
    Molecular point group: c1
    Full point group: C1

    Geometry (in Angstrom), charge = 1, multiplicity = 1:

    C           -0.067432461889     0.008810811639    -0.173923739419
    C           -0.028815754077     1.223230628821     0.541385362366
    C            0.005067472293     1.214849790835     1.931838111936
    C            0.015870073017     0.001196814930     2.625306646242
    C            0.003570998451    -1.209184491045     1.927183417233
    C           -0.027411083860    -1.210539435390     0.536929913725
    C           -0.046556635924     0.010861893966    -1.647371705067
    H           -0.093976278607     2.178001976258     0.026668552841
    H            0.010461099511     2.153864208756     2.475618588581
    H            0.043575500745    -0.001612057568     3.710891493293
    H            0.040169485983    -2.151168809729     2.466642960238
    H            0.038564724811    -2.162019714143     0.016426195663
    N           -0.470796695470    -1.046469820442    -2.336644180271
    N            0.480049594781     1.036794067695    -2.321508850157
    H            0.466843617851     1.089914964902    -3.334609878922
    H            1.004878192954     1.755578358310    -1.840126260941
    H           -1.011827940870    -1.772670632003    -1.881891956220
    H           -0.362233909702    -1.119439555792    -3.341814671121

gradient() will perform analytic gradient computation.

*** tstart() called on oliva.prib.upf.edu
*** at Sat Sep 29 20:41:40 2018

   => Loading Basis Set <=

    Name: 6-31G*
    Role: ORBITAL
    Keyword: BASIS
    atoms 1-7         entry C          line   111 file /shared/joao/test_parameterize/miniconda3/share/psi4/basis/6-31gs.gbs 
    atoms 8-12, 15-18 entry H          line    44 file /shared/joao/test_parameterize/miniconda3/share/psi4/basis/6-31gs.gbs 
    atoms 13-14       entry N          line   128 file /shared/joao/test_parameterize/miniconda3/share/psi4/basis/6-31gs.gbs 


         ---------------------------------------------------------
                                   SCF
            by Justin Turney, Rob Parrish, Andy Simmonett
                             and Daniel Smith
                              RKS Reference
                        4 Threads,   2861 MiB Core
         ---------------------------------------------------------

  ==> Geometry <==

    Molecular point group: c1
    Full point group: C1

    Geometry (in Angstrom), charge = 1, multiplicity = 1:

       Center              X                  Y                   Z               Mass       
    ------------   -----------------  -----------------  -----------------  -----------------
         C           -0.067432461889     0.008810811639    -0.173923739419    12.000000000000
         C           -0.028815754077     1.223230628821     0.541385362366    12.000000000000
         C            0.005067472293     1.214849790835     1.931838111936    12.000000000000
         C            0.015870073017     0.001196814930     2.625306646242    12.000000000000
         C            0.003570998451    -1.209184491045     1.927183417233    12.000000000000
         C           -0.027411083860    -1.210539435390     0.536929913725    12.000000000000
         C           -0.046556635924     0.010861893966    -1.647371705067    12.000000000000
         H           -0.093976278607     2.178001976258     0.026668552841     1.007825032070
         H            0.010461099511     2.153864208756     2.475618588581     1.007825032070
         H            0.043575500745    -0.001612057568     3.710891493293     1.007825032070
         H            0.040169485983    -2.151168809729     2.466642960238     1.007825032070
         H            0.038564724811    -2.162019714143     0.016426195663     1.007825032070
         N           -0.470796695470    -1.046469820442    -2.336644180271    14.003074004780
         N            0.480049594781     1.036794067695    -2.321508850157    14.003074004780
         H            0.466843617851     1.089914964902    -3.334609878922     1.007825032070
         H            1.004878192954     1.755578358310    -1.840126260941     1.007825032070
         H           -1.011827940870    -1.772670632003    -1.881891956220     1.007825032070
         H           -0.362233909702    -1.119439555792    -3.341814671121     1.007825032070

  Running in c1 symmetry.

  Rotational constants: A =      0.12252  B =      0.03960  C =      0.03060 [cm^-1]
  Rotational constants: A =   3673.01628  B =   1187.09292  C =    917.33942 [MHz]
  Nuclear repulsion =  416.068697088618308

  Charge       = 1
  Multiplicity = 1
  Electrons    = 64
  Nalpha       = 32
  Nbeta        = 32

  ==> Algorithm <==

  SCF Algorithm Type is DF.
  DIIS enabled.
  MOM disabled.
  Fractional occupation disabled.
  Guess Type is READ.
  Energy threshold   = 1.00e-08
  Density threshold  = 1.00e-08
  Integral threshold = 0.00e+00

  ==> Primary Basis <==

  Basis Set: 6-31G*
    Blend: 6-31G*
    Number of shells: 72
    Number of basis function: 153
    Number of Cartesian functions: 153
    Spherical Harmonics?: false
    Max angular momentum: 2

  ==> DFT Potential <==

   => Composite Functional: B3LYP-D3ZERO <= 

    B3LYP-d3zero Hyb-GGA Exchange-Correlation Functional

    P. J. Stephens, F. J. Devlin, C. F. Chabalowski, and M. J. Frisch, J. Phys. Chem. 98, 11623 (1994)

    Deriv               =              1
    GGA                 =           TRUE
    Meta                =          FALSE

    Exchange Hybrid     =           TRUE
    MP2 Hybrid          =          FALSE

   => Exchange Functionals <=

    0.0800   Slater exchange
    0.7200         Becke 88

   => Exact (HF) Exchange <=

    0.2000               HF 

   => Correlation Functionals <=

    0.1900   Vosko, Wilk & Nusair (VWN5_RPA)
    0.8100   Lee, Yang & Parr

   => Molecular Quadrature <=

    Radial Scheme       =       TREUTLER
    Pruning Scheme      =           FLAT
    Nuclear Scheme      =       TREUTLER

    BS radius alpha     =              1
    Pruning alpha       =              1
    Radial Points       =             75
    Spherical Points    =            302
    Total Points        =         396819
    Total Blocks        =           2987
    Max Points          =            256
    Max Functions       =            150

   => -D3ZERO: Empirical Dispersion <=

    Grimme's -D3 (zero-damping) Dispersion Correction
    Grimme S.; Antony J.; Ehrlich S.; Krieg H. (2010), J. Chem. Phys., 132: 154104

        S6 =   1.000000E+00
        S8 =   1.703000E+00
       SR6 =   1.261000E+00
       SR8 =   1.000000E+00
    ALPHA6 =   1.400000E+01

   => Loading Basis Set <=

    Name: (6-31G* AUX)
    Role: JKFIT
    Keyword: DF_BASIS_SCF
    atoms 1-7         entry C          line   121 file /shared/joao/test_parameterize/miniconda3/share/psi4/basis/cc-pvdz-jkfit.gbs 
    atoms 8-12, 15-18 entry H          line    51 file /shared/joao/test_parameterize/miniconda3/share/psi4/basis/cc-pvdz-jkfit.gbs 
    atoms 13-14       entry N          line   171 file /shared/joao/test_parameterize/miniconda3/share/psi4/basis/cc-pvdz-jkfit.gbs 

  Reading orbitals from file 180, no projection.

  ==> Pre-Iterations <==

   -------------------------------------------------------
    Irrep   Nso     Nmo     Nalpha   Nbeta   Ndocc  Nsocc
   -------------------------------------------------------
     A        153     153       0       0       0       0
   -------------------------------------------------------
    Total     153     153      32      32      32       0
   -------------------------------------------------------

  ==> Integral Setup <==

  ==> DiskDFJK: Density-Fitted J/K Matrices <==

    J tasked:                  Yes
    K tasked:                  Yes
    wK tasked:                  No
    OpenMP threads:              4
    Integrals threads:           4
    Memory (MB):              2002
    Algorithm:                Core
    Integral Cache:           NONE
    Schwarz Cutoff:          1E-12
    Fitting Condition:       1E-12

   => Auxiliary Basis Set <=

  Basis Set: (6-31G* AUX)
    Blend: CC-PVDZ-JKFIT
    Number of shells: 297
    Number of basis function: 954
    Number of Cartesian functions: 954
    Spherical Harmonics?: false
    Max angular momentum: 3

  Minimum eigenvalue in the overlap matrix is 4.8945722421E-04.
  Using Symmetric Orthogonalization.

  SCF Guess: Orbitals guess was supplied from a previous computation.

  ==> Iterations <==

                           Total Energy        Delta E     RMS |[F,P]|

   @DF-RKS iter   0:  -381.44019681115475   -3.81440e+02   2.17113e-03 
   @DF-RKS iter   1:  -381.46877016816848   -2.85734e-02   2.19473e-04 
   @DF-RKS iter   2:  -381.46871153897348    5.86292e-05   2.95643e-04 DIIS
   @DF-RKS iter   3:  -381.46898045055593   -2.68912e-04   7.19560e-05 DIIS
   @DF-RKS iter   4:  -381.46899500422256   -1.45537e-05   2.80543e-05 DIIS
   @DF-RKS iter   5:  -381.46899728907960   -2.28486e-06   8.38750e-06 DIIS
   @DF-RKS iter   6:  -381.46899747695124   -1.87872e-07   3.14002e-06 DIIS
   @DF-RKS iter   7:  -381.46899750334001   -2.63888e-08   6.75939e-07 DIIS
   @DF-RKS iter   8:  -381.46899750451945   -1.17944e-09   2.64407e-07 DIIS
   @DF-RKS iter   9:  -381.46899750472051   -2.01055e-10   6.72209e-08 DIIS
   @DF-RKS iter  10:  -381.46899750473250   -1.19940e-11   3.01097e-08 DIIS
   @DF-RKS iter  11:  -381.46899750473500   -2.50111e-12   7.31468e-09 DIIS

  ==> Post-Iterations <==

    Orbital Energies [Eh]
    ---------------------

    Doubly Occupied:                                                      

       1A    -14.566906     2A    -14.566106     3A    -10.498276  
       4A    -10.376663     5A    -10.358809     6A    -10.358182  
       7A    -10.344836     8A    -10.341670     9A    -10.341587  
      10A     -1.182206    11A     -1.088429    12A     -1.014970  
      13A     -0.926972    14A     -0.903492    15A     -0.846075  
      16A     -0.785131    17A     -0.773731    18A     -0.737675  
      19A     -0.735195    20A     -0.686548    21A     -0.669240  
      22A     -0.628058    23A     -0.613502    24A     -0.591856  
      25A     -0.580803    26A     -0.574173    27A     -0.518115  
      28A     -0.507488    29A     -0.499116    30A     -0.471015  
      31A     -0.412768    32A     -0.406753  

    Virtual:                                                              

      33A     -0.221981    34A     -0.157556    35A     -0.122153  
      36A     -0.109947    37A     -0.070226    38A     -0.064661  
      39A     -0.036549    40A     -0.035994    41A      0.008078  
      42A      0.021206    43A      0.023230    44A      0.059999  
      45A      0.062980    46A      0.082085    47A      0.121030  
      48A      0.134162    49A      0.156427    50A      0.172059  
      51A      0.202762    52A      0.243840    53A      0.299955  
      54A      0.351126    55A      0.352748    56A      0.378346  
      57A      0.388486    58A      0.396923    59A      0.418649  
      60A      0.421962    61A      0.440516    62A      0.451228  
      63A      0.454791    64A      0.471174    65A      0.471719  
      66A      0.473830    67A      0.483881    68A      0.508783  
      69A      0.520623    70A      0.537153    71A      0.545689  
      72A      0.597751    73A      0.608160    74A      0.654388  
      75A      0.664351    76A      0.683979    77A      0.689689  
      78A      0.703305    79A      0.715709    80A      0.727250  
      81A      0.751598    82A      0.774300    83A      0.788185  
      84A      0.802119    85A      0.821640    86A      0.834600  
      87A      0.852709    88A      0.934833    89A      0.954489  
      90A      0.990068    91A      1.021294    92A      1.031631  
      93A      1.067191    94A      1.094209    95A      1.128754  
      96A      1.170163    97A      1.190275    98A      1.264715  
      99A      1.283634   100A      1.306433   101A      1.324038  
     102A      1.346811   103A      1.360860   104A      1.376165  
     105A      1.442418   106A      1.453274   107A      1.483934  
     108A      1.608171   109A      1.624576   110A      1.647032  
     111A      1.661418   112A      1.735605   113A      1.748103  
     114A      1.796751   115A      1.819208   116A      1.846620  
     117A      1.898092   118A      1.908962   119A      1.951578  
     120A      1.972936   121A      1.992909   122A      2.017502  
     123A      2.031445   124A      2.060995   125A      2.117654  
     126A      2.127919   127A      2.152134   128A      2.199580  
     129A      2.250059   130A      2.263690   131A      2.333804  
     132A      2.354047   133A      2.444809   134A      2.461497  
     135A      2.487815   136A      2.499176   137A      2.534322  
     138A      2.589576   139A      2.604855   140A      2.634077  
     141A      2.737441   142A      2.878677   143A      2.990688  
     144A      3.254307   145A      3.635436   146A      3.662002  
     147A      3.899139   148A      3.945580   149A      3.960969  
     150A      4.045260   151A      4.170070   152A      4.256553  
     153A      4.543661  

    Final Occupation by Irrep:
              A 
    DOCC [    32 ]

  Energy converged.

  @DF-RKS Final Energy:  -381.46899750473500

   => Energetics <=

    Nuclear Repulsion Energy =            416.0686970886183076
    One-Electron Energy =               -1327.3211633894484294
    Two-Electron Energy =                 574.1922721618002470
    DFT Exchange-Correlation Energy =     -44.3970461457052608
    Empirical Dispersion Energy =          -0.0117572200000000
    VV10 Nonlocal Energy =                  0.0000000000000000
    Total Energy =                       -381.4689975047350572



Properties will be evaluated at   0.000000,   0.000000,   0.000000 [a0]

Properties computed using the SCF density matrix

  Nuclear Dipole Moment: [e a0]
     X:    -1.2718      Y:     0.2609      Z:     0.2623

  Electronic Dipole Moment: [e a0]
     X:     1.3088      Y:    -0.2822      Z:    -2.4701

  Dipole Moment: [e a0]
     X:     0.0370      Y:    -0.0213      Z:    -2.2077     Total:     2.2081

  Dipole Moment: [D]
     X:     0.0941      Y:    -0.0542      Z:    -5.6115     Total:     5.6125


*** tstop() called on oliva.prib.upf.edu at Sat Sep 29 20:42:02 2018
Module time:
	user time   =      79.69 seconds =       1.33 minutes
	system time =       0.57 seconds =       0.01 minutes
	total time  =         22 seconds =       0.37 minutes
Total time:
	user time   =     207.21 seconds =       3.45 minutes
	system time =       1.62 seconds =       0.03 minutes
	total time  =         58 seconds =       0.97 minutes

*** tstart() called on oliva.prib.upf.edu
*** at Sat Sep 29 20:42:02 2018


         ------------------------------------------------------------
                                   SCF GRAD                          
                          Rob Parrish, Justin Turney,                
                       Andy Simmonett, and Alex Sokolov              
         ------------------------------------------------------------

  ==> Geometry <==

    Molecular point group: c1
    Full point group: C1

    Geometry (in Angstrom), charge = 1, multiplicity = 1:

       Center              X                  Y                   Z               Mass       
    ------------   -----------------  -----------------  -----------------  -----------------
         C           -0.067432461889     0.008810811639    -0.173923739419    12.000000000000
         C           -0.028815754077     1.223230628821     0.541385362366    12.000000000000
         C            0.005067472293     1.214849790835     1.931838111936    12.000000000000
         C            0.015870073017     0.001196814930     2.625306646242    12.000000000000
         C            0.003570998451    -1.209184491045     1.927183417233    12.000000000000
         C           -0.027411083860    -1.210539435390     0.536929913725    12.000000000000
         C           -0.046556635924     0.010861893966    -1.647371705067    12.000000000000
         H           -0.093976278607     2.178001976258     0.026668552841     1.007825032070
         H            0.010461099511     2.153864208756     2.475618588581     1.007825032070
         H            0.043575500745    -0.001612057568     3.710891493293     1.007825032070
         H            0.040169485983    -2.151168809729     2.466642960238     1.007825032070
         H            0.038564724811    -2.162019714143     0.016426195663     1.007825032070
         N           -0.470796695470    -1.046469820442    -2.336644180271    14.003074004780
         N            0.480049594781     1.036794067695    -2.321508850157    14.003074004780
         H            0.466843617851     1.089914964902    -3.334609878922     1.007825032070
         H            1.004878192954     1.755578358310    -1.840126260941     1.007825032070
         H           -1.011827940870    -1.772670632003    -1.881891956220     1.007825032070
         H           -0.362233909702    -1.119439555792    -3.341814671121     1.007825032070

  Nuclear repulsion =  416.068697088618308

  ==> Basis Set <==

  Basis Set: 6-31G*
    Blend: 6-31G*
    Number of shells: 72
    Number of basis function: 153
    Number of Cartesian functions: 153
    Spherical Harmonics?: false
    Max angular momentum: 2

  ==> DFJKGrad: Density-Fitted SCF Gradients <==

    Gradient:                    1
    J tasked:                  Yes
    K tasked:                  Yes
    wK tasked:                  No
    OpenMP threads:              4
    Integrals threads:           4
    Memory (MB):              2002
    Schwarz Cutoff:          0E+00
    Fitting Condition:       1E-12

   => Auxiliary Basis Set <=

  Basis Set: (6-31G* AUX)
    Blend: CC-PVDZ-JKFIT
    Number of shells: 297
    Number of basis function: 954
    Number of Cartesian functions: 954
    Spherical Harmonics?: false
    Max angular momentum: 3

  ==> DFT Potential <==

   => Composite Functional: B3LYP-D3ZERO <= 

    B3LYP-d3zero Hyb-GGA Exchange-Correlation Functional

    P. J. Stephens, F. J. Devlin, C. F. Chabalowski, and M. J. Frisch, J. Phys. Chem. 98, 11623 (1994)

    Deriv               =              1
    GGA                 =           TRUE
    Meta                =          FALSE

    Exchange Hybrid     =           TRUE
    MP2 Hybrid          =          FALSE

   => Exchange Functionals <=

    0.0800   Slater exchange
    0.7200         Becke 88

   => Exact (HF) Exchange <=

    0.2000               HF 

   => Correlation Functionals <=

    0.1900   Vosko, Wilk & Nusair (VWN5_RPA)
    0.8100   Lee, Yang & Parr

   => Molecular Quadrature <=

    Radial Scheme       =       TREUTLER
    Pruning Scheme      =           FLAT
    Nuclear Scheme      =       TREUTLER

    BS radius alpha     =              1
    Pruning alpha       =              1
    Radial Points       =             75
    Spherical Points    =            302
    Total Points        =         396819
    Total Blocks        =           2987
    Max Points          =            256
    Max Functions       =            150


  -Total Gradient:
     Atom            X                  Y                   Z
    ------   -----------------  -----------------  -----------------
       1       -0.004065028816    -0.000309114200     0.001467667100
       2        0.004269117873    -0.000483846711     0.000827746183
       3        0.000229381162     0.000317261283     0.000250129038
       4       -0.000238519582    -0.000220540209    -0.000652619294
       5       -0.000385736231    -0.000012337447     0.000071984442
       6        0.000378171801    -0.000052786612     0.002122598238
       7       -0.009084565919     0.001320642605     0.000437749074
       8       -0.000016348038     0.000417685519     0.000671842530
       9       -0.000153143539    -0.000052415206     0.000179055227
      10        0.000108194986    -0.000106200761     0.000180292686
      11        0.000084683297    -0.000519378771     0.000600146412
      12        0.000735676961    -0.000600231578     0.000730534041
      13        0.005440846847     0.001151545389    -0.002461890109
      14        0.001380708740    -0.000328418229    -0.002825992467
      15        0.000570661295     0.000430378887    -0.001533916239
      16        0.000920130272     0.000663130855    -0.000314822944
      17       -0.000500175661    -0.001661415071     0.000984122137
      18        0.000335710171     0.000051743947    -0.000755210435


*** tstop() called on oliva.prib.upf.edu at Sat Sep 29 20:42:09 2018
Module time:
	user time   =      27.72 seconds =       0.46 minutes
	system time =       0.27 seconds =       0.00 minutes
	total time  =          7 seconds =       0.12 minutes
Total time:
	user time   =     235.00 seconds =       3.92 minutes
	system time =       1.91 seconds =       0.03 minutes
	total time  =         65 seconds =       1.08 minutes

			-----------------------------------------
			 OPTKING 2.0: for geometry optimizations 
			  - R.A. King,  Bethel University        
			-----------------------------------------
	At level 1: Red. Int., RFO, no backsteps, dynamic trust

	Previous internal coordinate definitions found.
	---Fragment 1 Geometry and Gradient---
	 C          -0.1274288854        0.0166500210       -0.3286682355
	 C          -0.0544538835        2.3115708858        1.0230700672
	 C           0.0095761348        2.2957333973        3.6506449646
	 C           0.0299900917        0.0022616524        4.9611105762
	 C           0.0067482091       -2.2850275322        3.6418488664
	 C          -0.0517994415       -2.2875880059        1.0146504895
	 C          -0.0879792916        0.0205260049       -3.1130813616
	 H          -0.1775894296        4.1158272520        0.0503962612
	 H           0.0197686131        4.0702134820        4.6782411419
	 H           0.0823457625       -0.0030463473        7.0125686312
	 H           0.0759093274       -4.0651199160        4.6612796625
	 H           0.0728767683       -4.0856251536        0.0310410112
	 N          -0.8896768187       -1.9775413670       -4.4156175707
	 N           0.9071622643        1.9592568441       -4.3870159419
	 H           0.8822065846        2.0596407918       -6.3014994312
	 H           1.8989445816        3.3175623020       -3.4773346831
	 H          -1.9120777018       -3.3498620183       -3.5562604089
	 H          -0.6845228854       -2.1154341828       -6.3151145153
	            -0.0040650288       -0.0003091142        0.0014676671
	             0.0042691179       -0.0004838467        0.0008277462
	             0.0002293812        0.0003172613        0.0002501290
	            -0.0002385196       -0.0002205402       -0.0006526193
	            -0.0003857362       -0.0000123374        0.0000719844
	             0.0003781718       -0.0000527866        0.0021225982
	            -0.0090845659        0.0013206426        0.0004377491
	            -0.0000163480        0.0004176855        0.0006718425
	            -0.0001531435       -0.0000524152        0.0001790552
	             0.0001081950       -0.0001062008        0.0001802927
	             0.0000846833       -0.0005193788        0.0006001464
	             0.0007356770       -0.0006002316        0.0007305340
	             0.0054408468        0.0011515454       -0.0024618901
	             0.0013807087       -0.0003284182       -0.0028259925
	             0.0005706613        0.0004303789       -0.0015339162
	             0.0009201303        0.0006631309       -0.0003148229
	            -0.0005001757       -0.0016614151        0.0009841221
	             0.0003357102        0.0000517439       -0.0007552104

	---Fragment 1 Intrafragment Coordinates---
	 - Coordinate -           - BOHR/RAD -       - ANG/DEG -
	 R(1,2)           =         2.664429	       1.409955
	 R(1,6)           =         2.668284	       1.411995
	 R(1,7)           =         2.784695	       1.473597
	 R(2,3)           =         2.628403	       1.390891
	 R(2,8)           =         2.053436	       1.086631
	 R(3,4)           =         2.641543	       1.397844
	 R(3,9)           =         2.050570	       1.085115
	 R(4,5)           =         2.640584	       1.397337
	 R(4,10)          =         2.052133	       1.085942
	 R(5,6)           =         2.627852	       1.390599
	 R(5,11)          =         2.052499	       1.086136
	 R(6,12)          =         2.053283	       1.086550
	 R(7,13)          =         2.516266	       1.331550
	 R(7,14)          =         2.524261	       1.335781
	 R(13,17)         =         1.914958	       1.013352
	 R(13,18)         =         1.915513	       1.013646
	 R(14,15)         =         1.917276	       1.014579
	 R(14,16)         =         1.912105	       1.011842
	 B(1,2,3)         =         2.097452	     120.175151
	 B(1,2,8)         =         2.111624	     120.987118
	 B(1,6,5)         =         2.097983	     120.205579
	 B(1,6,12)        =         2.113867	     121.115655
	 B(1,7,13)        =         2.108279	     120.795493
	 B(1,7,14)        =         2.107469	     120.749065
	 B(2,1,6)         =         2.080158	     119.184251
	 B(2,1,7)         =         2.100977	     120.377117
	 B(2,3,4)         =         2.095969	     120.090157
	 B(2,3,9)         =         2.089640	     119.727539
	 B(3,2,8)         =         2.071778	     118.704158
	 B(3,4,5)         =         2.099187	     120.274529
	 B(3,4,10)        =         2.092524	     119.892767
	 B(4,3,9)         =         2.097499	     120.177849
	 B(4,5,6)         =         2.095002	     120.034785
	 B(4,5,11)        =         2.097633	     120.185536
	 B(5,4,10)        =         2.091430	     119.830088
	 B(5,6,12)        =         2.069655	     118.582502
	 B(6,1,7)         =         2.099239	     120.277510
	 B(6,5,11)        =         2.090312	     119.766075
	 B(7,13,17)       =         2.102329	     120.454563
	 B(7,13,18)       =         2.136912	     122.436023
	 B(7,14,15)       =         2.140072	     122.617122
	 B(7,14,16)       =         2.105954	     120.662249
	 B(13,7,14)       =         2.064885	     118.309222
	 B(15,14,16)      =         2.031539	     116.398623
	 B(17,13,18)      =         2.038235	     116.782271
	 D(1,2,3,4)       =         0.012338	       0.706908
	 D(1,2,3,9)       =        -3.115880	    -178.526756
	 D(1,6,5,4)       =        -0.017118	      -0.980799
	 D(1,6,5,11)      =        -3.135341	    -179.641794
	 D(1,7,13,17)     =         0.253750	      14.538796
	 D(1,7,13,18)     =        -3.006199	    -172.242502
	 D(1,7,14,15)     =        -3.085521	    -176.787305
	 D(1,7,14,16)     =         0.173939	       9.965969
	 D(2,1,6,5)       =         0.037955	       2.174636
	 D(2,1,6,12)      =        -3.040491	    -174.207295
	*D(2,1,7,13)      =        -2.792527	    -160.000000
	 D(2,1,7,14)      =         0.427078	      24.469746
	 D(2,3,4,5)       =         0.008976	       0.514284
	 D(2,3,4,10)      =         3.140284	     179.925013
	 D(3,2,1,6)       =        -0.035539	      -2.036221
	 D(3,2,1,7)       =        -3.096840	    -177.435872
	 D(3,4,5,6)       =        -0.006561	      -0.375931
	 D(3,4,5,11)      =         3.111562	     178.279396
	 D(4,3,2,8)       =         3.081335	     176.547492
	 D(4,5,6,12)      =         3.062912	     175.491906
	 D(5,4,3,9)       =         3.137133	     179.744469
	 D(5,6,1,7)       =         3.099338	     177.578974
	 D(6,1,2,8)       =        -3.102854	    -177.780426
	 D(6,1,7,13)      =         0.430239	      24.650867
	 D(6,1,7,14)      =        -2.633342	    -150.879388
	 D(6,5,4,10)      =        -3.137876	    -179.787030
	 D(7,1,2,8)       =         0.119030	       6.819923
	 D(7,1,6,12)      =         0.020892	       1.197042
	 D(8,2,3,9)       =        -0.046883	      -2.686172
	 D(9,3,4,10)      =        -0.014745	      -0.844802
	 D(10,4,5,11)     =        -0.019752	      -1.131703
	 D(11,5,6,12)     =        -0.055311	      -3.169089
	 D(13,7,14,15)    =         0.132184	       7.573576
	 D(13,7,14,16)    =        -2.891542	    -165.673150
	 D(14,7,13,17)    =        -2.963991	    -169.824194
	 D(14,7,13,18)    =         0.059245	       3.394508

	Current energy   :      -381.4689975047

	Energy change for the previous step:
		Projected    :        -0.0024849252
		Actual       :        -0.0004162444
	Energy ratio indicates iffy step: Trust radius decreased to 1.250e-01.


	Performing BFGS update.
	Previous computed or guess Hessian on step 1.
	Steps to be used in Hessian update: 1
	Taking RFO optimization step.
	Going to follow RFO solution 1.
	Using RFO vector 1.
	Norm of target step-size    0.09317
	Projected energy change by RFO approximation:        -0.0003860802

	Back-transformation to cartesian coordinates...
	Could not converge backtransformation.
	Using first guess instead.

	Back-transformation to cartesian coordinates to adjust frozen coordinates...
	Successfully converged to displaced geometry.

	--- Internal Coordinate Step in ANG or DEG, aJ/ANG or AJ/DEG ---
	 ---------------------------------------------------------------------------
	   Coordinate                Previous        Force       Change         New 
	   ----------                --------       ------       ------       ------
	    1 R(1,2)          =      1.409955    -0.012789    -0.001161     1.408794
	    2 R(1,6)          =      1.411995    -0.025634    -0.002935     1.409060
	    3 R(1,7)          =      1.473597    -0.053141    -0.005828     1.467769
	    4 R(2,3)          =      1.390891    -0.003907    -0.000542     1.390349
	    5 R(2,8)          =      1.086631    -0.000404    -0.000429     1.086203
	    6 R(3,4)          =      1.397844     0.001997     0.000010     1.397854
	    7 R(3,9)          =      1.085115    -0.000363    -0.000026     1.085088
	    8 R(4,5)          =      1.397337     0.006650     0.000595     1.397931
	    9 R(4,10)         =      1.085942    -0.001519    -0.000285     1.085657
	   10 R(5,6)          =      1.390599    -0.001225    -0.000226     1.390374
	   11 R(5,11)         =      1.086136    -0.006197    -0.000990     1.085146
	   12 R(6,12)         =      1.086550    -0.001812    -0.000521     1.086029
	   13 R(7,13)         =      1.331550     0.001327     0.000054     1.331604
	   14 R(7,14)         =      1.335781    -0.033571    -0.003222     1.332559
	   15 R(13,17)        =      1.013352    -0.015661    -0.002477     1.010874
	   16 R(13,18)        =      1.013646    -0.006424    -0.000827     1.012819
	   17 R(14,15)        =      1.014579    -0.012736    -0.001648     1.012931
	   18 R(14,16)        =      1.011842    -0.006574    -0.000879     1.010963
	   19 B(1,2,3)        =    120.175151    -0.000055    -0.095869   120.079282
	   20 B(1,2,8)        =    120.987118    -0.000034    -0.085053   120.902065
	   21 B(1,6,5)        =    120.205579    -0.000085    -0.175507   120.030073
	   22 B(1,6,12)       =    121.115655    -0.000031    -0.117292   120.998363
	   23 B(1,7,13)       =    120.795493    -0.000164    -0.251074   120.544419
	   24 B(1,7,14)       =    120.749065    -0.000229    -0.388969   120.360095
	   25 B(2,1,6)        =    119.184251     0.000181     0.296967   119.481218
	   26 B(2,1,7)        =    120.377117    -0.000073    -0.126903   120.250214
	   27 B(2,3,4)        =    120.090157    -0.000029    -0.046951   120.043206
	   28 B(2,3,9)        =    119.727539     0.000001    -0.015437   119.712102
	   29 B(3,2,8)        =    118.704158     0.000090     0.197621   118.901780
	   30 B(3,4,5)        =    120.274529    -0.000018    -0.009857   120.264672
	   31 B(3,4,10)       =    119.892767     0.000001    -0.027677   119.865090
	   32 B(4,3,9)        =    120.177849     0.000029     0.064183   120.242032
	   33 B(4,5,6)        =    120.034785     0.000007     0.047661   120.082447
	   34 B(4,5,11)       =    120.185536     0.000017     0.043980   120.229516
	   35 B(5,4,10)       =    119.830088     0.000018     0.039452   119.869540
	   36 B(5,6,12)       =    118.582502     0.000116     0.302774   118.885276
	   37 B(6,1,7)        =    120.277510    -0.000108    -0.159724   120.117786
	   38 B(6,5,11)       =    119.766075    -0.000025    -0.087345   119.678730
	   39 B(7,13,17)      =    120.454563    -0.000012    -0.028998   120.425565
	   40 B(7,13,18)      =    122.436023     0.000019     0.008723   122.444746
	   41 B(7,14,15)      =    122.617122    -0.000021    -0.096898   122.520224
	   42 B(7,14,16)      =    120.662249    -0.000041    -0.097590   120.564659
	   43 B(13,7,14)      =    118.309222     0.000398     0.751005   119.060227
	   44 B(15,14,16)     =    116.398623     0.000065     0.269896   116.668519
	   45 B(17,13,18)     =    116.782271    -0.000011    -0.110410   116.671861
	   46 D(1,2,3,4)      =      0.706908    -0.000001    -0.138005     0.568903
	   47 D(1,2,3,9)      =   -178.526756    -0.000003    -0.312579  -178.839335
	   48 D(1,6,5,4)      =     -0.980799     0.000003     0.242607    -0.738193
	   49 D(1,6,5,11)     =   -179.641794     0.000000     0.010702  -179.631091
	   50 D(1,7,13,17)    =     14.538796     0.000001    -0.150651    14.388145
	   51 D(1,7,13,18)    =   -172.242502    -0.000010    -1.394250  -173.636752
	   52 D(1,7,14,15)    =   -176.787305     0.000012     1.502635  -175.284671
	   53 D(1,7,14,16)    =      9.965969     0.000002     0.646237    10.612206
	   54 D(2,1,6,5)      =      2.174636    -0.000005    -0.573796     1.600840
	   55 D(2,1,6,12)     =   -174.207295    -0.000007    -0.776473  -174.983768
	   56 *D(2,1,7,13)    =   -160.000000    -0.000000    -0.000000  -160.000000
	   57 D(2,1,7,14)     =     24.469746    -0.000022    -2.289797    22.179949
	   58 D(2,3,4,5)      =      0.514284    -0.000002    -0.206911     0.307372
	   59 D(2,3,4,10)     =    179.925013     0.000000     0.078146   180.003159
	   60 D(3,2,1,6)      =     -2.036221     0.000003     0.519692    -1.516528
	   61 D(3,2,1,7)      =   -177.435872     0.000004     0.376911  -177.058962
	   62 D(3,4,5,6)      =     -0.375931     0.000001     0.153877    -0.222054
	   63 D(3,4,5,11)     =    178.279396     0.000003     0.385298   178.664694
	   64 D(4,3,2,8)      =    176.547492     0.000001     0.127084   176.674576
	   65 D(4,5,6,12)     =    175.491906     0.000004     0.426391   175.918297
	   66 D(5,4,3,9)      =    179.744469    -0.000000    -0.032025   179.712444
	   67 D(5,6,1,7)      =    177.578974    -0.000004    -0.429699   177.149274
	   68 D(6,1,2,8)      =   -177.780426    -0.000000     0.237336  -177.543090
	   69 D(6,1,7,13)     =     24.650867    -0.000003    -0.164788    24.486078
	   70 D(6,1,7,14)     =   -150.879388    -0.000025    -2.454585  -153.333973
	   71 D(6,5,4,10)     =   -179.787030    -0.000001    -0.130797  -179.917827
	   72 D(7,1,2,8)      =      6.819923     0.000000     0.094554     6.914477
	   73 D(7,1,6,12)     =      1.197042    -0.000007    -0.632376     0.564666
	   74 D(8,2,3,9)      =     -2.686172    -0.000000    -0.047490    -2.733662
	   75 D(9,3,4,10)     =     -0.844802     0.000002     0.253033    -0.591769
	   76 D(10,4,5,11)    =     -1.131703     0.000001     0.100624    -1.031079
	   77 D(11,5,6,12)    =     -3.169089     0.000002     0.194487    -2.974602
	   78 D(13,7,14,15)   =      7.573576    -0.000004    -0.710421     6.863155
	   79 D(13,7,14,16)   =   -165.673150    -0.000014    -1.566818  -167.239968
	   80 D(14,7,13,17)   =   -169.824194     0.000017     2.060445  -167.763749
	   81 D(14,7,13,18)   =      3.394508     0.000006     0.816846     4.211354
	 ---------------------------------------------------------------------------
	Successfully symmetrized geometry.

  ==> Convergence Check <==

  Measures of convergence in internal coordinates in au.
  Criteria marked as inactive (o), active & met (*), and active & unmet ( ).
  ---------------------------------------------------------------------------------------------
   Step     Total Energy     Delta E     MAX Force     RMS Force      MAX Disp      RMS Disp   
  ---------------------------------------------------------------------------------------------
    Convergence Criteria    1.00e-06 *    3.00e-04 *             o    1.20e-03 *             o
  ---------------------------------------------------------------------------------------------
      2    -381.46899750   -4.16e-04      6.45e-03      1.33e-03 o    4.28e-02      1.04e-02 o  ~
  ---------------------------------------------------------------------------------------------

	Writing optimization data to binary file.
	Structure for next step:
	Cartesian Geometry (in Angstrom)
	    C    -0.0582398460   0.0033887369  -0.1764553378
	    C    -0.0184952394   1.2198813537   0.5329574739
	    C     0.0128892166   1.2152631133   1.9229441372
	    C     0.0170673835   0.0029500921   2.6188439991
	    C    -0.0037485907  -1.2091235212   1.9226713762
	    C    -0.0334050404  -1.2140022349   0.5326225562
	    C    -0.0264158159   0.0017786964  -1.6438786059
	    H    -0.0763729660   2.1714168016   0.0123169631
	    H     0.0243479705   2.1558996384   2.4637662862
	    H     0.0415544100   0.0027192541   3.7042252348
	    H     0.0213492495  -2.1499262139   2.4628584764
	    H     0.0184711156  -2.1646622718   0.0101153019
	    N    -0.4523070312  -1.0577553883  -2.3288414830
	    N     0.4699520744   1.0450237188  -2.3079366345
	    H     0.4447203769   1.1093318007  -3.3185090950
	    H     0.9721507296   1.7737701314  -1.8192938169
	    H    -0.9965675076  -1.7772172429  -1.8727469308
	    H    -0.3569504895  -1.1287374644  -3.3346599012
			--------------------------
			 OPTKING Finished Execution 
			--------------------------

    Structure for next step:
    Molecular point group: c1
    Full point group: C1

    Geometry (in Angstrom), charge = 1, multiplicity = 1:

    C           -0.058239845958     0.003388736923    -0.176455337771
    C           -0.018495239427     1.219881353664     0.532957473856
    C            0.012889216599     1.215263113284     1.922944137218
    C            0.017067383531     0.002950092095     2.618843999107
    C           -0.003748590672    -1.209123521228     1.922671376223
    C           -0.033405040434    -1.214002234884     0.532622556164
    C           -0.026415815918     0.001778696427    -1.643878605918
    H           -0.076372966029     2.171416801640     0.012316963109
    H            0.024347970451     2.155899638378     2.463766286248
    H            0.041554410044     0.002719254114     3.704225234763
    H            0.021349249543    -2.149926213886     2.462858476440
    H            0.018471115554    -2.164662271799     0.010115301929
    N           -0.452307031164    -1.057755388346    -2.328841482967
    N            0.469952074377     1.045023718769    -2.307936634454
    H            0.444720376896     1.109331800698    -3.318509094996
    H            0.972150729633     1.773770131438    -1.819293816879
    H           -0.996567507566    -1.777217242879    -1.872746930844
    H           -0.356950489461    -1.128737464408    -3.334659901228

gradient() will perform analytic gradient computation.

*** tstart() called on oliva.prib.upf.edu
*** at Sat Sep 29 20:42:09 2018

   => Loading Basis Set <=

    Name: 6-31G*
    Role: ORBITAL
    Keyword: BASIS
    atoms 1-7         entry C          line   111 file /shared/joao/test_parameterize/miniconda3/share/psi4/basis/6-31gs.gbs 
    atoms 8-12, 15-18 entry H          line    44 file /shared/joao/test_parameterize/miniconda3/share/psi4/basis/6-31gs.gbs 
    atoms 13-14       entry N          line   128 file /shared/joao/test_parameterize/miniconda3/share/psi4/basis/6-31gs.gbs 


         ---------------------------------------------------------
                                   SCF
            by Justin Turney, Rob Parrish, Andy Simmonett
                             and Daniel Smith
                              RKS Reference
                        4 Threads,   2861 MiB Core
         ---------------------------------------------------------

  ==> Geometry <==

    Molecular point group: c1
    Full point group: C1

    Geometry (in Angstrom), charge = 1, multiplicity = 1:

[...]
	            -0.0000128292        0.0000137715       -0.0000225270
	            -0.0033900316        0.0020897076       -0.0000636314
	            -0.0000030529        0.0000101387       -0.0000066659
	            -0.0000023495        0.0000032136       -0.0000061101
	            -0.0000014015        0.0000000199       -0.0000035551
	            -0.0000009546       -0.0000009382       -0.0000055994
	            -0.0000064991       -0.0000018557       -0.0000009453
	             0.0035318391       -0.0014458185        0.0000786794
	             0.0000126178       -0.0000090668        0.0000117073
	            -0.0000098245       -0.0000010125       -0.0000003803
	            -0.0000146768       -0.0000094328        0.0000061341
	             0.0000024234       -0.0000105269       -0.0000027414
	             0.0000099645       -0.0000099046        0.0000027212

	---Fragment 1 Intrafragment Coordinates---
	 - Coordinate -           - BOHR/RAD -       - ANG/DEG -
	 R(1,2)           =         2.662628	       1.409002
	 R(1,6)           =         2.662479	       1.408923
	 R(1,7)           =         2.771318	       1.466519
	 R(2,3)           =         2.627152	       1.390229
	 R(2,8)           =         2.052895	       1.086345
	 R(3,4)           =         2.642288	       1.398238
	 R(3,9)           =         2.050489	       1.085072
	 R(4,5)           =         2.641586	       1.397867
	 R(4,10)          =         2.051539	       1.085628
	 R(5,6)           =         2.627907	       1.390628
	 R(5,11)          =         2.050510	       1.085083
	 R(6,12)          =         2.052090	       1.085919
	 R(7,13)          =         2.517751	       1.332336
	 R(7,14)          =         2.516317	       1.331577
	 R(13,17)         =         1.910573	       1.011031
	 R(13,18)         =         1.914081	       1.012888
	 R(14,15)         =         1.914037	       1.012865
	 R(14,16)         =         1.910068	       1.010764
	 B(1,2,3)         =         2.095394	     120.057227
	 B(1,2,8)         =         2.108779	     120.824135
	 B(1,6,5)         =         2.094748	     120.020198
	 B(1,6,12)        =         2.110343	     120.913720
	 B(1,7,13)        =         2.101717	     120.419535
	 B(1,7,14)        =         2.101391	     120.400855
	 B(2,1,6)         =         2.085880	     119.512109
	 B(2,1,7)         =         2.099686	     120.303122
	 B(2,3,4)         =         2.095289	     120.051207
	 B(2,3,9)         =         2.089203	     119.702530
	 B(3,2,8)         =         2.076853	     118.994886
	 B(3,4,5)         =         2.099038	     120.266018
	 B(3,4,10)        =         2.091998	     119.862663
	 B(4,3,9)         =         2.098645	     120.243481
	 B(4,5,6)         =         2.095786	     120.079697
	 B(4,5,11)        =         2.098534	     120.237137
	 B(5,4,10)        =         2.092141	     119.870862
	 B(5,6,12)        =         2.076693	     118.985763
	 B(6,1,7)         =         2.095508	     120.063782
	 B(6,5,11)        =         2.088715	     119.674530
	 B(7,13,17)       =         2.100062	     120.324696
	 B(7,13,18)       =         2.136454	     122.409799
	 B(7,14,15)       =         2.138148	     122.506829
	 B(7,14,16)       =         2.102431	     120.460434
	 B(13,7,14)       =         2.079168	     119.127570
	 B(15,14,16)      =         2.037787	     116.756592
	 B(17,13,18)      =         2.035014	     116.597725
	 D(1,2,3,4)       =         0.009626	       0.551555
	 D(1,2,3,9)       =        -3.121402	    -178.843174
	 D(1,6,5,4)       =        -0.011285	      -0.646579
	 D(1,6,5,11)      =        -3.134266	    -179.580190
	 D(1,7,13,17)     =         0.273541	      15.672734
	 D(1,7,13,18)     =        -3.037126	    -174.014490
	 D(1,7,14,15)     =        -3.060468	    -175.351888
	 D(1,7,14,16)     =         0.189926	      10.881954
	 D(2,1,6,5)       =         0.023551	       1.349382
	 D(2,1,6,12)      =        -3.060587	    -175.358693
	*D(2,1,7,13)      =        -2.792527	    -160.000000
	 D(2,1,7,14)      =         0.395253	      22.646339
	 D(2,3,4,5)       =         0.002824	       0.161812
	 D(2,3,4,10)      =         3.140120	     179.915640
	 D(3,2,1,6)       =        -0.022727	      -1.302159
	 D(3,2,1,7)       =        -3.094579	    -177.306338
	 D(3,4,5,6)       =        -0.001988	      -0.113930
	 D(3,4,5,11)      =         3.120887	     178.813629
	 D(4,3,2,8)       =         3.081227	     176.541288
	 D(4,5,6,12)      =         3.073957	     176.124781
	 D(5,4,3,9)       =         3.133795	     179.553237
	 D(5,6,1,7)       =         3.095573	     177.363273
	 D(6,1,2,8)       =        -3.093028	    -177.217426
	 D(6,1,7,13)      =         0.419192	      24.017942
	 D(6,1,7,14)      =        -2.676213	    -153.335719
	 D(6,5,4,10)      =        -3.139284	    -179.867738
	 D(7,1,2,8)       =         0.118305	       6.778395
	 D(7,1,6,12)      =         0.011435	       0.655198
	 D(8,2,3,9)       =        -0.049802	      -2.853442
	 D(9,3,4,10)      =        -0.012094	      -0.692935
	 D(10,4,5,11)     =        -0.016409	      -0.940180
	 D(11,5,6,12)     =        -0.049023	      -2.808830
	 D(13,7,14,15)    =         0.126720	       7.260506
	 D(13,7,14,16)    =        -2.906072	    -166.505651
	 D(14,7,13,17)    =        -2.913655	    -166.940160
	 D(14,7,13,18)    =         0.058863	       3.372615

	Current energy   :      -381.4692759422

	Energy change for the previous step:
		Projected    :        -0.0000001245
		Actual       :        -0.0000005971
	Energy ratio indicates good step: Trust radius increased to 9.375e-02.


	Performing BFGS update.
	Previous computed or guess Hessian on step 1.
	Steps to be used in Hessian update: 5 4
	Taking RFO optimization step.
	Going to follow RFO solution 1.
	Rejecting RFO root 1 because normalization gives large value.
	Using RFO vector 2.
	Norm of target step-size    0.00226
	Projected energy change by RFO approximation:         0.0000000040

	Back-transformation to cartesian coordinates...
	Successfully converged to displaced geometry.

	Back-transformation to cartesian coordinates to adjust frozen coordinates...
	Successfully converged to displaced geometry.

	--- Internal Coordinate Step in ANG or DEG, aJ/ANG or AJ/DEG ---
	 ---------------------------------------------------------------------------
	   Coordinate                Previous        Force       Change         New 
	   ----------                --------       ------       ------       ------
	    1 R(1,2)          =      1.409002    -0.000080    -0.000005     1.408997
	    2 R(1,6)          =      1.408923     0.000108     0.000010     1.408933
	    3 R(1,7)          =      1.466519     0.000295     0.000030     1.466549
	    4 R(2,3)          =      1.390229     0.000027    -0.000003     1.390226
	    5 R(2,8)          =      1.086345    -0.000096    -0.000020     1.086326
	    6 R(3,4)          =      1.398238    -0.000070    -0.000007     1.398231
	    7 R(3,9)          =      1.085072     0.000001     0.000000     1.085072
	    8 R(4,5)          =      1.397867    -0.000044    -0.000006     1.397861
	    9 R(4,10)         =      1.085628     0.000023     0.000005     1.085632
	   10 R(5,6)          =      1.390628    -0.000107    -0.000017     1.390611
	   11 R(5,11)         =      1.085083     0.000012     0.000002     1.085085
	   12 R(6,12)         =      1.085919    -0.000013    -0.000002     1.085917
	   13 R(7,13)         =      1.332336    -0.000068     0.000011     1.332347
	   14 R(7,14)         =      1.331577     0.000270     0.000031     1.331609
	   15 R(13,17)        =      1.011031    -0.000056    -0.000003     1.011029
	   16 R(13,18)        =      1.012888     0.000019     0.000004     1.012892
	   17 R(14,15)        =      1.012865    -0.000001    -0.000001     1.012864
	   18 R(14,16)        =      1.010764     0.000102     0.000018     1.010783
	   19 B(1,2,3)        =    120.057227    -0.000001    -0.002747   120.054481
	   20 B(1,2,8)        =    120.824135     0.000000     0.000120   120.824255
	   21 B(1,6,5)        =    120.020198    -0.000000    -0.002656   120.017542
	   22 B(1,6,12)       =    120.913720     0.000000    -0.001771   120.911949
	   23 B(1,7,13)       =    120.419535     0.000002     0.002939   120.422474
	   24 B(1,7,14)       =    120.400855    -0.000000    -0.000681   120.400175
	   25 B(2,1,6)        =    119.512109     0.000000     0.003725   119.515834
	   26 B(2,1,7)        =    120.303122    -0.000002    -0.005365   120.297757
	   27 B(2,3,4)        =    120.051207    -0.000000    -0.000638   120.050569
	   28 B(2,3,9)        =    119.702530     0.000001     0.003268   119.705798
	   29 B(3,2,8)        =    118.994886     0.000000     0.001744   118.996629
	   30 B(3,4,5)        =    120.266018     0.000001     0.002392   120.268410
	   31 B(3,4,10)       =    119.862663    -0.000000    -0.001478   119.861185
	   32 B(4,3,9)        =    120.243481    -0.000001    -0.002586   120.240895
	   33 B(4,5,6)        =    120.079697    -0.000000    -0.000387   120.079309
	   34 B(4,5,11)       =    120.237137    -0.000000    -0.001102   120.236035
	   35 B(5,4,10)       =    119.870862    -0.000000    -0.000925   119.869938
	   36 B(5,6,12)       =    118.985763     0.000000     0.004716   118.990479
	   37 B(6,1,7)        =    120.063782     0.000001     0.002308   120.066090
	   38 B(6,5,11)       =    119.674530     0.000000     0.001516   119.676046
	   39 B(7,13,17)      =    120.324696    -0.000000    -0.007318   120.317379
	   40 B(7,13,18)      =    122.409799    -0.000000    -0.005930   122.403869
	   41 B(7,14,15)      =    122.506829     0.000000    -0.000765   122.506064
	   42 B(7,14,16)      =    120.460434     0.000001     0.002278   120.462711
	   43 B(13,7,14)      =    119.127570    -0.000002    -0.002545   119.125025
	   44 B(15,14,16)     =    116.756592    -0.000001    -0.005844   116.750749
	   45 B(17,13,18)     =    116.597725     0.000001    -0.001090   116.596634
	   46 D(1,2,3,4)      =      0.551555     0.000000     0.010374     0.561929
	   47 D(1,2,3,9)      =   -178.843174     0.000000     0.005629  -178.837545
	   48 D(1,6,5,4)      =     -0.646579    -0.000000    -0.002286    -0.648865
	   49 D(1,6,5,11)     =   -179.580190    -0.000000    -0.003909  -179.584100
	   50 D(1,7,13,17)    =     15.672734     0.000000     0.051983    15.724717
	   51 D(1,7,13,18)    =   -174.014490    -0.000000    -0.050757  -174.065248
	   52 D(1,7,14,15)    =   -175.351888    -0.000000    -0.018445  -175.370333
	   53 D(1,7,14,16)    =     10.881954     0.000000     0.030443    10.912398
	   54 D(2,1,6,5)      =      1.349382     0.000000     0.013281     1.362663
	   55 D(2,1,6,12)     =   -175.358693     0.000000     0.007204  -175.351489
	   56 *D(2,1,7,13)    =   -160.000000     0.000000    -0.000000  -160.000000
	   57 D(2,1,7,14)     =     22.646339     0.000000     0.007350    22.653689
	   58 D(2,3,4,5)      =      0.161812     0.000000     0.000665     0.162477
	   59 D(2,3,4,10)     =    179.915640    -0.000000    -0.002292   179.913349
	   60 D(3,2,1,6)      =     -1.302159    -0.000000    -0.017331    -1.319490
	   61 D(3,2,1,7)      =   -177.306338    -0.000000    -0.028446  -177.334784
	   62 D(3,4,5,6)      =     -0.113930    -0.000000    -0.004728    -0.118658
	   63 D(3,4,5,11)     =    178.813629    -0.000000    -0.003067   178.810562
	   64 D(4,3,2,8)      =    176.541288    -0.000000    -0.003879   176.537409
	   65 D(4,5,6,12)     =    176.124781    -0.000000     0.003467   176.128248
	   66 D(5,4,3,9)      =    179.553237     0.000000     0.005471   179.558708
	   67 D(5,6,1,7)      =    177.363273     0.000000     0.024058   177.387331
	   68 D(6,1,2,8)      =   -177.217426    -0.000000    -0.002877  -177.220303
	   69 D(6,1,7,13)     =     24.017942     0.000000    -0.011231    24.006711
	   70 D(6,1,7,14)     =   -153.335719     0.000000    -0.003881  -153.339601
	   71 D(6,5,4,10)     =   -179.867738     0.000000    -0.001769  -179.869507
	   72 D(7,1,2,8)      =      6.778395    -0.000000    -0.013992     6.764402
	   73 D(7,1,6,12)     =      0.655198     0.000000     0.017981     0.673179
	   74 D(8,2,3,9)      =     -2.853442    -0.000000    -0.008623    -2.862065
	   75 D(9,3,4,10)     =     -0.692935     0.000000     0.002514    -0.690421
	   76 D(10,4,5,11)    =     -0.940180    -0.000000    -0.000108    -0.940288
	   77 D(11,5,6,12)    =     -2.808830    -0.000000     0.001844    -2.806987
	   78 D(13,7,14,15)   =      7.260506    -0.000000    -0.011333     7.249173
	   79 D(13,7,14,16)   =   -166.505651     0.000000     0.037555  -166.468097
	   80 D(14,7,13,17)   =   -166.940160     0.000000     0.044773  -166.895388
	   81 D(14,7,13,18)   =      3.372615    -0.000000    -0.057967     3.314648
	 ---------------------------------------------------------------------------
	Successfully symmetrized geometry.

  ==> Convergence Check <==

  Measures of convergence in internal coordinates in au.
  Criteria marked as inactive (o), active & met (*), and active & unmet ( ).
  ---------------------------------------------------------------------------------------------
   Step     Total Energy     Delta E     MAX Force     RMS Force      MAX Disp      RMS Disp   
  ---------------------------------------------------------------------------------------------
    Convergence Criteria    1.00e-06 *    3.00e-04 *             o    1.20e-03 *             o
  ---------------------------------------------------------------------------------------------
      6    -381.46927594   -5.97e-07 *    3.58e-05 *    9.58e-06 o    1.01e-03 *    2.51e-04 o  ~
  ---------------------------------------------------------------------------------------------


  **** Optimization is complete! (in 6 steps) ****

  ==> Optimization Summary <==

  Measures of convergence in internal coordinates in au.
  --------------------------------------------------------------------------------------------------------------- ~
   Step         Total Energy             Delta E       MAX Force       RMS Force        MAX Disp        RMS Disp  ~
  --------------------------------------------------------------------------------------------------------------- ~
      1    -381.468581260317   -381.468581260317      0.00760296      0.00163005      0.15918468      0.03046664  ~
      2    -381.468997504735     -0.000416244418      0.00645018      0.00133134      0.04284060      0.01036007  ~
      3    -381.469260205153     -0.000262700418      0.00098619      0.00022008      0.01371403      0.00393279  ~
      4    -381.469269881111     -0.000009675958      0.00054364      0.00014259      0.00881521      0.00162894  ~
      5    -381.469275345144     -0.000005464033      0.00018963      0.00003384      0.00433688      0.00092290  ~
      6    -381.469275942249     -0.000000597105      0.00003582      0.00000958      0.00101172      0.00025087  ~
  --------------------------------------------------------------------------------------------------------------- ~

	Writing optimization data to binary file.
	Final energy is   -381.4692759422488
	Final (previous) structure:
	Cartesian Geometry (in Angstrom)
	    C    -0.0538972945   0.0051104294  -0.1768956788
	    C    -0.0190870554   1.2214017720   0.5335339617
	    C     0.0105110324   1.2153625801   1.9234349063
	    C     0.0174302121   0.0020733229   2.6183822239
	    C    -0.0019138542  -1.2093420646   1.9211507628
	    C    -0.0305634139  -1.2129434076   0.5308222343
	    C    -0.0257246106   0.0035220871  -1.6431427708
	    H    -0.0813478642   2.1724886740   0.0122821233
	    H     0.0182241226   2.1555145039   2.4651326533
	    H     0.0419525872   0.0009201967   3.7037323506
	    H     0.0228692021  -2.1506250865   2.4603889911
	    H     0.0189317830  -2.1622841817   0.0059199334
	    N    -0.4483528172  -1.0603396658  -2.3248346339
	    N     0.4712364368   1.0442812209  -2.3086865516
	    H     0.4441619794   1.1074049612  -3.3192199188
	    H     0.9798905634   1.7688733845  -1.8209550689
	    H    -1.0036002313  -1.7714428148  -1.8685264331
	    H    -0.3607207777  -1.1299769118  -3.3315190845
	Saving final (previous) structure.
	Removing binary optimization data file.
			--------------------------
			 OPTKING Finished Execution 
			--------------------------

    Final optimized geometry and variables:
    Molecular point group: c1
    Full point group: C1

    Geometry (in Angstrom), charge = 1, multiplicity = 1:

    C           -0.053897294481     0.005110429353    -0.176895678847
    C           -0.019087055445     1.221401772023     0.533533961675
    C            0.010511032410     1.215362580112     1.923434906285
    C            0.017430212140     0.002073322931     2.618382223855
    C           -0.001913854233    -1.209342064551     1.921150762828
    C           -0.030563413862    -1.212943407554     0.530822234285
    C           -0.025724610622     0.003522087050    -1.643142770828
    H           -0.081347864175     2.172488674001     0.012282123286
    H            0.018224122616     2.155514503880     2.465132653264
    H            0.041952587173     0.000920196697     3.703732350557
    H            0.022869202094    -2.150625086474     2.460388991055
    H            0.018931783018    -2.162284181738     0.005919933362
    N           -0.448352817179    -1.060339665752    -2.324834633926
    N            0.471236436782     1.044281220922    -2.308686551586
    H            0.444161979408     1.107404961210    -3.319219918808
    H            0.979890563374     1.768873384472    -1.820955068871
    H           -1.003600231303    -1.771442814810    -1.868526433108
    H           -0.360720777714    -1.129976911772    -3.331519084477

	Removing binary optimization data file.
	Cleaning optimization helper files.


Properties will be evaluated at   0.000000,   0.000000,   0.000000 [a0]
OEProp: No title given, name of density matrix used for the following properties is 'SCF density'
  Nuclear Dipole Moment: [e a0]
     X:    -0.7161      Y:     0.0559      Z:     0.2198

  Electronic Dipole Moment: [e a0]
     X:     0.7279      Y:    -0.0558      Z:    -2.4147

  Dipole Moment: [e a0]
     X:     0.0119      Y:     0.0001      Z:    -2.1949     Total:     2.1950

  Dipole Moment: [D]
     X:     0.0302      Y:     0.0002      Z:    -5.5790     Total:     5.5791

  Quadrupole Moment: [D A]
    XX:   -52.2081     YY:   -35.4222     ZZ:   -12.9003
    XY:     5.2325     XZ:     0.0260     YZ:     0.1663

  Traceless Quadrupole Moment: [D A]
    XX:   -18.6979     YY:    -1.9120     ZZ:    20.6099
    XY:     5.2325     XZ:     0.0260     YZ:     0.1663

  Mulliken Charges: (a.u.)
   Center  Symbol    Alpha    Beta     Spin     Total
       1     C     2.94353  2.94353  0.00000  0.11294
       2     C     3.08709  3.08709  0.00000 -0.17418
       3     C     3.06226  3.06226  0.00000 -0.12452
       4     C     3.05124  3.05124  0.00000 -0.10249
       5     C     3.06154  3.06154  0.00000 -0.12309
       6     C     3.08381  3.08381  0.00000 -0.16763
       7     C     2.71253  2.71253  0.00000  0.57494
       8     H     0.41591  0.41591  0.00000  0.16818
       9     H     0.40512  0.40512  0.00000  0.18976
      10     H     0.40316  0.40316  0.00000  0.19369
      11     H     0.40509  0.40509  0.00000  0.18981
      12     H     0.41645  0.41645  0.00000  0.16709
      13     N     3.86980  3.86980  0.00000 -0.73961
      14     N     3.86912  3.86912  0.00000 -0.73824
      15     H     0.30586  0.30586  0.00000  0.38828
      16     H     0.30065  0.30065  0.00000  0.39870
      17     H     0.30091  0.30091  0.00000  0.39819
      18     H     0.30591  0.30591  0.00000  0.38818

   Total alpha = 32.00000, Total beta = 32.00000, Total charge =  1.00000


    Psi4 stopped on: Saturday, 29 September 2018 08:43PM
    Psi4 wall time for execution: 0:02:52.96

*** Psi4 exiting successfully. Buy a developer a beer!
