
    -----------------------------------------------------------------------
          Psi4: An Open-Source Ab Initio Electronic Structure Package
                               Psi4 1.2.1 release

                         Git: Rev {HEAD} 406f4de 


    R. M. Parrish, L. A. Burns, D. G. A. Smith, A. C. Simmonett,
    A. E. DePrince III, E. G. Hohenstein, U. Bozkaya, A. Yu. Sokolov,
    R. Di Remigio, R. M. Richard, J. F. Gonthier, A. M. James,
    H. R. McAlexander, A. Kumar, M. Saitow, X. Wang, B. P. Pritchard,
    P. Verma, H. F. Schaefer III, K. Patkowski, R. A. King, E. F. Valeev,
    F. A. Evangelista, J. M. Turney, T. D. Crawford, and C. D. Sherrill,
    J. Chem. Theory Comput. 13(7) pp 3185--3197 (2017).
    (doi: 10.1021/acs.jctc.7b00174)


                         Additional Contributions by
    P. Kraus, H. Kruse, M. H. Lechner, M. C. Schieber, and R. A. Shaw

    -----------------------------------------------------------------------


    Psi4 started on: Saturday, 29 September 2018 08:23PM

    Process ID: 27107
    Host:       arancio.prib.upf.edu
    PSIDATADIR: /shared/joao/test_parameterize/miniconda3/share/psi4
    Memory:     500.0 MiB
    Threads:    1
    
  ==> Input File <==

--------------------------------------------------------------------------
set_num_threads(4)
set_memory('3000 MB')

set { scf_mem_safety_factor 0.7 }

set { reference rks }
set { basis 6-31G* }

molecule MOL {
    1 1
    noreorient
    nocom
    symmetry c1
    C   -0.000000  -0.000000  -0.177864
    C    0.036678   1.219374   0.524165
    C    0.031765   1.213120   1.915444
    C    0.000000   0.000000   2.610107
    C   -0.031765  -1.213120   1.915444
    C   -0.036678  -1.219375   0.524165
    C   -0.000000   0.000000  -1.644734
    H    0.018170   2.164705  -0.010854
    H    0.042402   2.152895   2.457886
    H    0.000000   0.000000   3.695756
    H   -0.042402  -2.152895   2.457886
    H   -0.018170  -2.164705  -0.010853
    N   -0.712590  -0.905950  -2.308461
    N    0.712590   0.905950  -2.308460
    H    0.673432   1.006470  -3.315997
    H    1.377190   1.485970  -1.813316
    H   -1.377190  -1.485970  -1.813317
    H   -0.673432  -1.006469  -3.315997
}

energy, wfn = energy('B3LYP-D3', return_wfn=True)

import os
os.chdir(os.environ['HTMD_PSI4_WORKDIR'])

oeprop(wfn, 'DIPOLE', 'QUADRUPOLE', 'MULLIKEN_CHARGES')
oeprop(wfn, 'GRID_ESP')

with open('psi4out.xyz', 'w') as f:
    f.write('18 ' )
    f.write('%.12f\n' % energy)
    f.write(MOL.save_string_xyz())
--------------------------------------------------------------------------
  Threads set to 4 by Python driver.

  Memory set to   2.794 GiB by Python driver.

*** tstart() called on arancio.prib.upf.edu
*** at Sat Sep 29 20:23:00 2018

   => Loading Basis Set <=

    Name: 6-31G*
    Role: ORBITAL
    Keyword: BASIS
    atoms 1-7         entry C          line   111 file /shared/joao/test_parameterize/miniconda3/share/psi4/basis/6-31gs.gbs 
    atoms 8-12, 15-18 entry H          line    44 file /shared/joao/test_parameterize/miniconda3/share/psi4/basis/6-31gs.gbs 
    atoms 13-14       entry N          line   128 file /shared/joao/test_parameterize/miniconda3/share/psi4/basis/6-31gs.gbs 


         ---------------------------------------------------------
                                   SCF
            by Justin Turney, Rob Parrish, Andy Simmonett
                             and Daniel Smith
                              RKS Reference
                        4 Threads,   2861 MiB Core
         ---------------------------------------------------------

  ==> Geometry <==

    Molecular point group: c1
    Full point group: C1

    Geometry (in Angstrom), charge = 1, multiplicity = 1:

       Center              X                  Y                   Z               Mass       
    ------------   -----------------  -----------------  -----------------  -----------------
         C            0.000000000000     0.000000000000    -0.177864000000    12.000000000000
         C            0.036678000000     1.219374000000     0.524165000000    12.000000000000
         C            0.031765000000     1.213120000000     1.915444000000    12.000000000000
         C            0.000000000000     0.000000000000     2.610107000000    12.000000000000
         C           -0.031765000000    -1.213120000000     1.915444000000    12.000000000000
         C           -0.036678000000    -1.219375000000     0.524165000000    12.000000000000
         C            0.000000000000     0.000000000000    -1.644734000000    12.000000000000
         H            0.018170000000     2.164705000000    -0.010854000000     1.007825032070
         H            0.042402000000     2.152895000000     2.457886000000     1.007825032070
         H            0.000000000000     0.000000000000     3.695756000000     1.007825032070
         H           -0.042402000000    -2.152895000000     2.457886000000     1.007825032070
         H           -0.018170000000    -2.164705000000    -0.010853000000     1.007825032070
         N           -0.712590000000    -0.905950000000    -2.308461000000    14.003074004780
         N            0.712590000000     0.905950000000    -2.308460000000    14.003074004780
         H            0.673432000000     1.006470000000    -3.315997000000     1.007825032070
         H            1.377190000000     1.485970000000    -1.813316000000     1.007825032070
         H           -1.377190000000    -1.485970000000    -1.813317000000     1.007825032070
         H           -0.673432000000    -1.006469000000    -3.315997000000     1.007825032070

  Running in c1 symmetry.

  Rotational constants: A =      0.12190  B =      0.03957  C =      0.03129 [cm^-1]
  Rotational constants: A =   3654.48712  B =   1186.40762  C =    938.04788 [MHz]
  Nuclear repulsion =  416.918599418253450

  Charge       = 1
  Multiplicity = 1
  Electrons    = 64
  Nalpha       = 32
  Nbeta        = 32

  ==> Algorithm <==

  SCF Algorithm Type is DF.
  DIIS enabled.
  MOM disabled.
  Fractional occupation disabled.
  Guess Type is SAD.
  Energy threshold   = 1.00e-06
  Density threshold  = 1.00e-06
  Integral threshold = 0.00e+00

  ==> Primary Basis <==

  Basis Set: 6-31G*
    Blend: 6-31G*
    Number of shells: 72
    Number of basis function: 153
    Number of Cartesian functions: 153
    Spherical Harmonics?: false
    Max angular momentum: 2

  ==> DFT Potential <==

   => Composite Functional: B3LYP-D3ZERO <= 

    B3LYP-d3zero Hyb-GGA Exchange-Correlation Functional

    P. J. Stephens, F. J. Devlin, C. F. Chabalowski, and M. J. Frisch, J. Phys. Chem. 98, 11623 (1994)

    Deriv               =              1
    GGA                 =           TRUE
    Meta                =          FALSE

    Exchange Hybrid     =           TRUE
    MP2 Hybrid          =          FALSE

   => Exchange Functionals <=

    0.0800   Slater exchange
    0.7200         Becke 88

   => Exact (HF) Exchange <=

    0.2000               HF 

   => Correlation Functionals <=

    0.1900   Vosko, Wilk & Nusair (VWN5_RPA)
    0.8100   Lee, Yang & Parr

   => Molecular Quadrature <=

    Radial Scheme       =       TREUTLER
    Pruning Scheme      =           FLAT
    Nuclear Scheme      =       TREUTLER

    BS radius alpha     =              1
    Pruning alpha       =              1
    Radial Points       =             75
    Spherical Points    =            302
    Total Points        =         396948
    Total Blocks        =           3031
    Max Points          =            256
    Max Functions       =            149

   => -D3ZERO: Empirical Dispersion <=

    Grimme's -D3 (zero-damping) Dispersion Correction
    Grimme S.; Antony J.; Ehrlich S.; Krieg H. (2010), J. Chem. Phys., 132: 154104

        S6 =   1.000000E+00
        S8 =   1.703000E+00
       SR6 =   1.261000E+00
       SR8 =   1.000000E+00
    ALPHA6 =   1.400000E+01

   => Loading Basis Set <=

    Name: (6-31G* AUX)
    Role: JKFIT
    Keyword: DF_BASIS_SCF
    atoms 1-7         entry C          line   121 file /shared/joao/test_parameterize/miniconda3/share/psi4/basis/cc-pvdz-jkfit.gbs 
    atoms 8-12, 15-18 entry H          line    51 file /shared/joao/test_parameterize/miniconda3/share/psi4/basis/cc-pvdz-jkfit.gbs 
    atoms 13-14       entry N          line   171 file /shared/joao/test_parameterize/miniconda3/share/psi4/basis/cc-pvdz-jkfit.gbs 

  ==> Pre-Iterations <==

   -------------------------------------------------------
    Irrep   Nso     Nmo     Nalpha   Nbeta   Ndocc  Nsocc
   -------------------------------------------------------
     A        153     153       0       0       0       0
   -------------------------------------------------------
    Total     153     153      32      32      32       0
   -------------------------------------------------------

  ==> Integral Setup <==

  ==> DiskDFJK: Density-Fitted J/K Matrices <==

    J tasked:                  Yes
    K tasked:                  Yes
    wK tasked:                  No
    OpenMP threads:              4
    Integrals threads:           4
    Memory (MB):              2002
    Algorithm:                Core
    Integral Cache:           NONE
    Schwarz Cutoff:          1E-12
    Fitting Condition:       1E-12

   => Auxiliary Basis Set <=

  Basis Set: (6-31G* AUX)
    Blend: CC-PVDZ-JKFIT
    Number of shells: 297
    Number of basis function: 954
    Number of Cartesian functions: 954
    Spherical Harmonics?: false
    Max angular momentum: 3

  Minimum eigenvalue in the overlap matrix is 4.8703047537E-04.
  Using Symmetric Orthogonalization.

  SCF Guess: Superposition of Atomic Densities via on-the-fly atomic UHF.

  ==> Iterations <==

                           Total Energy        Delta E     RMS |[F,P]|

   @DF-RKS iter   0:  -379.62137828859250   -3.79621e+02   6.73461e-02 
   @DF-RKS iter   1:  -381.04549794894945   -1.42412e+00   1.17507e-02 
   @DF-RKS iter   2:  -380.96657971131248    7.89182e-02   1.30215e-02 DIIS
   @DF-RKS iter   3:  -381.46335273228601   -4.96773e-01   1.59597e-03 DIIS
   @DF-RKS iter   4:  -381.46883281655010   -5.48008e-03   7.85506e-04 DIIS
   @DF-RKS iter   5:  -381.47035667773582   -1.52386e-03   2.37161e-04 DIIS
   @DF-RKS iter   6:  -381.47049044091966   -1.33763e-04   8.21388e-05 DIIS
   @DF-RKS iter   7:  -381.47050868846696   -1.82475e-05   1.57062e-05 DIIS
   @DF-RKS iter   8:  -381.47050930233132   -6.13864e-07   6.74894e-06 DIIS
   @DF-RKS iter   9:  -381.47050944639108   -1.44060e-07   2.02962e-06 DIIS
   @DF-RKS iter  10:  -381.47050945903675   -1.26457e-08   6.06601e-07 DIIS

  ==> Post-Iterations <==

    Orbital Energies [Eh]
    ---------------------

    Doubly Occupied:                                                      

       1A    -14.568044     2A    -14.568037     3A    -10.497180  
       4A    -10.373175     5A    -10.356122     6A    -10.356113  
       7A    -10.342965     8A    -10.340403     9A    -10.340347  
      10A     -1.183829    11A     -1.091958    12A     -1.014244  
      13A     -0.926589    14A     -0.902174    15A     -0.845401  
      16A     -0.785712    17A     -0.773382    18A     -0.741668  
      19A     -0.732897    20A     -0.688869    21A     -0.669057  
      22A     -0.625497    23A     -0.617234    24A     -0.586922  
      25A     -0.579015    26A     -0.572822    27A     -0.518317  
      28A     -0.505465    29A     -0.498054    30A     -0.472891  
      31A     -0.411668    32A     -0.405683  

    Virtual:                                                              

      33A     -0.216754    34A     -0.157485    35A     -0.128627  
      36A     -0.107772    37A     -0.067241    38A     -0.061336  
      39A     -0.038526    40A     -0.034369    41A      0.007231  
      42A      0.019737    43A      0.021151    44A      0.056039  
      45A      0.062084    46A      0.083864    47A      0.127081  
      48A      0.148162    49A      0.157319    50A      0.157733  
      51A      0.201445    52A      0.243158    53A      0.298530  
      54A      0.349405    55A      0.355192    56A      0.381356  
      57A      0.387651    58A      0.397314    59A      0.422127  
      60A      0.422699    61A      0.442546    62A      0.448122  
      63A      0.453413    64A      0.471415    65A      0.471932  
      66A      0.475338    67A      0.485108    68A      0.512287  
      69A      0.529514    70A      0.530966    71A      0.539118  
      72A      0.590182    73A      0.606059    74A      0.656572  
      75A      0.656708    76A      0.682941    77A      0.687947  
      78A      0.704269    79A      0.716457    80A      0.719276  
      81A      0.740601    82A      0.773077    83A      0.774953  
      84A      0.800283    85A      0.811168    86A      0.830445  
      87A      0.850128    88A      0.942077    89A      0.961256  
      90A      0.995102    91A      1.001213    92A      1.027613  
      93A      1.065298    94A      1.074787    95A      1.141795  
      96A      1.169408    97A      1.219560    98A      1.272746  
      99A      1.283000   100A      1.307279   101A      1.321712  
     102A      1.343548   103A      1.362357   104A      1.374965  
     105A      1.444051   106A      1.454170   107A      1.471376  
     108A      1.611041   109A      1.621084   110A      1.655457  
     111A      1.665978   112A      1.736558   113A      1.754142  
     114A      1.794676   115A      1.825240   116A      1.856375  
     117A      1.903607   118A      1.906221   119A      1.958684  
     120A      1.974517   121A      1.997458   122A      2.017195  
     123A      2.043840   124A      2.064221   125A      2.125465  
     126A      2.129904   127A      2.151807   128A      2.216082  
     129A      2.229765   130A      2.263853   131A      2.350608  
     132A      2.366093   133A      2.443968   134A      2.453626  
     135A      2.489503   136A      2.514900   137A      2.549977  
     138A      2.587999   139A      2.604121   140A      2.630703  
     141A      2.738320   142A      2.883499   143A      2.984448  
     144A      3.259274   145A      3.638226   146A      3.658050  
     147A      3.911749   148A      3.947951   149A      3.963723  
     150A      4.053814   151A      4.174012   152A      4.257682  
     153A      4.546317  

    Final Occupation by Irrep:
              A 
    DOCC [    32 ]

  Energy converged.

  @DF-RKS Final Energy:  -381.47050945903675

   => Energetics <=

    Nuclear Repulsion Energy =            416.9185994182534500
    One-Electron Energy =               -1329.0469937900088553
    Two-Electron Energy =                 575.0757829563905261
    DFT Exchange-Correlation Energy =     -44.4059659236718645
    Empirical Dispersion Energy =          -0.0119321200000000
    VV10 Nonlocal Energy =                  0.0000000000000000
    Total Energy =                       -381.4705094590366912



Properties will be evaluated at   0.000000,   0.000000,   0.000000 [a0]

Properties computed using the SCF density matrix

  Nuclear Dipole Moment: [e a0]
     X:    -0.0000      Y:    -0.0000      Z:     0.0248

  Electronic Dipole Moment: [e a0]
     X:     0.0000      Y:    -0.0000      Z:    -2.2805

  Dipole Moment: [e a0]
     X:     0.0000      Y:    -0.0000      Z:    -2.2557     Total:     2.2557

  Dipole Moment: [D]
     X:     0.0000      Y:    -0.0001      Z:    -5.7334     Total:     5.7334


*** tstop() called on arancio.prib.upf.edu at Sat Sep 29 20:23:17 2018
Module time:
	user time   =      58.21 seconds =       0.97 minutes
	system time =       0.26 seconds =       0.00 minutes
	total time  =         17 seconds =       0.28 minutes
Total time:
	user time   =      58.21 seconds =       0.97 minutes
	system time =       0.26 seconds =       0.00 minutes
	total time  =         17 seconds =       0.28 minutes


Properties will be evaluated at   0.000000,   0.000000,   0.000000 [a0]
OEProp: No title given, name of density matrix used for the following properties is 'SCF density'
  Nuclear Dipole Moment: [e a0]
     X:    -0.0000      Y:    -0.0000      Z:     0.0248

  Electronic Dipole Moment: [e a0]
     X:     0.0000      Y:    -0.0000      Z:    -2.2805

  Dipole Moment: [e a0]
     X:     0.0000      Y:    -0.0000      Z:    -2.2557     Total:     2.2557

  Dipole Moment: [D]
     X:     0.0000      Y:    -0.0001      Z:    -5.7334     Total:     5.7334

  Quadrupole Moment: [D A]
    XX:   -49.4115     YY:   -37.9829     ZZ:   -13.2492
    XY:     6.4666     XZ:    -0.0000     YZ:    -0.0000

  Traceless Quadrupole Moment: [D A]
    XX:   -15.8636     YY:    -4.4350     ZZ:    20.2987
    XY:     6.4666     XZ:    -0.0000     YZ:    -0.0000

  Mulliken Charges: (a.u.)
   Center  Symbol    Alpha    Beta     Spin     Total
       1     C     2.95717  2.95717  0.00000  0.08566
       2     C     3.08208  3.08208  0.00000 -0.16415
       3     C     3.06249  3.06249  0.00000 -0.12498
       4     C     3.05148  3.05148  0.00000 -0.10295
       5     C     3.06249  3.06249  0.00000 -0.12497
       6     C     3.08207  3.08207  0.00000 -0.16415
       7     C     2.72193  2.72193  0.00000  0.55615
       8     H     0.41420  0.41420  0.00000  0.17160
       9     H     0.40544  0.40544  0.00000  0.18911
      10     H     0.40389  0.40389  0.00000  0.19223
      11     H     0.40544  0.40544  0.00000  0.18911
      12     H     0.41420  0.41420  0.00000  0.17160
      13     N     3.86323  3.86323  0.00000 -0.72645
      14     N     3.86323  3.86323  0.00000 -0.72645
      15     H     0.30570  0.30570  0.00000  0.38861
      16     H     0.29964  0.29964  0.00000  0.40072
      17     H     0.29964  0.29964  0.00000  0.40072
      18     H     0.30570  0.30570  0.00000  0.38861

   Total alpha = 32.00000, Total beta = 32.00000, Total charge =  1.00000



Properties will be evaluated at   0.000000,   0.000000,   0.000000 [a0]
OEProp: No title given, name of density matrix used for the following properties is 'SCF density'

 Electrostatic potential computed on the grid and written to grid_esp.dat

    Psi4 stopped on: Saturday, 29 September 2018 08:24PM
    Psi4 wall time for execution: 0:01:06.32

*** Psi4 exiting successfully. Buy a developer a beer!
