
    -----------------------------------------------------------------------
          Psi4: An Open-Source Ab Initio Electronic Structure Package
                               Psi4 1.2.1 release

                         Git: Rev {HEAD} 406f4de 


    R. M. Parrish, L. A. Burns, D. G. A. Smith, A. C. Simmonett,
    A. E. DePrince III, E. G. Hohenstein, U. Bozkaya, A. Yu. Sokolov,
    R. Di Remigio, R. M. Richard, J. F. Gonthier, A. M. James,
    H. R. McAlexander, A. Kumar, M. Saitow, X. Wang, B. P. Pritchard,
    P. Verma, H. F. Schaefer III, K. Patkowski, R. A. King, E. F. Valeev,
    F. A. Evangelista, J. M. Turney, T. D. Crawford, and C. D. Sherrill,
    J. Chem. Theory Comput. 13(7) pp 3185--3197 (2017).
    (doi: 10.1021/acs.jctc.7b00174)


                         Additional Contributions by
    P. Kraus, H. Kruse, M. H. Lechner, M. C. Schieber, and R. A. Shaw

    -----------------------------------------------------------------------


    Psi4 started on: Saturday, 29 September 2018 04:27PM

    Process ID: 26635
    Host:       loro.prib.upf.edu
    PSIDATADIR: /shared/joao/test_parameterize/miniconda3/share/psi4
    Memory:     500.0 MiB
    Threads:    1
    
  ==> Input File <==

--------------------------------------------------------------------------
set_num_threads(1)
set_memory('5348 MB')

set { scf_mem_safety_factor 0.7 }

set { reference rks }
set { basis cc-pVDZ }

molecule MOL {
    0 1
    noreorient
    nocom
    symmetry c1
    O    1.014300  -0.002300   0.060500
    O    2.462400  -0.107500  -0.002400
    H    0.821200  -0.823600  -0.430600
    H    2.493169  -1.018719  -0.351069
}

set optking { frozen_dihedral = (" 3 1 2 4 ") }

energy, wfn = energy('B3LYP-D3', return_wfn=True)

import os
os.chdir(os.environ['HTMD_PSI4_WORKDIR'])

oeprop(wfn, 'DIPOLE', 'QUADRUPOLE', 'MULLIKEN_CHARGES')

with open('psi4out.xyz', 'w') as f:
    f.write('4 ' )
    f.write('%.12f\n' % energy)
    f.write(MOL.save_string_xyz())
--------------------------------------------------------------------------
  Threads set to 1 by Python driver.

  Memory set to   4.981 GiB by Python driver.

*** tstart() called on loro.prib.upf.edu
*** at Sat Sep 29 16:27:15 2018

   => Loading Basis Set <=

    Name: CC-PVDZ
    Role: ORBITAL
    Keyword: BASIS
    atoms 1-2 entry O          line   198 file /shared/joao/test_parameterize/miniconda3/share/psi4/basis/cc-pvdz.gbs 
    atoms 3-4 entry H          line    22 file /shared/joao/test_parameterize/miniconda3/share/psi4/basis/cc-pvdz.gbs 


         ---------------------------------------------------------
                                   SCF
            by Justin Turney, Rob Parrish, Andy Simmonett
                             and Daniel Smith
                              RKS Reference
                        1 Threads,   5100 MiB Core
         ---------------------------------------------------------

  ==> Geometry <==

    Molecular point group: c1
    Full point group: C1

    Geometry (in Angstrom), charge = 0, multiplicity = 1:

       Center              X                  Y                   Z               Mass       
    ------------   -----------------  -----------------  -----------------  -----------------
         O            1.014300000000    -0.002300000000     0.060500000000    15.994914619560
         O            2.462400000000    -0.107500000000    -0.002400000000    15.994914619560
         H            0.821200000000    -0.823600000000    -0.430600000000     1.007825032070
         H            2.493169000000    -1.018719000000    -0.351069000000     1.007825032070

  Running in c1 symmetry.

  Rotational constants: A =      9.32202  B =      0.13945  C =      0.13745 [cm^-1]
  Rotational constants: A = 279467.03028  B =   4180.65461  C =   4120.76420 [MHz]
  Nuclear repulsion =   36.890405884769606

  Charge       = 0
  Multiplicity = 1
  Electrons    = 18
  Nalpha       = 9
  Nbeta        = 9

  ==> Algorithm <==

  SCF Algorithm Type is DF.
  DIIS enabled.
  MOM disabled.
  Fractional occupation disabled.
  Guess Type is SAD.
  Energy threshold   = 1.00e-06
  Density threshold  = 1.00e-06
  Integral threshold = 0.00e+00

  ==> Primary Basis <==

  Basis Set: CC-PVDZ
    Blend: CC-PVDZ
    Number of shells: 18
    Number of basis function: 38
    Number of Cartesian functions: 40
    Spherical Harmonics?: true
    Max angular momentum: 2

  ==> DFT Potential <==

   => Composite Functional: B3LYP-D3ZERO <= 

    B3LYP-d3zero Hyb-GGA Exchange-Correlation Functional

    P. J. Stephens, F. J. Devlin, C. F. Chabalowski, and M. J. Frisch, J. Phys. Chem. 98, 11623 (1994)

    Deriv               =              1
    GGA                 =           TRUE
    Meta                =          FALSE

    Exchange Hybrid     =           TRUE
    MP2 Hybrid          =          FALSE

   => Exchange Functionals <=

    0.0800   Slater exchange
    0.7200         Becke 88

   => Exact (HF) Exchange <=

    0.2000               HF 

   => Correlation Functionals <=

    0.1900   Vosko, Wilk & Nusair (VWN5_RPA)
    0.8100   Lee, Yang & Parr

   => Molecular Quadrature <=

    Radial Scheme       =       TREUTLER
    Pruning Scheme      =           FLAT
    Nuclear Scheme      =       TREUTLER

    BS radius alpha     =              1
    Pruning alpha       =              1
    Radial Points       =             75
    Spherical Points    =            302
    Total Points        =          88274
    Total Blocks        =            720
    Max Points          =            256
    Max Functions       =             38

   => -D3ZERO: Empirical Dispersion <=

    Grimme's -D3 (zero-damping) Dispersion Correction
    Grimme S.; Antony J.; Ehrlich S.; Krieg H. (2010), J. Chem. Phys., 132: 154104

        S6 =   1.000000E+00
        S8 =   1.703000E+00
       SR6 =   1.261000E+00
       SR8 =   1.000000E+00
    ALPHA6 =   1.400000E+01

   => Loading Basis Set <=

    Name: (CC-PVDZ AUX)
    Role: JKFIT
    Keyword: DF_BASIS_SCF
    atoms 1-2 entry O          line   221 file /shared/joao/test_parameterize/miniconda3/share/psi4/basis/cc-pvdz-jkfit.gbs 
    atoms 3-4 entry H          line    51 file /shared/joao/test_parameterize/miniconda3/share/psi4/basis/cc-pvdz-jkfit.gbs 

  ==> Pre-Iterations <==

   -------------------------------------------------------
    Irrep   Nso     Nmo     Nalpha   Nbeta   Ndocc  Nsocc
   -------------------------------------------------------
     A         38      38       0       0       0       0
   -------------------------------------------------------
    Total      38      38       9       9       9       0
   -------------------------------------------------------

  ==> Integral Setup <==

  DFHelper Memory: AOs need 0.003 [GiB]; user supplied 3.486 [GiB]. Using in-core AOs.

  ==> MemDFJK: Density-Fitted J/K Matrices <==

    J tasked:                   Yes
    K tasked:                   Yes
    wK tasked:                   No
    OpenMP threads:               1
    Memory (MB):               3570
    Algorithm:                 Core
    Schwarz Cutoff:           1E-12
    Mask sparsity (%):       0.0000
    Fitting Condition:        1E-12

   => Auxiliary Basis Set <=

  Basis Set: (CC-PVDZ AUX)
    Blend: CC-PVDZ-JKFIT
    Number of shells: 66
    Number of basis function: 186
    Number of Cartesian functions: 212
    Spherical Harmonics?: true
    Max angular momentum: 3

  Minimum eigenvalue in the overlap matrix is 2.3595259291E-02.
  Using Symmetric Orthogonalization.

  SCF Guess: Superposition of Atomic Densities via on-the-fly atomic UHF.

  ==> Iterations <==

                           Total Energy        Delta E     RMS |[F,P]|

   @DF-RKS iter   0:  -151.58382979427236   -1.51584e+02   4.92730e-02 
   @DF-RKS iter   1:  -151.49973826204828    8.40915e-02   7.67385e-03 
   @DF-RKS iter   2:  -151.49771297171202    2.02529e-03   8.14515e-03 DIIS
   @DF-RKS iter   3:  -151.53346846476126   -3.57555e-02   8.94269e-04 DIIS
   @DF-RKS iter   4:  -151.53386698406692   -3.98519e-04   7.78620e-05 DIIS
   @DF-RKS iter   5:  -151.53387102345195   -4.03939e-06   2.43688e-05 DIIS
   @DF-RKS iter   6:  -151.53387110855601   -8.51041e-08   2.22031e-05 DIIS
   @DF-RKS iter   7:  -151.53387137325817   -2.64702e-07   1.51431e-06 DIIS
   @DF-RKS iter   8:  -151.53387137490955   -1.65139e-09   1.76327e-07 DIIS

  ==> Post-Iterations <==

    Orbital Energies [Eh]
    ---------------------

    Doubly Occupied:                                                      

       1A    -19.192009     2A    -19.191980     3A     -1.122236  
       4A     -0.887506     5A     -0.562248     6A     -0.428491  
       7A     -0.400979     8A     -0.375732     9A     -0.247383  

    Virtual:                                                              

      10A      0.008001    11A      0.020353    12A      0.135265  
      13A      0.542708    14A      0.573590    15A      0.860949  
      16A      0.864797    17A      0.922471    18A      0.934421  
      19A      0.985721    20A      1.068035    21A      1.147532  
      22A      1.228969    23A      1.341898    24A      1.519269  
      25A      1.658269    26A      1.808623    27A      2.007250  
      28A      2.111389    29A      2.296126    30A      2.372707  
      31A      2.626570    32A      2.849380    33A      2.925911  
      34A      2.992699    35A      3.200867    36A      3.490449  
      37A      3.544959    38A      3.824530  

    Final Occupation by Irrep:
              A 
    DOCC [     9 ]

  Energy converged.

  @DF-RKS Final Energy:  -151.53387137490955

   => Energetics <=

    Nuclear Repulsion Energy =             36.8904058847696064
    One-Electron Energy =                -281.6465898080509760
    Two-Electron Energy =                 107.6857627240295443
    DFT Exchange-Correlation Energy =     -14.4632728256577554
    Empirical Dispersion Energy =          -0.0001773500000000
    VV10 Nonlocal Energy =                  0.0000000000000000
    Total Energy =                       -151.5338713749095803



Properties will be evaluated at   0.000000,   0.000000,   0.000000 [a0]

Properties computed using the SCF density matrix

  Nuclear Dipole Moment: [e a0]
     X:    58.8233      Y:    -5.1414      Z:    -0.5988

  Electronic Dipole Moment: [e a0]
     X:   -58.9266      Y:     4.0393      Z:     0.0646

  Dipole Moment: [e a0]
     X:    -0.1033      Y:    -1.1021      Z:    -0.5342     Total:     1.2291

  Dipole Moment: [D]
     X:    -0.2625      Y:    -2.8012      Z:    -1.3578     Total:     3.1239


*** tstop() called on loro.prib.upf.edu at Sat Sep 29 16:27:19 2018
Module time:
	user time   =       2.70 seconds =       0.04 minutes
	system time =       0.06 seconds =       0.00 minutes
	total time  =          4 seconds =       0.07 minutes
Total time:
	user time   =       2.70 seconds =       0.04 minutes
	system time =       0.06 seconds =       0.00 minutes
	total time  =          4 seconds =       0.07 minutes


Properties will be evaluated at   0.000000,   0.000000,   0.000000 [a0]
OEProp: No title given, name of density matrix used for the following properties is 'SCF density'
  Nuclear Dipole Moment: [e a0]
     X:    58.8233      Y:    -5.1414      Z:    -0.5988

  Electronic Dipole Moment: [e a0]
     X:   -58.9266      Y:     4.0393      Z:     0.0646

  Dipole Moment: [e a0]
     X:    -0.1033      Y:    -1.1021      Z:    -0.5342     Total:     1.2291

  Dipole Moment: [D]
     X:    -0.2625      Y:    -2.8012      Z:    -1.3578     Total:     3.1239

  Quadrupole Moment: [D A]
    XX:   -12.2192     YY:    -8.5623     ZZ:   -11.5779
    XY:    -4.7196     XZ:    -2.0209     YZ:     1.6244

  Traceless Quadrupole Moment: [D A]
    XX:    -1.4328     YY:     2.2242     ZZ:    -0.7914
    XY:    -4.7196     XZ:    -2.0209     YZ:     1.6244

  Mulliken Charges: (a.u.)
   Center  Symbol    Alpha    Beta     Spin     Total
       1     O     4.07818  4.07818  0.00000 -0.15635
       2     O     4.07816  4.07816  0.00000 -0.15631
       3     H     0.42183  0.42183  0.00000  0.15635
       4     H     0.42184  0.42184  0.00000  0.15631

   Total alpha =  9.00000, Total beta =  9.00000, Total charge = -0.00000


    Psi4 stopped on: Saturday, 29 September 2018 04:27PM
    Psi4 wall time for execution: 0:00:04.09

*** Psi4 exiting successfully. Buy a developer a beer!
