
    -----------------------------------------------------------------------
          Psi4: An Open-Source Ab Initio Electronic Structure Package
                               Psi4 1.2.1 release

                         Git: Rev {HEAD} 406f4de 


    R. M. Parrish, L. A. Burns, D. G. A. Smith, A. C. Simmonett,
    A. E. DePrince III, E. G. Hohenstein, U. Bozkaya, A. Yu. Sokolov,
    R. Di Remigio, R. M. Richard, J. F. Gonthier, A. M. James,
    H. R. McAlexander, A. Kumar, M. Saitow, X. Wang, B. P. Pritchard,
    P. Verma, H. F. Schaefer III, K. Patkowski, R. A. King, E. F. Valeev,
    F. A. Evangelista, J. M. Turney, T. D. Crawford, and C. D. Sherrill,
    J. Chem. Theory Comput. 13(7) pp 3185--3197 (2017).
    (doi: 10.1021/acs.jctc.7b00174)


                         Additional Contributions by
    P. Kraus, H. Kruse, M. H. Lechner, M. C. Schieber, and R. A. Shaw

    -----------------------------------------------------------------------


    Psi4 started on: Saturday, 29 September 2018 05:09PM

    Process ID: 13186
    Host:       loro.prib.upf.edu
    PSIDATADIR: /shared/joao/test_parameterize/miniconda3/share/psi4
    Memory:     500.0 MiB
    Threads:    1
    
  ==> Input File <==

--------------------------------------------------------------------------
set_num_threads(1)
set_memory('5348 MB')

set { scf_mem_safety_factor 0.7 }

set { reference rks }
set { basis cc-pVDZ }

molecule MOL {
    0 1
    noreorient
    nocom
    symmetry c1
    O    1.050400   0.042900  -0.048100
    C    2.474100   0.047400  -0.029000
    C    3.002600  -1.068900  -0.932000
    N    4.462700  -1.072400  -1.006800
    H    0.760400   0.728400   0.578000
    H    2.809900  -0.097900   1.003200
    H    2.817400   1.026800  -0.378600
    H    2.581000  -0.963300  -1.938400
    H    2.653800  -2.036400  -0.553400
    H    4.756792  -1.581335  -1.839853
    H    4.830509  -1.598550  -0.214251
}

set optking { frozen_dihedral = (" 2 3 4 10 ") }

energy, wfn = energy('B3LYP-D3', return_wfn=True)

import os
os.chdir(os.environ['HTMD_PSI4_WORKDIR'])

oeprop(wfn, 'DIPOLE', 'QUADRUPOLE', 'MULLIKEN_CHARGES')

with open('psi4out.xyz', 'w') as f:
    f.write('11 ' )
    f.write('%.12f\n' % energy)
    f.write(MOL.save_string_xyz())
--------------------------------------------------------------------------
  Threads set to 1 by Python driver.

  Memory set to   4.981 GiB by Python driver.

*** tstart() called on loro.prib.upf.edu
*** at Sat Sep 29 17:09:28 2018

   => Loading Basis Set <=

    Name: CC-PVDZ
    Role: ORBITAL
    Keyword: BASIS
    atoms 1    entry O          line   198 file /shared/joao/test_parameterize/miniconda3/share/psi4/basis/cc-pvdz.gbs 
    atoms 2-3  entry C          line   138 file /shared/joao/test_parameterize/miniconda3/share/psi4/basis/cc-pvdz.gbs 
    atoms 4    entry N          line   168 file /shared/joao/test_parameterize/miniconda3/share/psi4/basis/cc-pvdz.gbs 
    atoms 5-11 entry H          line    22 file /shared/joao/test_parameterize/miniconda3/share/psi4/basis/cc-pvdz.gbs 


         ---------------------------------------------------------
                                   SCF
            by Justin Turney, Rob Parrish, Andy Simmonett
                             and Daniel Smith
                              RKS Reference
                        1 Threads,   5100 MiB Core
         ---------------------------------------------------------

  ==> Geometry <==

    Molecular point group: c1
    Full point group: C1

    Geometry (in Angstrom), charge = 0, multiplicity = 1:

       Center              X                  Y                   Z               Mass       
    ------------   -----------------  -----------------  -----------------  -----------------
         O            1.050400000000     0.042900000000    -0.048100000000    15.994914619560
         C            2.474100000000     0.047400000000    -0.029000000000    12.000000000000
         C            3.002600000000    -1.068900000000    -0.932000000000    12.000000000000
         N            4.462700000000    -1.072400000000    -1.006800000000    14.003074004780
         H            0.760400000000     0.728400000000     0.578000000000     1.007825032070
         H            2.809900000000    -0.097900000000     1.003200000000     1.007825032070
         H            2.817400000000     1.026800000000    -0.378600000000     1.007825032070
         H            2.581000000000    -0.963300000000    -1.938400000000     1.007825032070
         H            2.653800000000    -2.036400000000    -0.553400000000     1.007825032070
         H            4.756792000000    -1.581335000000    -1.839853000000     1.007825032070
         H            4.830509000000    -1.598550000000    -0.214251000000     1.007825032070

  Running in c1 symmetry.

  Rotational constants: A =      0.72162  B =      0.02759  C =      0.02693 [cm^-1]
  Rotational constants: A =  21633.75502  B =    827.05102  C =    807.23090 [MHz]
  Nuclear repulsion =  130.315593970222579

  Charge       = 0
  Multiplicity = 1
  Electrons    = 34
  Nalpha       = 17
  Nbeta        = 17

  ==> Algorithm <==

  SCF Algorithm Type is DF.
  DIIS enabled.
  MOM disabled.
  Fractional occupation disabled.
  Guess Type is SAD.
  Energy threshold   = 1.00e-06
  Density threshold  = 1.00e-06
  Integral threshold = 0.00e+00

  ==> Primary Basis <==

  Basis Set: CC-PVDZ
    Blend: CC-PVDZ
    Number of shells: 45
    Number of basis function: 91
    Number of Cartesian functions: 95
    Spherical Harmonics?: true
    Max angular momentum: 2

  ==> DFT Potential <==

   => Composite Functional: B3LYP-D3ZERO <= 

    B3LYP-d3zero Hyb-GGA Exchange-Correlation Functional

    P. J. Stephens, F. J. Devlin, C. F. Chabalowski, and M. J. Frisch, J. Phys. Chem. 98, 11623 (1994)

    Deriv               =              1
    GGA                 =           TRUE
    Meta                =          FALSE

    Exchange Hybrid     =           TRUE
    MP2 Hybrid          =          FALSE

   => Exchange Functionals <=

    0.0800   Slater exchange
    0.7200         Becke 88

   => Exact (HF) Exchange <=

    0.2000               HF 

   => Correlation Functionals <=

    0.1900   Vosko, Wilk & Nusair (VWN5_RPA)
    0.8100   Lee, Yang & Parr

   => Molecular Quadrature <=

    Radial Scheme       =       TREUTLER
    Pruning Scheme      =           FLAT
    Nuclear Scheme      =       TREUTLER

    BS radius alpha     =              1
    Pruning alpha       =              1
    Radial Points       =             75
    Spherical Points    =            302
    Total Points        =         245098
    Total Blocks        =           1902
    Max Points          =            256
    Max Functions       =             91

   => -D3ZERO: Empirical Dispersion <=

    Grimme's -D3 (zero-damping) Dispersion Correction
    Grimme S.; Antony J.; Ehrlich S.; Krieg H. (2010), J. Chem. Phys., 132: 154104

        S6 =   1.000000E+00
        S8 =   1.703000E+00
       SR6 =   1.261000E+00
       SR8 =   1.000000E+00
    ALPHA6 =   1.400000E+01

   => Loading Basis Set <=

    Name: (CC-PVDZ AUX)
    Role: JKFIT
    Keyword: DF_BASIS_SCF
    atoms 1    entry O          line   221 file /shared/joao/test_parameterize/miniconda3/share/psi4/basis/cc-pvdz-jkfit.gbs 
    atoms 2-3  entry C          line   121 file /shared/joao/test_parameterize/miniconda3/share/psi4/basis/cc-pvdz-jkfit.gbs 
    atoms 4    entry N          line   171 file /shared/joao/test_parameterize/miniconda3/share/psi4/basis/cc-pvdz-jkfit.gbs 
    atoms 5-11 entry H          line    51 file /shared/joao/test_parameterize/miniconda3/share/psi4/basis/cc-pvdz-jkfit.gbs 

  ==> Pre-Iterations <==

   -------------------------------------------------------
    Irrep   Nso     Nmo     Nalpha   Nbeta   Ndocc  Nsocc
   -------------------------------------------------------
     A         91      91       0       0       0       0
   -------------------------------------------------------
    Total      91      91      17      17      17       0
   -------------------------------------------------------

  ==> Integral Setup <==

  DFHelper Memory: AOs need 0.036 [GiB]; user supplied 3.486 [GiB]. Using in-core AOs.

  ==> MemDFJK: Density-Fitted J/K Matrices <==

    J tasked:                   Yes
    K tasked:                   Yes
    wK tasked:                   No
    OpenMP threads:               1
    Memory (MB):               3570
    Algorithm:                 Core
    Schwarz Cutoff:           1E-12
    Mask sparsity (%):       0.4589
    Fitting Condition:        1E-12

   => Auxiliary Basis Set <=

  Basis Set: (CC-PVDZ AUX)
    Blend: CC-PVDZ-JKFIT
    Number of shells: 159
    Number of basis function: 441
    Number of Cartesian functions: 499
    Spherical Harmonics?: true
    Max angular momentum: 3

  Minimum eigenvalue in the overlap matrix is 4.5229109692E-03.
  Using Symmetric Orthogonalization.

  SCF Guess: Superposition of Atomic Densities via on-the-fly atomic UHF.

  ==> Iterations <==

                           Total Energy        Delta E     RMS |[F,P]|

   @DF-RKS iter   0:  -210.83973930891108   -2.10840e+02   3.66322e-02 
   @DF-RKS iter   1:  -210.21675730364223    6.22982e-01   7.01518e-03 
   @DF-RKS iter   2:  -210.07478842314427    1.41969e-01   9.59301e-03 DIIS
   @DF-RKS iter   3:  -210.38988718247302   -3.15099e-01   5.51189e-04 DIIS
   @DF-RKS iter   4:  -210.39049524432883   -6.08062e-04   3.58719e-04 DIIS
   @DF-RKS iter   5:  -210.39095485877641   -4.59614e-04   4.62497e-05 DIIS
   @DF-RKS iter   6:  -210.39096039831097   -5.53953e-06   2.29837e-05 DIIS
   @DF-RKS iter   7:  -210.39096230912338   -1.91081e-06   1.98945e-06 DIIS
   @DF-RKS iter   8:  -210.39096232322504   -1.41017e-08   6.85433e-07 DIIS

  ==> Post-Iterations <==

    Orbital Energies [Eh]
    ---------------------

    Doubly Occupied:                                                      

       1A    -19.124671     2A    -14.305695     3A    -10.219872  
       4A    -10.201806     5A     -1.007068     6A     -0.876979  
       7A     -0.711080     8A     -0.594119     9A     -0.504495  
      10A     -0.490257    11A     -0.448839    12A     -0.415858  
      13A     -0.392281    14A     -0.355456    15A     -0.322932  
      16A     -0.258143    17A     -0.233128  

    Virtual:                                                              

      18A      0.051461    19A      0.058234    20A      0.098281  
      21A      0.122091    22A      0.125734    23A      0.149042  
      24A      0.177687    25A      0.204112    26A      0.246723  
      27A      0.260410    28A      0.434017    29A      0.452952  
      30A      0.491984    31A      0.500872    32A      0.564139  
      33A      0.581114    34A      0.606090    35A      0.614979  
      36A      0.639955    37A      0.654424    38A      0.659964  
      39A      0.679395    40A      0.704701    41A      0.815527  
      42A      0.837248    43A      0.856888    44A      0.910973  
      45A      0.945720    46A      0.994075    47A      1.003411  
      48A      1.065727    49A      1.202031    50A      1.216357  
      51A      1.246051    52A      1.264472    53A      1.303258  
      54A      1.351832    55A      1.392885    56A      1.492280  
      57A      1.524858    58A      1.603141    59A      1.615972  
      60A      1.647977    61A      1.654141    62A      1.671387  
      63A      1.714495    64A      1.739734    65A      1.763268  
      66A      1.767568    67A      1.801743    68A      1.852771  
      69A      1.913348    70A      1.954998    71A      2.011164  
      72A      2.019088    73A      2.064894    74A      2.142880  
      75A      2.154369    76A      2.245988    77A      2.298250  
      78A      2.378864    79A      2.401269    80A      2.435181  
      81A      2.486393    82A      2.532012    83A      2.601633  
      84A      2.676026    85A      2.818906    86A      2.964867  
      87A      3.003674    88A      3.053270    89A      3.118668  
      90A      3.204453    91A      3.697933  

    Final Occupation by Irrep:
              A 
    DOCC [    17 ]

  Energy converged.

  @DF-RKS Final Energy:  -210.39096232322504

   => Energetics <=

    Nuclear Repulsion Energy =            130.3155939702225794
    One-Electron Energy =                -543.6057840373907766
    Two-Electron Energy =                 226.3906243431776772
    DFT Exchange-Correlation Energy =     -23.4865842392345492
    Empirical Dispersion Energy =          -0.0048123600000000
    VV10 Nonlocal Energy =                  0.0000000000000000
    Total Energy =                       -210.3909623232250397



Properties will be evaluated at   0.000000,   0.000000,   0.000000 [a0]

Properties computed using the SCF density matrix

  Nuclear Dipole Moment: [e a0]
     X:   177.0902      Y:   -33.6653      Z:   -31.2593

  Electronic Dipole Moment: [e a0]
     X:  -176.8604      Y:    33.5167      Z:    31.5683

  Dipole Moment: [e a0]
     X:     0.2298      Y:    -0.1485      Z:     0.3090     Total:     0.4127

  Dipole Moment: [D]
     X:     0.5840      Y:    -0.3775      Z:     0.7855     Total:     1.0491


*** tstop() called on loro.prib.upf.edu at Sat Sep 29 17:09:46 2018
Module time:
	user time   =      15.07 seconds =       0.25 minutes
	system time =       0.22 seconds =       0.00 minutes
	total time  =         18 seconds =       0.30 minutes
Total time:
	user time   =      15.07 seconds =       0.25 minutes
	system time =       0.22 seconds =       0.00 minutes
	total time  =         18 seconds =       0.30 minutes


Properties will be evaluated at   0.000000,   0.000000,   0.000000 [a0]
OEProp: No title given, name of density matrix used for the following properties is 'SCF density'
  Nuclear Dipole Moment: [e a0]
     X:   177.0902      Y:   -33.6653      Z:   -31.2593

  Electronic Dipole Moment: [e a0]
     X:  -176.8604      Y:    33.5167      Z:    31.5683

  Dipole Moment: [e a0]
     X:     0.2298      Y:    -0.1485      Z:     0.3090     Total:     0.4127

  Dipole Moment: [D]
     X:     0.5840      Y:    -0.3775      Z:     0.7855     Total:     1.0491

  Quadrupole Moment: [D A]
    XX:   -24.2289     YY:   -22.0677     ZZ:   -23.3448
    XY:    -6.4143     XZ:     0.2074     YZ:     2.3872

  Traceless Quadrupole Moment: [D A]
    XX:    -1.0151     YY:     1.1461     ZZ:    -0.1310
    XY:    -6.4143     XZ:     0.2074     YZ:     2.3872

  Mulliken Charges: (a.u.)
   Center  Symbol    Alpha    Beta     Spin     Total
       1     O     4.14037  4.14037  0.00000 -0.28074
       2     C     2.92449  2.92449  0.00000  0.15102
       3     C     2.99147  2.99147  0.00000  0.01707
       4     N     3.59071  3.59071  0.00000 -0.18143
       5     H     0.43000  0.43000  0.00000  0.14000
       6     H     0.50505  0.50505  0.00000 -0.01010
       7     H     0.49965  0.49965  0.00000  0.00070
       8     H     0.49021  0.49021  0.00000  0.01958
       9     H     0.50019  0.50019  0.00000 -0.00037
      10     H     0.46307  0.46307  0.00000  0.07385
      11     H     0.46479  0.46479  0.00000  0.07042

   Total alpha = 17.00000, Total beta = 17.00000, Total charge = -0.00000


    Psi4 stopped on: Saturday, 29 September 2018 05:09PM
    Psi4 wall time for execution: 0:00:18.19

*** Psi4 exiting successfully. Buy a developer a beer!
