
    -----------------------------------------------------------------------
          Psi4: An Open-Source Ab Initio Electronic Structure Package
                               Psi4 1.2.1 release

                         Git: Rev {HEAD} 406f4de 


    R. M. Parrish, L. A. Burns, D. G. A. Smith, A. C. Simmonett,
    A. E. DePrince III, E. G. Hohenstein, U. Bozkaya, A. Yu. Sokolov,
    R. Di Remigio, R. M. Richard, J. F. Gonthier, A. M. James,
    H. R. McAlexander, A. Kumar, M. Saitow, X. Wang, B. P. Pritchard,
    P. Verma, H. F. Schaefer III, K. Patkowski, R. A. King, E. F. Valeev,
    F. A. Evangelista, J. M. Turney, T. D. Crawford, and C. D. Sherrill,
    J. Chem. Theory Comput. 13(7) pp 3185--3197 (2017).
    (doi: 10.1021/acs.jctc.7b00174)


                         Additional Contributions by
    P. Kraus, H. Kruse, M. H. Lechner, M. C. Schieber, and R. A. Shaw

    -----------------------------------------------------------------------


    Psi4 started on: Saturday, 29 September 2018 08:45PM

    Process ID: 18673
    Host:       green.prib.upf.edu
    PSIDATADIR: /shared/joao/test_parameterize/miniconda3/share/psi4
    Memory:     500.0 MiB
    Threads:    1
    
  ==> Input File <==

--------------------------------------------------------------------------
set_num_threads(4)
set_memory('3000 MB')

set { scf_mem_safety_factor 0.7 }

set { reference rks }
set { basis 6-31G* }

molecule MOL {
    1 1
    noreorient
    nocom
    symmetry c1
    C   -0.000000  -0.000000  -0.177864
    C    0.036678   1.219374   0.524165
    C    0.031765   1.213120   1.915444
    C    0.000000   0.000000   2.610107
    C   -0.031765  -1.213120   1.915444
    C   -0.036678  -1.219375   0.524165
    C   -0.000000   0.000000  -1.644734
    H    0.018170   2.164705  -0.010854
    H    0.042402   2.152895   2.457886
    H    0.000000   0.000000   3.695756
    H   -0.042402  -2.152895   2.457886
    H   -0.018170  -2.164705  -0.010853
    N   -0.860283   0.767101  -2.308460
    N    0.860283  -0.767100  -2.308461
    H    0.963025  -0.734216  -3.315997
    H    1.398215  -1.466204  -1.813317
    H   -1.398215   1.466204  -1.813316
    H   -0.963026   0.734216  -3.315997
}

set optking { frozen_dihedral = (" 2 1 7 13 ") }

set optking { dynamic_level = 1 
 geom_maxiter = 250
 print_trajectory_xyz_file = True }

energy, wfn = optimize('B3LYP-D3', return_wfn=True)

import os
os.chdir(os.environ['HTMD_PSI4_WORKDIR'])

oeprop(wfn, 'DIPOLE', 'QUADRUPOLE', 'MULLIKEN_CHARGES')

with open('psi4out.xyz', 'w') as f:
    f.write('18 ' )
    f.write('%.12f\n' % energy)
    f.write(MOL.save_string_xyz())
--------------------------------------------------------------------------
  Threads set to 4 by Python driver.

  Memory set to   2.794 GiB by Python driver.
gradient() will perform analytic gradient computation.

*** tstart() called on green.prib.upf.edu
*** at Sat Sep 29 20:45:12 2018

   => Loading Basis Set <=

    Name: 6-31G*
    Role: ORBITAL
    Keyword: BASIS
    atoms 1-7         entry C          line   111 file /shared/joao/test_parameterize/miniconda3/share/psi4/basis/6-31gs.gbs 
    atoms 8-12, 15-18 entry H          line    44 file /shared/joao/test_parameterize/miniconda3/share/psi4/basis/6-31gs.gbs 
    atoms 13-14       entry N          line   128 file /shared/joao/test_parameterize/miniconda3/share/psi4/basis/6-31gs.gbs 


         ---------------------------------------------------------
                                   SCF
            by Justin Turney, Rob Parrish, Andy Simmonett
                             and Daniel Smith
                              RKS Reference
                        4 Threads,   2861 MiB Core
         ---------------------------------------------------------

  ==> Geometry <==

    Molecular point group: c1
    Full point group: C1

    Geometry (in Angstrom), charge = 1, multiplicity = 1:

       Center              X                  Y                   Z               Mass       
    ------------   -----------------  -----------------  -----------------  -----------------
         C            0.000000000000     0.000000000000    -0.177864000000    12.000000000000
         C            0.036678000000     1.219374000000     0.524165000000    12.000000000000
         C            0.031765000000     1.213120000000     1.915444000000    12.000000000000
         C            0.000000000000     0.000000000000     2.610107000000    12.000000000000
         C           -0.031765000000    -1.213120000000     1.915444000000    12.000000000000
         C           -0.036678000000    -1.219375000000     0.524165000000    12.000000000000
         C            0.000000000000     0.000000000000    -1.644734000000    12.000000000000
         H            0.018170000000     2.164705000000    -0.010854000000     1.007825032070
         H            0.042402000000     2.152895000000     2.457886000000     1.007825032070
         H            0.000000000000     0.000000000000     3.695756000000     1.007825032070
         H           -0.042402000000    -2.152895000000     2.457886000000     1.007825032070
         H           -0.018170000000    -2.164705000000    -0.010853000000     1.007825032070
         N           -0.860283000000     0.767101000000    -2.308460000000    14.003074004780
         N            0.860283000000    -0.767100000000    -2.308461000000    14.003074004780
         H            0.963025000000    -0.734216000000    -3.315997000000     1.007825032070
         H            1.398215000000    -1.466204000000    -1.813317000000     1.007825032070
         H           -1.398215000000     1.466204000000    -1.813316000000     1.007825032070
         H           -0.963026000000     0.734216000000    -3.315997000000     1.007825032070

  Running in c1 symmetry.

  Rotational constants: A =      0.12190  B =      0.03879  C =      0.03180 [cm^-1]
  Rotational constants: A =   3654.48704  B =   1162.94514  C =    953.25385 [MHz]
  Nuclear repulsion =  416.581057844078885

  Charge       = 1
  Multiplicity = 1
  Electrons    = 64
  Nalpha       = 32
  Nbeta        = 32

  ==> Algorithm <==

  SCF Algorithm Type is DF.
  DIIS enabled.
  MOM disabled.
  Fractional occupation disabled.
  Guess Type is SAD.
  Energy threshold   = 1.00e-08
  Density threshold  = 1.00e-08
  Integral threshold = 0.00e+00

  ==> Primary Basis <==

  Basis Set: 6-31G*
    Blend: 6-31G*
    Number of shells: 72
    Number of basis function: 153
    Number of Cartesian functions: 153
    Spherical Harmonics?: false
    Max angular momentum: 2

  ==> DFT Potential <==

   => Composite Functional: B3LYP-D3ZERO <= 

    B3LYP-d3zero Hyb-GGA Exchange-Correlation Functional

    P. J. Stephens, F. J. Devlin, C. F. Chabalowski, and M. J. Frisch, J. Phys. Chem. 98, 11623 (1994)

    Deriv               =              1
    GGA                 =           TRUE
    Meta                =          FALSE

    Exchange Hybrid     =           TRUE
    MP2 Hybrid          =          FALSE

   => Exchange Functionals <=

    0.0800   Slater exchange
    0.7200         Becke 88

   => Exact (HF) Exchange <=

    0.2000               HF 

   => Correlation Functionals <=

    0.1900   Vosko, Wilk & Nusair (VWN5_RPA)
    0.8100   Lee, Yang & Parr

   => Molecular Quadrature <=

    Radial Scheme       =       TREUTLER
    Pruning Scheme      =           FLAT
    Nuclear Scheme      =       TREUTLER

    BS radius alpha     =              1
    Pruning alpha       =              1
    Radial Points       =             75
    Spherical Points    =            302
    Total Points        =         396988
    Total Blocks        =           2999
    Max Points          =            256
    Max Functions       =            149

   => -D3ZERO: Empirical Dispersion <=

    Grimme's -D3 (zero-damping) Dispersion Correction
    Grimme S.; Antony J.; Ehrlich S.; Krieg H. (2010), J. Chem. Phys., 132: 154104

        S6 =   1.000000E+00
        S8 =   1.703000E+00
       SR6 =   1.261000E+00
       SR8 =   1.000000E+00
    ALPHA6 =   1.400000E+01

   => Loading Basis Set <=

    Name: (6-31G* AUX)
    Role: JKFIT
    Keyword: DF_BASIS_SCF
    atoms 1-7         entry C          line   121 file /shared/joao/test_parameterize/miniconda3/share/psi4/basis/cc-pvdz-jkfit.gbs 
    atoms 8-12, 15-18 entry H          line    51 file /shared/joao/test_parameterize/miniconda3/share/psi4/basis/cc-pvdz-jkfit.gbs 
    atoms 13-14       entry N          line   171 file /shared/joao/test_parameterize/miniconda3/share/psi4/basis/cc-pvdz-jkfit.gbs 

  ==> Pre-Iterations <==

   -------------------------------------------------------
    Irrep   Nso     Nmo     Nalpha   Nbeta   Ndocc  Nsocc
   -------------------------------------------------------
     A        153     153       0       0       0       0
   -------------------------------------------------------
    Total     153     153      32      32      32       0
   -------------------------------------------------------

  ==> Integral Setup <==

  ==> DiskDFJK: Density-Fitted J/K Matrices <==

    J tasked:                  Yes
    K tasked:                  Yes
    wK tasked:                  No
    OpenMP threads:              4
    Integrals threads:           4
    Memory (MB):              2002
    Algorithm:                Core
    Integral Cache:           NONE
    Schwarz Cutoff:          1E-12
    Fitting Condition:       1E-12

   => Auxiliary Basis Set <=

  Basis Set: (6-31G* AUX)
    Blend: CC-PVDZ-JKFIT
    Number of shells: 297
    Number of basis function: 954
    Number of Cartesian functions: 954
    Spherical Harmonics?: false
    Max angular momentum: 3

  Minimum eigenvalue in the overlap matrix is 4.8708097926E-04.
  Using Symmetric Orthogonalization.

  SCF Guess: Superposition of Atomic Densities via on-the-fly atomic UHF.

  ==> Iterations <==

                           Total Energy        Delta E     RMS |[F,P]|

   @DF-RKS iter   0:  -379.51163235643139   -3.79512e+02   6.68675e-02 
   @DF-RKS iter   1:  -381.01625186955931   -1.50462e+00   1.21725e-02 
   @DF-RKS iter   2:  -380.91182731219197    1.04425e-01   1.37541e-02 DIIS
   @DF-RKS iter   3:  -381.45441061781128   -5.42583e-01   1.97738e-03 DIIS
   @DF-RKS iter   4:  -381.46276129518787   -8.35068e-03   9.03516e-04 DIIS
   @DF-RKS iter   5:  -381.46479927485836   -2.03798e-03   2.48283e-04 DIIS
   @DF-RKS iter   6:  -381.46494824664632   -1.48972e-04   7.70945e-05 DIIS
   @DF-RKS iter   7:  -381.46496373023535   -1.54836e-05   1.54561e-05 DIIS
   @DF-RKS iter   8:  -381.46496432159847   -5.91363e-07   7.05469e-06 DIIS
   @DF-RKS iter   9:  -381.46496447728106   -1.55683e-07   2.13906e-06 DIIS
   @DF-RKS iter  10:  -381.46496449095065   -1.36696e-08   6.27595e-07 DIIS
   @DF-RKS iter  11:  -381.46496449207683   -1.12618e-09   9.76768e-08 DIIS
   @DF-RKS iter  12:  -381.46496449209286   -1.60298e-11   7.14511e-08 DIIS
   @DF-RKS iter  13:  -381.46496449210872   -1.58593e-11   1.76214e-08 DIIS
   @DF-RKS iter  14:  -381.46496449210991   -1.19371e-12   8.24891e-09 DIIS

  ==> Post-Iterations <==

    Orbital Energies [Eh]
    ---------------------

    Doubly Occupied:                                                      

       1A    -14.571880     2A    -14.571873     3A    -10.501673  
       4A    -10.372609     5A    -10.354500     6A    -10.354492  
       7A    -10.338950     8A    -10.338307     9A    -10.338081  
      10A     -1.187300    11A     -1.095151    12A     -1.012774  
      13A     -0.926216    14A     -0.900396    15A     -0.846598  
      16A     -0.787440    17A     -0.772797    18A     -0.745110  
      19A     -0.732643    20A     -0.691075    21A     -0.668957  
      22A     -0.625023    23A     -0.619781    24A     -0.584435  
      25A     -0.577374    26A     -0.573668    27A     -0.515775  
      28A     -0.504751    29A     -0.496271    30A     -0.474196  
      31A     -0.407398    32A     -0.403506  

    Virtual:                                                              

      33A     -0.210474    34A     -0.155582    35A     -0.146468  
      36A     -0.110477    37A     -0.070542    38A     -0.063607  
      39A     -0.038808    40A     -0.036019    41A      0.009827  
      42A      0.021863    43A      0.022368    44A      0.060617  
      45A      0.063090    46A      0.076393    47A      0.127729  
      48A      0.154861    49A      0.159569    50A      0.163049  
      51A      0.205220    52A      0.232204    53A      0.296452  
      54A      0.346514    55A      0.354684    56A      0.377329  
      57A      0.388928    58A      0.397843    59A      0.413125  
      60A      0.424541    61A      0.447444    62A      0.448278  
      63A      0.449181    64A      0.470695    65A      0.471595  
      66A      0.476815    67A      0.483933    68A      0.508212  
      69A      0.521248    70A      0.532262    71A      0.542982  
      72A      0.572299    73A      0.606012    74A      0.654398  
      75A      0.656929    76A      0.679308    77A      0.685170  
      78A      0.706450    79A      0.714897    80A      0.715991  
      81A      0.740658    82A      0.766875    83A      0.777175  
      84A      0.795797    85A      0.813533    86A      0.838114  
      87A      0.850008    88A      0.936800    89A      0.970959  
      90A      0.996740    91A      1.004527    92A      1.023556  
      93A      1.025447    94A      1.059118    95A      1.137708  
      96A      1.188457    97A      1.224109    98A      1.272286  
      99A      1.277417   100A      1.318641   101A      1.323779  
     102A      1.340966   103A      1.362005   104A      1.373545  
     105A      1.405288   106A      1.449229   107A      1.499944  
     108A      1.612638   109A      1.633099   110A      1.651528  
     111A      1.676800   112A      1.737690   113A      1.755714  
     114A      1.803344   115A      1.822402   116A      1.854157  
     117A      1.894577   118A      1.904668   119A      1.951484  
     120A      1.978541   121A      1.997005   122A      2.017246  
     123A      2.037685   124A      2.081661   125A      2.133893  
     126A      2.149241   127A      2.152516   128A      2.171080  
     129A      2.222737   130A      2.256330   131A      2.360069  
     132A      2.368975   133A      2.428887   134A      2.450858  
     135A      2.494403   136A      2.552235   137A      2.555431  
     138A      2.590856   139A      2.609272   140A      2.628943  
     141A      2.731936   142A      2.882428   143A      2.962977  
     144A      3.257945   145A      3.633777   146A      3.647636  
     147A      3.925971   148A      3.956244   149A      3.967390  
     150A      4.073713   151A      4.178906   152A      4.258087  
     153A      4.546198  

    Final Occupation by Irrep:
              A 
    DOCC [    32 ]

  Energy converged.

  @DF-RKS Final Energy:  -381.46496449210991

   => Energetics <=

    Nuclear Repulsion Energy =            416.5810578440788845
    One-Electron Energy =               -1328.3633469757783132
    Two-Electron Energy =                 574.7333283113907783
    DFT Exchange-Correlation Energy =     -44.4040488418012842
    Empirical Dispersion Energy =          -0.0119548300000000
    VV10 Nonlocal Energy =                  0.0000000000000000
    Total Energy =                       -381.4649644921098570



Properties will be evaluated at   0.000000,   0.000000,   0.000000 [a0]

Properties computed using the SCF density matrix

  Nuclear Dipole Moment: [e a0]
     X:    -0.0000      Y:     0.0000      Z:     0.0248

  Electronic Dipole Moment: [e a0]
     X:     0.0000      Y:    -0.0000      Z:    -2.4169

  Dipole Moment: [e a0]
     X:    -0.0000      Y:    -0.0000      Z:    -2.3921     Total:     2.3921

  Dipole Moment: [D]
     X:    -0.0000      Y:    -0.0000      Z:    -6.0801     Total:     6.0801


*** tstop() called on green.prib.upf.edu at Sat Sep 29 20:45:39 2018
Module time:
	user time   =      97.89 seconds =       1.63 minutes
	system time =       0.52 seconds =       0.01 minutes
	total time  =         27 seconds =       0.45 minutes
Total time:
	user time   =      97.89 seconds =       1.63 minutes
	system time =       0.52 seconds =       0.01 minutes
	total time  =         27 seconds =       0.45 minutes

*** tstart() called on green.prib.upf.edu
*** at Sat Sep 29 20:45:39 2018


         ------------------------------------------------------------
                                   SCF GRAD                          
                          Rob Parrish, Justin Turney,                
                       Andy Simmonett, and Alex Sokolov              
         ------------------------------------------------------------

  ==> Geometry <==

    Molecular point group: c1
    Full point group: C1

    Geometry (in Angstrom), charge = 1, multiplicity = 1:

       Center              X                  Y                   Z               Mass       
    ------------   -----------------  -----------------  -----------------  -----------------
         C            0.000000000000     0.000000000000    -0.177864000000    12.000000000000
         C            0.036678000000     1.219374000000     0.524165000000    12.000000000000
         C            0.031765000000     1.213120000000     1.915444000000    12.000000000000
         C            0.000000000000     0.000000000000     2.610107000000    12.000000000000
         C           -0.031765000000    -1.213120000000     1.915444000000    12.000000000000
         C           -0.036678000000    -1.219375000000     0.524165000000    12.000000000000
         C            0.000000000000     0.000000000000    -1.644734000000    12.000000000000
         H            0.018170000000     2.164705000000    -0.010854000000     1.007825032070
         H            0.042402000000     2.152895000000     2.457886000000     1.007825032070
         H            0.000000000000     0.000000000000     3.695756000000     1.007825032070
         H           -0.042402000000    -2.152895000000     2.457886000000     1.007825032070
         H           -0.018170000000    -2.164705000000    -0.010853000000     1.007825032070
         N           -0.860283000000     0.767101000000    -2.308460000000    14.003074004780
         N            0.860283000000    -0.767100000000    -2.308461000000    14.003074004780
         H            0.963025000000    -0.734216000000    -3.315997000000     1.007825032070
         H            1.398215000000    -1.466204000000    -1.813317000000     1.007825032070
         H           -1.398215000000     1.466204000000    -1.813316000000     1.007825032070
         H           -0.963026000000     0.734216000000    -3.315997000000     1.007825032070

  Nuclear repulsion =  416.581057844078885

  ==> Basis Set <==

  Basis Set: 6-31G*
    Blend: 6-31G*
    Number of shells: 72
    Number of basis function: 153
    Number of Cartesian functions: 153
    Spherical Harmonics?: false
    Max angular momentum: 2

  ==> DFJKGrad: Density-Fitted SCF Gradients <==

    Gradient:                    1
    J tasked:                  Yes
    K tasked:                  Yes
    wK tasked:                  No
    OpenMP threads:              4
    Integrals threads:           4
    Memory (MB):              2002
    Schwarz Cutoff:          0E+00
    Fitting Condition:       1E-12

   => Auxiliary Basis Set <=

  Basis Set: (6-31G* AUX)
    Blend: CC-PVDZ-JKFIT
    Number of shells: 297
    Number of basis function: 954
    Number of Cartesian functions: 954
    Spherical Harmonics?: false
    Max angular momentum: 3

  ==> DFT Potential <==

   => Composite Functional: B3LYP-D3ZERO <= 

    B3LYP-d3zero Hyb-GGA Exchange-Correlation Functional

    P. J. Stephens, F. J. Devlin, C. F. Chabalowski, and M. J. Frisch, J. Phys. Chem. 98, 11623 (1994)

    Deriv               =              1
    GGA                 =           TRUE
    Meta                =          FALSE

    Exchange Hybrid     =           TRUE
    MP2 Hybrid          =          FALSE

   => Exchange Functionals <=

    0.0800   Slater exchange
    0.7200         Becke 88

   => Exact (HF) Exchange <=

    0.2000               HF 

   => Correlation Functionals <=

    0.1900   Vosko, Wilk & Nusair (VWN5_RPA)
    0.8100   Lee, Yang & Parr

   => Molecular Quadrature <=

    Radial Scheme       =       TREUTLER
    Pruning Scheme      =           FLAT
    Nuclear Scheme      =       TREUTLER

    BS radius alpha     =              1
    Pruning alpha       =              1
    Radial Points       =             75
    Spherical Points    =            302
    Total Points        =         396988
    Total Blocks        =           2999
    Max Points          =            256
    Max Functions       =            149


  -Total Gradient:
     Atom            X                  Y                   Z
    ------   -----------------  -----------------  -----------------
       1       -0.000000056316     0.000000543959    -0.007735230303
       2        0.008578317035     0.001112285390     0.002616793067
       3        0.000499677662     0.001188170951    -0.001094146003
       4       -0.000000001037    -0.000000092222     0.000096782625
       5       -0.000499671199    -0.001187967102    -0.001094051815
       6       -0.008578314807    -0.001113703413     0.002616456055
       7        0.000000103045    -0.000000203254     0.007046007867
       8       -0.003631374062    -0.000393981101     0.000231391502
       9       -0.000925878315    -0.000045670332     0.000074656637
      10       -0.000000000526     0.000000007501     0.000054193993
      11        0.000925876652     0.000045704015     0.000074576750
      12        0.003631353859     0.000394758794     0.000231883508
      13       -0.004972955948    -0.002661922859    -0.001278313506
      14        0.004972667311     0.002662596100    -0.001279723467
      15        0.002553863842     0.002640824272     0.000691503125
      16       -0.003701132357    -0.002824051604    -0.000982745831
      17        0.003701444789     0.002823649620    -0.000983044868
      18       -0.002553919817    -0.002640948611     0.000690523939


*** tstop() called on green.prib.upf.edu at Sat Sep 29 20:45:46 2018
Module time:
	user time   =      28.05 seconds =       0.47 minutes
	system time =       0.20 seconds =       0.00 minutes
	total time  =          7 seconds =       0.12 minutes
Total time:
	user time   =     126.00 seconds =       2.10 minutes
	system time =       0.72 seconds =       0.01 minutes
	total time  =         34 seconds =       0.57 minutes

			-----------------------------------------
			 OPTKING 2.0: for geometry optimizations 
			  - R.A. King,  Bethel University        
			-----------------------------------------
	At level 1: Red. Int., RFO, no backsteps, dynamic trust

	Internal coordinates to be generated automatically.
	Detected frag 1 with atoms:  1 2 3 4 5 6 7 8 9 10 11 12 13 14 15 16 17 18
	---Fragment 1 Bond Connectivity---
	 1 : 2 6 7
	 2 : 1 3 8
	 3 : 2 4 9
	 4 : 3 5 10
	 5 : 4 6 11
	 6 : 1 5 12
	 7 : 1 13 14
	 8 : 2
	 9 : 3
	 10 : 4
	 11 : 5
	 12 : 6
	 13 : 7 17 18
	 14 : 7 15 16
	 15 : 14
	 16 : 14
	 17 : 13
	 18 : 13

	Assuming in current code that numbering for constraints corresponds to unified fragment.
	Frozen dihedral atom list: 
	     2     1     7    13
	---Fragment 1 Geometry and Gradient---
	 C           0.0000000000        0.0000000000       -0.3361142489
	 C           0.0693113751        2.3042829136        0.9905282984
	 C           0.0600271506        2.2924645663        3.6196645829
	 C           0.0000000000        0.0000000000        4.9323874075
	 C          -0.0600271506       -2.2924645663        3.6196645829
	 C          -0.0693113751       -2.3042848033        0.9905282984
	 C           0.0000000000        0.0000000000       -3.1080968214
	 H           0.0343363238        4.0906996085       -0.0205110874
	 H           0.0801281675        4.0683819429        4.6447314059
	 H           0.0000000000        0.0000000000        6.9839666940
	 H          -0.0801281675       -4.0683819429        4.6447314059
	 H          -0.0343363238       -4.0906996085       -0.0205091977
	 N          -1.6256992668        1.4496108063       -4.3623571887
	 N           1.6256992668       -1.4496089165       -4.3623590784
	 H           1.8198535091       -1.3874671624       -6.2663261875
	 H           2.6422434249       -2.7707240149       -3.4266725221
	 H          -2.6422434249        2.7707240149       -3.4266706324
	 H          -1.8198553988        1.3874671624       -6.2663261875
	            -0.0000000563        0.0000005440       -0.0077352303
	             0.0085783170        0.0011122854        0.0026167931
	             0.0004996777        0.0011881710       -0.0010941460
	            -0.0000000010       -0.0000000922        0.0000967826
	            -0.0004996712       -0.0011879671       -0.0010940518
	            -0.0085783148       -0.0011137034        0.0026164561
	             0.0000001030       -0.0000002033        0.0070460079
	            -0.0036313741       -0.0003939811        0.0002313915
	            -0.0009258783       -0.0000456703        0.0000746566
	            -0.0000000005        0.0000000075        0.0000541940
	             0.0009258767        0.0000457040        0.0000745767
	             0.0036313539        0.0003947588        0.0002318835
	            -0.0049729559       -0.0026619229       -0.0012783135
	             0.0049726673        0.0026625961       -0.0012797235
	             0.0025538638        0.0026408243        0.0006915031
	            -0.0037011324       -0.0028240516       -0.0009827458
	             0.0037014448        0.0028236496       -0.0009830449
	            -0.0025539198       -0.0026409486        0.0006905239

	Previous optimization step data not found.  Starting new optimization.

	---Fragment 1 Intrafragment Coordinates---
	 - Coordinate -           - BOHR/RAD -       - ANG/DEG -
	 R(1,2)           =         2.659794	       1.407502
	 R(1,6)           =         2.659796	       1.407503
	 R(1,7)           =         2.771983	       1.466870
	 R(2,3)           =         2.629179	       1.391302
	 R(2,8)           =         2.052976	       1.086388
	 R(3,4)           =         2.642393	       1.398294
	 R(3,9)           =         2.050622	       1.085142
	 R(4,5)           =         2.642393	       1.398294
	 R(4,10)          =         2.051579	       1.085649
	 R(5,6)           =         2.629179	       1.391302
	 R(5,11)          =         2.050622	       1.085142
	 R(6,12)          =         2.052973	       1.086386
	 R(7,13)          =         2.513452	       1.330061
	 R(7,14)          =         2.513451	       1.330061
	 R(13,17)         =         1.911599	       1.011575
	 R(13,18)         =         1.914852	       1.013296
	 R(14,15)         =         1.914849	       1.013295
	 R(14,16)         =         1.911600	       1.011575
	 B(1,2,3)         =         2.088380	     119.655376
	 B(1,2,8)         =         2.103396	     120.515689
	 B(1,6,5)         =         2.088379	     119.655315
	 B(1,6,12)        =         2.103396	     120.515729
	 B(1,7,13)        =         2.093263	     119.935126
	 B(1,7,14)        =         2.093264	     119.935178
	 B(2,1,6)         =         2.097220	     120.161857
	 B(2,1,7)         =         2.092983	     119.919082
	 B(2,3,4)         =         2.095279	     120.050636
	 B(2,3,9)         =         2.089719	     119.732108
	 B(3,2,8)         =         2.090149	     119.756722
	 B(3,4,5)         =         2.101793	     120.423859
	 B(3,4,10)        =         2.090696	     119.788070
	 B(4,3,9)         =         2.098135	     120.214297
	 B(4,5,6)         =         2.095280	     120.050677
	 B(4,5,11)        =         2.098135	     120.214297
	 B(5,4,10)        =         2.090696	     119.788070
	 B(5,6,12)        =         2.090149	     119.756743
	 B(6,1,7)         =         2.092982	     119.919061
	 B(6,5,11)        =         2.089719	     119.732067
	 B(7,13,17)       =         2.092412	     119.886390
	 B(7,13,18)       =         2.144859	     122.891369
	 B(7,14,15)       =         2.144860	     122.891427
	 B(7,14,16)       =         2.092412	     119.886348
	 B(13,7,14)       =         2.096659	     120.129696
	 B(15,14,16)      =         2.043399	     117.078156
	 B(17,13,18)      =         2.043400	     117.078183
	 D(1,2,3,4)       =         0.007799	       0.446825
	 D(1,2,3,9)       =        -3.122896	    -178.928735
	 D(1,6,5,4)       =         0.007799	       0.446822
	 D(1,6,5,11)      =        -3.122896	    -178.928737
	 D(1,7,13,17)     =         0.187845	      10.762699
	 D(1,7,13,18)     =        -3.032165	    -173.730238
	 D(1,7,14,15)     =        -3.032166	    -173.730325
	 D(1,7,14,16)     =         0.187846	      10.762774
	 D(2,1,6,5)       =        -0.003906	      -0.223802
	 D(2,1,6,12)      =        -3.091437	    -177.126283
	*D(2,1,7,13)      =        -0.872665	     -50.000009
	 D(2,1,7,14)      =         2.268927	     129.999954
	 D(2,3,4,5)       =        -0.003942	      -0.225875
	 D(2,3,4,10)      =         3.137650	     179.774125
	 D(3,2,1,6)       =        -0.003906	      -0.223806
	 D(3,2,1,7)       =         3.137687	     179.776196
	 D(3,4,5,6)       =        -0.003942	      -0.225874
	 D(3,4,5,11)      =         3.126699	     179.146646
	 D(4,3,2,8)       =         3.095744	     177.373058
	 D(4,5,6,12)      =         3.095744	     177.373055
	 D(5,4,3,9)       =         3.126699	     179.146646
	 D(5,6,1,7)       =         3.137687	     179.776197
	 D(6,1,2,8)       =        -3.091437	    -177.126287
	 D(6,1,7,13)      =         2.268928	     129.999993
	 D(6,1,7,14)      =        -0.872665	     -50.000044
	 D(6,5,4,10)      =         3.137650	     179.774126
	 D(7,1,2,8)       =         0.050156	       2.873714
	 D(7,1,6,12)      =         0.050156	       2.873716
	 D(8,2,3,9)       =        -0.034950	      -2.002503
	 D(9,3,4,10)      =        -0.014894	      -0.853354
	 D(10,4,5,11)     =        -0.014894	      -0.853354
	 D(11,5,6,12)     =        -0.034950	      -2.002504
	 D(13,7,14,15)    =         0.109426	       6.269638
	 D(13,7,14,16)    =        -2.953747	    -169.237263
	 D(14,7,13,17)    =        -2.953747	    -169.237264
	 D(14,7,13,18)    =         0.109429	       6.269799

	Current energy   :      -381.4649644921

	Generating empirical Hessian (Schlegel '84) for each fragment.
	Taking RFO optimization step.
	Going to follow RFO solution 1.
	Using RFO vector 1.
	Norm of target step-size    0.45051
	Projected energy change by RFO approximation:        -0.0028258151

	Back-transformation to cartesian coordinates...
	Could not converge backtransformation.
	Using first guess instead.

	Back-transformation to cartesian coordinates to adjust frozen coordinates...
	Successfully converged to displaced geometry.

	--- Internal Coordinate Step in ANG or DEG, aJ/ANG or AJ/DEG ---
	 ---------------------------------------------------------------------------
	   Coordinate                Previous        Force       Change         New 
	   ----------                --------       ------       ------       ------
	    1 R(1,2)          =      1.407502    -0.017037    -0.002465     1.405037
	    2 R(1,6)          =      1.407503    -0.017043    -0.002203     1.405300
	    3 R(1,7)          =      1.466870     0.032238     0.005708     1.472578
	    4 R(2,3)          =      1.391302     0.007723     0.001230     1.392532
	    5 R(2,8)          =      1.086388     0.003259     0.002373     1.088761
	    6 R(3,4)          =      1.398294    -0.005356    -0.000644     1.397650
	    7 R(3,9)          =      1.085142     0.000088     0.000534     1.085676
	    8 R(4,5)          =      1.398294    -0.005357    -0.000641     1.397653
	    9 R(4,10)         =      1.085649    -0.000457    -0.000075     1.085574
	   10 R(5,6)          =      1.391302     0.007719     0.001142     1.392444
	   11 R(5,11)         =      1.085142     0.000089     0.000341     1.085483
	   12 R(6,12)         =      1.086386     0.003266     0.002104     1.088491
	   13 R(7,13)         =      1.330061    -0.015047    -0.001605     1.328456
	   14 R(7,14)         =      1.330061    -0.015047    -0.001495     1.328567
	   15 R(13,17)        =      1.011575     0.004098     0.009048     1.020623
	   16 R(13,18)        =      1.013296     0.002828     0.004877     1.018172
	   17 R(14,15)        =      1.013295     0.002836     0.005433     1.018727
	   18 R(14,16)        =      1.011575     0.004093     0.008311     1.019886
	   19 B(1,2,3)        =    119.655376    -0.000043    -0.136350   119.519026
	   20 B(1,2,8)        =    120.515689     0.000030     0.112621   120.628310
	   21 B(1,6,5)        =    119.655315    -0.000042    -0.144901   119.510414
	   22 B(1,6,12)       =    120.515729     0.000030     0.084074   120.599803
	   23 B(1,7,13)       =    119.935126    -0.000059    -0.174814   119.760313
	   24 B(1,7,14)       =    119.935178    -0.000059    -0.183508   119.751670
	   25 B(2,1,6)        =    120.161857     0.000094     0.234772   120.396628
	   26 B(2,1,7)        =    119.919082    -0.000047    -0.111690   119.807392
	   27 B(2,3,4)        =    120.050636     0.000012     0.048103   120.098739
	   28 B(2,3,9)        =    119.732108    -0.000014    -0.045410   119.686698
	   29 B(3,2,8)        =    119.756722     0.000021     0.051474   119.808196
	   30 B(3,4,5)        =    120.423859    -0.000031    -0.073853   120.350006
	   31 B(3,4,10)       =    119.788070     0.000016     0.037063   119.825133
	   32 B(4,3,9)        =    120.214297     0.000003    -0.001313   120.212983
	   33 B(4,5,6)        =    120.050677     0.000012     0.049439   120.100116
	   34 B(4,5,11)       =    120.214297     0.000003     0.004703   120.219000
	   35 B(5,4,10)       =    119.788070     0.000016     0.036581   119.824651
	   36 B(5,6,12)       =    119.756743     0.000021     0.082155   119.838898
	   37 B(6,1,7)        =    119.919061    -0.000047    -0.136211   119.782851
	   38 B(6,5,11)       =    119.732067    -0.000014    -0.051832   119.680234
	   39 B(7,13,17)      =    119.886390     0.000003    -0.211074   119.675316
	   40 B(7,13,18)      =    122.891369     0.000003    -0.121728   122.769641
	   41 B(7,14,15)      =    122.891427     0.000003    -0.067680   122.823747
	   42 B(7,14,16)      =    119.886348     0.000003    -0.270277   119.616071
	   43 B(13,7,14)      =    120.129696     0.000118     0.345673   120.475368
	   44 B(15,14,16)     =    117.078156    -0.000002     0.437402   117.515558
	   45 B(17,13,18)     =    117.078183    -0.000002     0.432130   117.510313
	   46 D(1,2,3,4)      =      0.446825    -0.000012    -1.592514    -1.145689
	   47 D(1,2,3,9)      =   -178.928735    -0.000019    -2.673218  -181.601954
	   48 D(1,6,5,4)      =      0.446822    -0.000015    -2.081172    -1.634350
	   49 D(1,6,5,11)     =   -178.928737    -0.000021    -2.998193  -181.926930
	   50 D(1,7,13,17)    =     10.762699    -0.000065    -7.925110     2.837589
	   51 D(1,7,13,18)    =   -173.730238    -0.000048    -5.926639  -179.656877
	   52 D(1,7,14,15)    =   -173.730325    -0.000056    -7.213267  -180.943592
	   53 D(1,7,14,16)    =     10.762774    -0.000072    -9.214906     1.547868
	   54 D(2,1,6,5)      =     -0.223802     0.000010     1.536157     1.312356
	   55 D(2,1,6,12)     =   -177.126283    -0.000030    -4.159776  -181.286059
	   56 *D(2,1,7,13)    =    -50.000009     0.000000     0.000000   -50.000009
	   57 D(2,1,7,14)     =    129.999954     0.000008     1.287478   131.287433
	   58 D(2,3,4,5)      =     -0.225875     0.000007     1.054496     0.828621
	   59 D(2,3,4,10)     =    179.774125     0.000006     0.887782   180.661907
	   60 D(3,2,1,6)      =     -0.223806     0.000003     0.301900     0.078095
	   61 D(3,2,1,7)      =    179.776196     0.000010     1.622727   181.398922
	   62 D(3,4,5,6)      =     -0.225874     0.000006     0.803739     0.577865
	   63 D(3,4,5,11)     =    179.146646     0.000013     1.725388   180.872035
	   64 D(4,3,2,8)      =    177.373058     0.000027     3.890946   181.264003
	   65 D(4,5,6,12)     =    177.373055     0.000026     3.570973   180.944028
	   66 D(5,4,3,9)      =    179.146646     0.000015     2.140661   181.287307
	   67 D(5,6,1,7)      =    179.776197     0.000003     0.215655   179.991852
	   68 D(6,1,2,8)      =   -177.126287    -0.000036    -5.225496  -182.351783
	   69 D(6,1,7,13)     =    129.999993     0.000007     1.312651   131.312644
	   70 D(6,1,7,14)     =    -50.000044     0.000015     2.600130   -47.399915
	   71 D(6,5,4,10)     =    179.774126     0.000007     0.970453   180.744578
	   72 D(7,1,2,8)      =      2.873714    -0.000029    -3.904670    -1.030956
	   73 D(7,1,6,12)     =      2.873716    -0.000037    -5.480278    -2.606562
	   74 D(8,2,3,9)      =     -2.002503     0.000020     2.810241     0.807738
	   75 D(9,3,4,10)     =     -0.853354     0.000014     1.973947     1.120593
	   76 D(10,4,5,11)    =     -0.853354     0.000014     1.892102     1.038748
	   77 D(11,5,6,12)    =     -2.002504     0.000019     2.653952     0.651448
	   78 D(13,7,14,15)   =      6.269638    -0.000048    -5.916432     0.353205
	   79 D(13,7,14,16)   =   -169.237263    -0.000065    -7.918071  -177.155334
	   80 D(14,7,13,17)   =   -169.237264    -0.000072    -9.222057  -178.459321
	   81 D(14,7,13,18)   =      6.269799    -0.000056    -7.223585    -0.953786
	 ---------------------------------------------------------------------------
	Successfully symmetrized geometry.

  ==> Convergence Check <==

  Measures of convergence in internal coordinates in au.
  Criteria marked as inactive (o), active & met (*), and active & unmet ( ).
  --------------------------------------------------------------------------------------------- ~
   Step     Total Energy     Delta E     MAX Force     RMS Force      MAX Disp      RMS Disp    ~
  --------------------------------------------------------------------------------------------- ~
    Convergence Criteria    1.00e-06 *    3.00e-04 *             o    1.20e-03 *             o  ~
  --------------------------------------------------------------------------------------------- ~
      1    -381.46496449   -3.81e+02      4.14e-03      1.45e-03 o    1.61e-01      4.99e-02 o  ~
  ---------------------------------------------------------------------------------------------

	Writing optimization data to binary file.
	Structure for next step:
	Cartesian Geometry (in Angstrom)
	    C    -0.0098740291   0.0047633262  -0.1767415926
	    C     0.0130840682   1.2221627698   0.5243580598
	    C     0.0306875842   1.2118278649   1.9167404327
	    C     0.0013265749  -0.0019342003   2.6090876393
	    C    -0.0283833106  -1.2125072051   1.9111876652
	    C    -0.0167501587  -1.2163210139   0.5187975903
	    C     0.0026164683   0.0077318695  -1.6492631980
	    H     0.0569239852   2.1695091425  -0.0104435772
	    H     0.0748030803   2.1502533089   2.4608944563
	    H     0.0043383373  -0.0044978519   3.6946547624
	    H    -0.0654256106  -2.1535404823   2.4509631359
	    H    -0.0555420675  -2.1609947103  -0.0205525613
	    N    -0.8573862730   0.7710875673  -2.3144535155
	    N     0.8566093976  -0.7723543606  -2.3029072176
	    H     0.8958864073  -0.8176994302  -3.3198666182
	    H     1.4813460796  -1.3854296213  -1.7794464131
	    H    -1.4919860161   1.3833293616  -1.8005335645
	    H    -0.8922755173   0.8046136649  -3.3314754837
			--------------------------
			 OPTKING Finished Execution 
			--------------------------

    Structure for next step:
    Molecular point group: c1
    Full point group: C1

    Geometry (in Angstrom), charge = 1, multiplicity = 1:

    C           -0.009874029145     0.004763326234    -0.176741592606
    C            0.013084068232     1.222162769833     0.524358059765
    C            0.030687584155     1.211827864932     1.916740432696
    C            0.001326574889    -0.001934200257     2.609087639259
    C           -0.028383310557    -1.212507205109     1.911187665231
    C           -0.016750158709    -1.216321013889     0.518797590268
    C            0.002616468346     0.007731869497    -1.649263197972
    H            0.056923985215     2.169509142507    -0.010443577248
    H            0.074803080327     2.150253308904     2.460894456272
    H            0.004338337276    -0.004497851873     3.694654762406
    H           -0.065425610623    -2.153540482330     2.450963135910
    H           -0.055542067549    -2.160994710259    -0.020552561332
    N           -0.857386272983     0.771087567291    -2.314453515542
    N            0.856609397634    -0.772354360551    -2.302907217645
    H            0.895886407255    -0.817699430199    -3.319866618157
    H            1.481346079639    -1.385429621304    -1.779446413059
    H           -1.491986016121     1.383329361642    -1.800533564496
    H           -0.892275517280     0.804613664933    -3.331475483747

gradient() will perform analytic gradient computation.

*** tstart() called on green.prib.upf.edu
*** at Sat Sep 29 20:45:47 2018

   => Loading Basis Set <=

    Name: 6-31G*
    Role: ORBITAL
    Keyword: BASIS
    atoms 1-7         entry C          line   111 file /shared/joao/test_parameterize/miniconda3/share/psi4/basis/6-31gs.gbs 
    atoms 8-12, 15-18 entry H          line    44 file /shared/joao/test_parameterize/miniconda3/share/psi4/basis/6-31gs.gbs 
    atoms 13-14       entry N          line   128 file /shared/joao/test_parameterize/miniconda3/share/psi4/basis/6-31gs.gbs 


         ---------------------------------------------------------
                                   SCF
            by Justin Turney, Rob Parrish, Andy Simmonett
                             and Daniel Smith
                              RKS Reference
                        4 Threads,   2861 MiB Core
         ---------------------------------------------------------

  ==> Geometry <==

    Molecular point group: c1
    Full point group: C1

    Geometry (in Angstrom), charge = 1, multiplicity = 1:

       Center              X                  Y                   Z               Mass       
    ------------   -----------------  -----------------  -----------------  -----------------
         C           -0.009874029145     0.004763326234    -0.176741592606    12.000000000000
         C            0.013084068232     1.222162769833     0.524358059765    12.000000000000
         C            0.030687584155     1.211827864932     1.916740432696    12.000000000000
         C            0.001326574889    -0.001934200257     2.609087639259    12.000000000000
         C           -0.028383310557    -1.212507205109     1.911187665231    12.000000000000
         C           -0.016750158709    -1.216321013889     0.518797590268    12.000000000000
         C            0.002616468346     0.007731869497    -1.649263197972    12.000000000000
         H            0.056923985215     2.169509142507    -0.010443577248     1.007825032070
         H            0.074803080327     2.150253308904     2.460894456272     1.007825032070
         H            0.004338337276    -0.004497851873     3.694654762406     1.007825032070
         H           -0.065425610623    -2.153540482330     2.450963135910     1.007825032070
         H           -0.055542067549    -2.160994710259    -0.020552561332     1.007825032070
         N           -0.857386272983     0.771087567291    -2.314453515542    14.003074004780
         N            0.856609397634    -0.772354360551    -2.302907217645    14.003074004780
         H            0.895886407255    -0.817699430199    -3.319866618157     1.007825032070
         H            1.481346079639    -1.385429621304    -1.779446413059     1.007825032070
         H           -1.491986016121     1.383329361642    -1.800533564496     1.007825032070
         H           -0.892275517280     0.804613664933    -3.331475483747     1.007825032070

  Running in c1 symmetry.

  Rotational constants: A =      0.12191  B =      0.03882  C =      0.03180 [cm^-1]
  Rotational constants: A =   3654.90379  B =   1163.72362  C =    953.21761 [MHz]
  Nuclear repulsion =  416.500279520607364

  Charge       = 1
  Multiplicity = 1
  Electrons    = 64
  Nalpha       = 32
  Nbeta        = 32

  ==> Algorithm <==

  SCF Algorithm Type is DF.
  DIIS enabled.
  MOM disabled.
  Fractional occupation disabled.
  Guess Type is READ.
  Energy threshold   = 1.00e-08
  Density threshold  = 1.00e-08
  Integral threshold = 0.00e+00

  ==> Primary Basis <==

  Basis Set: 6-31G*
    Blend: 6-31G*
    Number of shells: 72
    Number of basis function: 153
    Number of Cartesian functions: 153
    Spherical Harmonics?: false
    Max angular momentum: 2

  ==> DFT Potential <==

   => Composite Functional: B3LYP-D3ZERO <= 

    B3LYP-d3zero Hyb-GGA Exchange-Correlation Functional

    P. J. Stephens, F. J. Devlin, C. F. Chabalowski, and M. J. Frisch, J. Phys. Chem. 98, 11623 (1994)

    Deriv               =              1
    GGA                 =           TRUE
    Meta                =          FALSE

    Exchange Hybrid     =           TRUE
    MP2 Hybrid          =          FALSE

   => Exchange Functionals <=

    0.0800   Slater exchange
    0.7200         Becke 88

   => Exact (HF) Exchange <=

    0.2000               HF 

   => Correlation Functionals <=

    0.1900   Vosko, Wilk & Nusair (VWN5_RPA)
    0.8100   Lee, Yang & Parr

   => Molecular Quadrature <=

    Radial Scheme       =       TREUTLER
    Pruning Scheme      =           FLAT
    Nuclear Scheme      =       TREUTLER

    BS radius alpha     =              1
    Pruning alpha       =              1
    Radial Points       =             75
    Spherical Points    =            302
    Total Points        =         397012
    Total Blocks        =           2960
    Max Points          =            256
    Max Functions       =            149

   => -D3ZERO: Empirical Dispersion <=

    Grimme's -D3 (zero-damping) Dispersion Correction
    Grimme S.; Antony J.; Ehrlich S.; Krieg H. (2010), J. Chem. Phys., 132: 154104

        S6 =   1.000000E+00
        S8 =   1.703000E+00
       SR6 =   1.261000E+00
       SR8 =   1.000000E+00
    ALPHA6 =   1.400000E+01

   => Loading Basis Set <=

    Name: (6-31G* AUX)
    Role: JKFIT
    Keyword: DF_BASIS_SCF
    atoms 1-7         entry C          line   121 file /shared/joao/test_parameterize/miniconda3/share/psi4/basis/cc-pvdz-jkfit.gbs 
    atoms 8-12, 15-18 entry H          line    51 file /shared/joao/test_parameterize/miniconda3/share/psi4/basis/cc-pvdz-jkfit.gbs 
    atoms 13-14       entry N          line   171 file /shared/joao/test_parameterize/miniconda3/share/psi4/basis/cc-pvdz-jkfit.gbs 

  Reading orbitals from file 180, no projection.

  ==> Pre-Iterations <==

   -------------------------------------------------------
    Irrep   Nso     Nmo     Nalpha   Nbeta   Ndocc  Nsocc
   -------------------------------------------------------
     A        153     153       0       0       0       0
   -------------------------------------------------------
    Total     153     153      32      32      32       0
   -------------------------------------------------------

  ==> Integral Setup <==

  ==> DiskDFJK: Density-Fitted J/K Matrices <==

    J tasked:                  Yes
    K tasked:                  Yes
    wK tasked:                  No
    OpenMP threads:              4
    Integrals threads:           4
    Memory (MB):              2002
    Algorithm:                Core
    Integral Cache:           NONE
    Schwarz Cutoff:          1E-12
    Fitting Condition:       1E-12

   => Auxiliary Basis Set <=

  Basis Set: (6-31G* AUX)
    Blend: CC-PVDZ-JKFIT
    Number of shells: 297
    Number of basis function: 954
    Number of Cartesian functions: 954
    Spherical Harmonics?: false
    Max angular momentum: 3

  Minimum eigenvalue in the overlap matrix is 4.8639004375E-04.
  Using Symmetric Orthogonalization.

  SCF Guess: Orbitals guess was supplied from a previous computation.

  ==> Iterations <==

                           Total Energy        Delta E     RMS |[F,P]|

   @DF-RKS iter   0:  -381.44879009608201   -3.81449e+02   1.18681e-03 
   @DF-RKS iter   1:  -381.46824584072795   -1.94557e-02   1.55569e-04 
   @DF-RKS iter   2:  -381.46826564000952   -1.97993e-05   1.76467e-04 DIIS
   @DF-RKS iter   3:  -381.46836033625908   -9.46962e-05   6.23056e-05 DIIS
   @DF-RKS iter   4:  -381.46837131557663   -1.09793e-05   2.62574e-05 DIIS
   @DF-RKS iter   5:  -381.46837321403575   -1.89846e-06   5.34344e-06 DIIS
   @DF-RKS iter   6:  -381.46837330174549   -8.77097e-08   1.16576e-06 DIIS
   @DF-RKS iter   7:  -381.46837330527285   -3.52736e-09   3.06197e-07 DIIS
   @DF-RKS iter   8:  -381.46837330552478   -2.51930e-10   8.99551e-08 DIIS
   @DF-RKS iter   9:  -381.46837330554501   -2.02363e-11   3.78168e-08 DIIS
   @DF-RKS iter  10:  -381.46837330554877   -3.75167e-12   1.01169e-08 DIIS
   @DF-RKS iter  11:  -381.46837330554951   -7.38964e-13   2.98991e-09 DIIS

  ==> Post-Iterations <==

    Orbital Energies [Eh]
    ---------------------

    Doubly Occupied:                                                      

       1A    -14.571796     2A    -14.571694     3A    -10.499501  
       4A    -10.372545     5A    -10.354250     6A    -10.354208  
       7A    -10.339411     8A    -10.338495     9A    -10.338329  
      10A     -1.185389    11A     -1.092685    12A     -1.012804  
      13A     -0.925106    14A     -0.900009    15A     -0.844287  
      16A     -0.785888    17A     -0.771082    18A     -0.744536  
      19A     -0.731343    20A     -0.686143    21A     -0.668172  
      22A     -0.622773    23A     -0.621021    24A     -0.584979  
      25A     -0.577135    26A     -0.571951    27A     -0.517173  
      28A     -0.503432    29A     -0.496271    30A     -0.473586  
      31A     -0.408874    32A     -0.403532  

    Virtual:                                                              

      33A     -0.208927    34A     -0.156309    35A     -0.141040  
      36A     -0.111775    37A     -0.068868    38A     -0.065574  
      39A     -0.039977    40A     -0.036415    41A      0.006883  
      42A      0.019252    43A      0.021388    44A      0.057447  
      45A      0.062438    46A      0.077964    47A      0.130417  
      48A      0.151249    49A      0.159308    50A      0.162074  
      51A      0.201361    52A      0.236942    53A      0.296345  
      54A      0.346366    55A      0.355836    56A      0.382157  
      57A      0.387348    58A      0.398275    59A      0.415521  
      60A      0.424422    61A      0.445705    62A      0.446838  
      63A      0.451716    64A      0.469038    65A      0.472881  
      66A      0.477182    67A      0.484731    68A      0.509777  
      69A      0.521105    70A      0.532182    71A      0.539407  
      72A      0.577428    73A      0.601523    74A      0.652645  
      75A      0.655452    76A      0.677872    77A      0.681470  
      78A      0.703511    79A      0.709538    80A      0.713948  
      81A      0.733502    82A      0.764887    83A      0.776682  
      84A      0.797711    85A      0.811778    86A      0.834527  
      87A      0.849587    88A      0.939116    89A      0.969664  
      90A      0.999019    91A      1.001528    92A      1.027680  
      93A      1.041053    94A      1.070763    95A      1.147924  
      96A      1.188161    97A      1.230511    98A      1.276315  
      99A      1.288372   100A      1.311454   101A      1.319265  
     102A      1.342021   103A      1.359715   104A      1.371316  
     105A      1.421322   106A      1.452987   107A      1.489006  
     108A      1.594112   109A      1.631618   110A      1.653512  
     111A      1.672130   112A      1.736419   113A      1.756787  
     114A      1.794559   115A      1.828554   116A      1.854178  
     117A      1.903334   118A      1.908763   119A      1.958401  
     120A      1.978157   121A      1.998810   122A      2.016096  
     123A      2.040854   124A      2.095152   125A      2.115041  
     126A      2.136773   127A      2.150387   128A      2.180560  
     129A      2.226539   130A      2.256784   131A      2.359770  
     132A      2.369248   133A      2.429382   134A      2.452310  
     135A      2.492283   136A      2.544453   137A      2.559097  
     138A      2.589967   139A      2.605614   140A      2.627167  
     141A      2.732455   142A      2.883147   143A      2.963070  
     144A      3.259396   145A      3.633542   146A      3.650159  
     147A      3.924657   148A      3.954968   149A      3.966523  
     150A      4.071365   151A      4.179686   152A      4.258180  
     153A      4.546763  

    Final Occupation by Irrep:
              A 
    DOCC [    32 ]

  Energy converged.

  @DF-RKS Final Energy:  -381.46837330554951

   => Energetics <=

    Nuclear Repulsion Energy =            416.5002795206073642
    One-Electron Energy =               -1328.2602816777348380
    Two-Electron Energy =                 574.6983874127226954
    DFT Exchange-Correlation Energy =     -44.3948001711447091
    Empirical Dispersion Energy =          -0.0119583900000000
    VV10 Nonlocal Energy =                  0.0000000000000000
    Total Energy =                       -381.4683733055495054



Properties will be evaluated at   0.000000,   0.000000,   0.000000 [a0]

Properties computed using the SCF density matrix

  Nuclear Dipole Moment: [e a0]
     X:    -0.0777      Y:     0.1342      Z:    -0.0989

  Electronic Dipole Moment: [e a0]
     X:     0.0792      Y:    -0.1345      Z:    -2.2626

  Dipole Moment: [e a0]
     X:     0.0015      Y:    -0.0003      Z:    -2.3615     Total:     2.3615

  Dipole Moment: [D]
     X:     0.0039      Y:    -0.0009      Z:    -6.0023     Total:     6.0023


*** tstop() called on green.prib.upf.edu at Sat Sep 29 20:46:08 2018
Module time:
	user time   =      78.42 seconds =       1.31 minutes
	system time =       0.36 seconds =       0.01 minutes
	total time  =         21 seconds =       0.35 minutes
Total time:
	user time   =     205.32 seconds =       3.42 minutes
	system time =       1.16 seconds =       0.02 minutes
	total time  =         56 seconds =       0.93 minutes

*** tstart() called on green.prib.upf.edu
*** at Sat Sep 29 20:46:08 2018


         ------------------------------------------------------------
                                   SCF GRAD                          
                          Rob Parrish, Justin Turney,                
                       Andy Simmonett, and Alex Sokolov              
         ------------------------------------------------------------

  ==> Geometry <==

    Molecular point group: c1
    Full point group: C1

    Geometry (in Angstrom), charge = 1, multiplicity = 1:

       Center              X                  Y                   Z               Mass       
    ------------   -----------------  -----------------  -----------------  -----------------
         C           -0.009874029145     0.004763326234    -0.176741592606    12.000000000000
         C            0.013084068232     1.222162769833     0.524358059765    12.000000000000
         C            0.030687584155     1.211827864932     1.916740432696    12.000000000000
         C            0.001326574889    -0.001934200257     2.609087639259    12.000000000000
         C           -0.028383310557    -1.212507205109     1.911187665231    12.000000000000
         C           -0.016750158709    -1.216321013889     0.518797590268    12.000000000000
         C            0.002616468346     0.007731869497    -1.649263197972    12.000000000000
         H            0.056923985215     2.169509142507    -0.010443577248     1.007825032070
         H            0.074803080327     2.150253308904     2.460894456272     1.007825032070
         H            0.004338337276    -0.004497851873     3.694654762406     1.007825032070
         H           -0.065425610623    -2.153540482330     2.450963135910     1.007825032070
         H           -0.055542067549    -2.160994710259    -0.020552561332     1.007825032070
         N           -0.857386272983     0.771087567291    -2.314453515542    14.003074004780
         N            0.856609397634    -0.772354360551    -2.302907217645    14.003074004780
         H            0.895886407255    -0.817699430199    -3.319866618157     1.007825032070
         H            1.481346079639    -1.385429621304    -1.779446413059     1.007825032070
         H           -1.491986016121     1.383329361642    -1.800533564496     1.007825032070
         H           -0.892275517280     0.804613664933    -3.331475483747     1.007825032070

  Nuclear repulsion =  416.500279520607364

  ==> Basis Set <==

  Basis Set: 6-31G*
    Blend: 6-31G*
    Number of shells: 72
    Number of basis function: 153
    Number of Cartesian functions: 153
    Spherical Harmonics?: false
    Max angular momentum: 2

  ==> DFJKGrad: Density-Fitted SCF Gradients <==

    Gradient:                    1
    J tasked:                  Yes
    K tasked:                  Yes
    wK tasked:                  No
    OpenMP threads:              4
    Integrals threads:           4
    Memory (MB):              2002
    Schwarz Cutoff:          0E+00
    Fitting Condition:       1E-12

   => Auxiliary Basis Set <=

  Basis Set: (6-31G* AUX)
    Blend: CC-PVDZ-JKFIT
    Number of shells: 297
    Number of basis function: 954
    Number of Cartesian functions: 954
    Spherical Harmonics?: false
    Max angular momentum: 3

  ==> DFT Potential <==

   => Composite Functional: B3LYP-D3ZERO <= 

    B3LYP-d3zero Hyb-GGA Exchange-Correlation Functional

    P. J. Stephens, F. J. Devlin, C. F. Chabalowski, and M. J. Frisch, J. Phys. Chem. 98, 11623 (1994)

    Deriv               =              1
    GGA                 =           TRUE
    Meta                =          FALSE

    Exchange Hybrid     =           TRUE
    MP2 Hybrid          =          FALSE

   => Exchange Functionals <=

    0.0800   Slater exchange
    0.7200         Becke 88

   => Exact (HF) Exchange <=

    0.2000               HF 

   => Correlation Functionals <=

    0.1900   Vosko, Wilk & Nusair (VWN5_RPA)
    0.8100   Lee, Yang & Parr

   => Molecular Quadrature <=

    Radial Scheme       =       TREUTLER
    Pruning Scheme      =           FLAT
    Nuclear Scheme      =       TREUTLER

    BS radius alpha     =              1
    Pruning alpha       =              1
    Radial Points       =             75
    Spherical Points    =            302
    Total Points        =         397012
    Total Blocks        =           2960
    Max Points          =            256
    Max Functions       =            149


  -Total Gradient:
     Atom            X                  Y                   Z
    ------   -----------------  -----------------  -----------------
       1       -0.002302299686    -0.000413186642    -0.000410922420
       2        0.001434918958    -0.001888313205     0.000872406438
       3        0.000173987183    -0.000241763708    -0.000285299389
       4       -0.000093458016    -0.000105605028     0.000085025442
       5       -0.000088260424     0.000221014421    -0.000086308735
       6       -0.000404174781     0.001548450451     0.000764131362
       7        0.002254791290     0.002239578359     0.001528960163
       8       -0.000067945685     0.001364380945    -0.000341508600
       9        0.000311453113     0.000242911144     0.000215009003
      10        0.000021541985     0.000001066804    -0.000003994753
      11       -0.000299267624    -0.000129564647     0.000140913990
      12        0.000308729851    -0.001162189880    -0.000375357315
      13        0.000737557445    -0.006947568788    -0.001029221359
      14       -0.001245086294     0.005400903626    -0.000467112015
      15        0.000648794814     0.001765295221    -0.004449443164
      16        0.002264236501    -0.005929574699     0.003807148411
      17       -0.003019121109     0.006058894648     0.003943140364
      18       -0.000632466711    -0.002029679027    -0.003952647012


*** tstop() called on green.prib.upf.edu at Sat Sep 29 20:46:15 2018
Module time:
	user time   =      26.53 seconds =       0.44 minutes
	system time =       0.25 seconds =       0.00 minutes
	total time  =          7 seconds =       0.12 minutes
Total time:
	user time   =     231.90 seconds =       3.87 minutes
	system time =       1.42 seconds =       0.02 minutes
	total time  =         63 seconds =       1.05 minutes

			-----------------------------------------
			 OPTKING 2.0: for geometry optimizations 
			  - R.A. King,  Bethel University        
			-----------------------------------------
	At level 1: Red. Int., RFO, no backsteps, dynamic trust

	Previous internal coordinate definitions found.
	---Fragment 1 Geometry and Gradient---
	 C          -0.0186592109        0.0090013821       -0.3339932063
	 C           0.0247253057        2.3095529248        0.9908931285
	 C           0.0579911297        2.2900227849        3.6221144856
	 C           0.0025068632       -0.0036551088        4.9304610949
	 C          -0.0536366837       -2.2913065518        3.6116212758
	 C          -0.0316532126       -2.2985136059        0.9803853640
	 C           0.0049444086        0.0146111158       -3.1166557652
	 H           0.1075707424        4.0997781221       -0.0197355008
	 H           0.1413573357        4.0633898702        4.6504165643
	 H           0.0081982693       -0.0084997082        6.9818856565
	 H          -0.1236364862       -4.0696017277        4.6316490887
	 H          -0.1049592965       -4.0836881770       -0.0388387122
	 N          -1.6202252460        1.4571443267       -4.3736832917
	 N           1.6187571644       -1.4595382190       -4.3518639508
	 H           1.6929799559       -1.5452279821       -6.2736387060
	 H           2.7993383985       -2.6180825607       -3.3626663888
	 H          -2.8194449646        2.6141136451       -3.4025153300
	 H          -1.6861563627        1.5204994695       -6.2955762827
	            -0.0023022997       -0.0004131866       -0.0004109224
	             0.0014349190       -0.0018883132        0.0008724064
	             0.0001739872       -0.0002417637       -0.0002852994
	            -0.0000934580       -0.0001056050        0.0000850254
	            -0.0000882604        0.0002210144       -0.0000863087
	            -0.0004041748        0.0015484505        0.0007641314
	             0.0022547913        0.0022395784        0.0015289602
	            -0.0000679457        0.0013643809       -0.0003415086
	             0.0003114531        0.0002429111        0.0002150090
	             0.0000215420        0.0000010668       -0.0000039948
	            -0.0002992676       -0.0001295646        0.0001409140
	             0.0003087299       -0.0011621899       -0.0003753573
	             0.0007375574       -0.0069475688       -0.0010292214
	            -0.0012450863        0.0054009036       -0.0004671120
	             0.0006487948        0.0017652952       -0.0044494432
	             0.0022642365       -0.0059295747        0.0038071484
	            -0.0030191211        0.0060588946        0.0039431404
	            -0.0006324667       -0.0020296790       -0.0039526470

	---Fragment 1 Intrafragment Coordinates---
	 - Coordinate -           - BOHR/RAD -       - ANG/DEG -
	 R(1,2)           =         2.655135	       1.405037
	 R(1,6)           =         2.655633	       1.405300
	 R(1,7)           =         2.782768	       1.472578
	 R(2,3)           =         2.631504	       1.392532
	 R(2,8)           =         2.057460	       1.088761
	 R(3,4)           =         2.641175	       1.397650
	 R(3,9)           =         2.051630	       1.085676
	 R(4,5)           =         2.641181	       1.397653
	 R(4,10)          =         2.051438	       1.085574
	 R(5,6)           =         2.631338	       1.392444
	 R(5,11)          =         2.051266	       1.085483
	 R(6,12)          =         2.056949	       1.088491
	 R(7,13)          =         2.510418	       1.328456
	 R(7,14)          =         2.510627	       1.328567
	 R(13,17)         =         1.928697	       1.020623
	 R(13,18)         =         1.924067	       1.018172
	 R(14,15)         =         1.925116	       1.018727
	 R(14,16)         =         1.927306	       1.019886
	 B(1,2,3)         =         2.086001	     119.519026
	 B(1,2,8)         =         2.105361	     120.628310
	 B(1,6,5)         =         2.085850	     119.510414
	 B(1,6,12)        =         2.104864	     120.599803
	 B(1,7,13)        =         2.090212	     119.760313
	 B(1,7,14)        =         2.090061	     119.751670
	 B(2,1,6)         =         2.101318	     120.396628
	 B(2,1,7)         =         2.091033	     119.807392
	 B(2,3,4)         =         2.096118	     120.098739
	 B(2,3,9)         =         2.088927	     119.686698
	 B(3,2,8)         =         2.091047	     119.808196
	 B(3,4,5)         =         2.100504	     120.350006
	 B(3,4,10)        =         2.091343	     119.825133
	 B(4,3,9)         =         2.098112	     120.212983
	 B(4,5,6)         =         2.096142	     120.100116
	 B(4,5,11)        =         2.098217	     120.219000
	 B(5,4,10)        =         2.091335	     119.824651
	 B(5,6,12)        =         2.091583	     119.838898
	 B(6,1,7)         =         2.090605	     119.782851
	 B(6,5,11)        =         2.088814	     119.680234
	 B(7,13,17)       =         2.088728	     119.675316
	 B(7,13,18)       =         2.142734	     122.769641
	 B(7,14,15)       =         2.143679	     122.823747
	 B(7,14,16)       =         2.087694	     119.616071
	 B(13,7,14)       =         2.102692	     120.475368
	 B(15,14,16)      =         2.051033	     117.515558
	 B(17,13,18)      =         2.050942	     117.510313
	 D(1,2,3,4)       =        -0.019996	      -1.145689
	 D(1,2,3,9)       =         3.113633	     178.398046
	 D(1,6,5,4)       =        -0.028525	      -1.634350
	 D(1,6,5,11)      =         3.107961	     178.073070
	 D(1,7,13,17)     =         0.049525	       2.837589
	 D(1,7,13,18)     =        -3.135604	    -179.656877
	 D(1,7,14,15)     =         3.125124	     179.056408
	 D(1,7,14,16)     =         0.027015	       1.547868
	 D(2,1,6,5)       =         0.022905	       1.312356
	 D(2,1,6,12)      =         3.119147	     178.713941
	*D(2,1,7,13)      =        -0.872665	     -50.000009
	 D(2,1,7,14)      =         2.291398	     131.287433
	 D(2,3,4,5)       =         0.014462	       0.828621
	 D(2,3,4,10)      =        -3.130040	    -179.338093
	 D(3,2,1,6)       =         0.001363	       0.078095
	 D(3,2,1,7)       =        -3.117177	    -178.601078
	 D(3,4,5,6)       =         0.010086	       0.577865
	 D(3,4,5,11)      =        -3.126373	    -179.127965
	 D(4,3,2,8)       =        -3.119532	    -178.735997
	 D(4,5,6,12)      =        -3.125116	    -179.055972
	 D(5,4,3,9)       =        -3.119125	    -178.712693
	 D(5,6,1,7)       =         3.141450	     179.991852
	 D(6,1,2,8)       =         3.100546	     177.648217
	 D(6,1,7,13)      =         2.291838	     131.312644
	 D(6,1,7,14)      =        -0.827285	     -47.399915
	 D(6,5,4,10)      =        -3.128597	    -179.255422
	 D(7,1,2,8)       =        -0.017994	      -1.030956
	 D(7,1,6,12)      =        -0.045493	      -2.606562
	 D(8,2,3,9)       =         0.014098	       0.807738
	 D(9,3,4,10)      =         0.019558	       1.120593
	 D(10,4,5,11)     =         0.018130	       1.038748
	 D(11,5,6,12)     =         0.011370	       0.651448
	 D(13,7,14,15)    =         0.006165	       0.353205
	 D(13,7,14,16)    =        -3.091944	    -177.155334
	 D(14,7,13,17)    =        -3.114703	    -178.459321
	 D(14,7,13,18)    =        -0.016647	      -0.953786

	Current energy   :      -381.4683733055

	Energy change for the previous step:
		Projected    :        -0.0028258151
		Actual       :        -0.0034088134
	Energy ratio indicates good step: Trust radius increased to 1.000e+00.


	Performing BFGS update.
	Previous computed or guess Hessian on step 1.
	Steps to be used in Hessian update: 1
	Taking RFO optimization step.
	Going to follow RFO solution 1.
	Using RFO vector 1.
	Norm of target step-size    0.34617
	Projected energy change by RFO approximation:         0.0004230933

	Back-transformation to cartesian coordinates...
	Could not converge backtransformation.
	Using first guess instead.

	Back-transformation to cartesian coordinates to adjust frozen coordinates...
	Successfully converged to displaced geometry.

	--- Internal Coordinate Step in ANG or DEG, aJ/ANG or AJ/DEG ---
	 ---------------------------------------------------------------------------
	   Coordinate                Previous        Force       Change         New 
	   ----------                --------       ------       ------       ------
	    1 R(1,2)          =      1.405037    -0.000843    -0.000552     1.404485
	    2 R(1,6)          =      1.405300    -0.001198    -0.000531     1.404769
	    3 R(1,7)          =      1.472578    -0.005036    -0.000137     1.472440
	    4 R(2,3)          =      1.392532    -0.000240     0.000236     1.392768
	    5 R(2,8)          =      1.088761    -0.011131    -0.001621     1.087140
	    6 R(3,4)          =      1.397650     0.001629     0.000271     1.397920
	    7 R(3,9)          =      1.085676    -0.002733    -0.000384     1.085292
	    8 R(4,5)          =      1.397653     0.002784     0.000479     1.398132
	    9 R(4,10)         =      1.085574     0.000012     0.000009     1.085583
	   10 R(5,6)          =      1.392444    -0.000452     0.000276     1.392720
	   11 R(5,11)         =      1.085483    -0.001596    -0.000152     1.085331
	   12 R(6,12)         =      1.088491    -0.009741    -0.001388     1.087103
	   13 R(7,13)         =      1.328456    -0.005993    -0.000952     1.327504
	   14 R(7,14)         =      1.328567    -0.007304    -0.001061     1.327505
	   15 R(13,17)        =      1.020623    -0.061784    -0.002326     1.018297
	   16 R(13,18)        =      1.018172    -0.032134     0.000692     1.018864
	   17 R(14,15)        =      1.018727    -0.036133    -0.000987     1.017740
	   18 R(14,16)        =      1.019886    -0.056897    -0.000672     1.019215
	   19 B(1,2,3)        =    119.519026    -0.000025    -0.121406   119.397621
	   20 B(1,2,8)        =    120.628310    -0.000016    -0.110279   120.518031
	   21 B(1,6,5)        =    119.510414    -0.000030    -0.146519   119.363894
	   22 B(1,6,12)       =    120.599803    -0.000005    -0.072485   120.527318
	   23 B(1,7,13)       =    119.760313    -0.000097    -0.428458   119.331855
	   24 B(1,7,14)       =    119.751670    -0.000069    -0.331307   119.420362
	   25 B(2,1,6)        =    120.396628     0.000055     0.247567   120.644195
	   26 B(2,1,7)        =    119.807392    -0.000050    -0.233946   119.573447
	   27 B(2,3,4)        =    120.098739    -0.000010    -0.032158   120.066581
	   28 B(2,3,9)        =    119.686698    -0.000000    -0.015638   119.671060
	   29 B(3,2,8)        =    119.808196     0.000042     0.238955   120.047151
	   30 B(3,4,5)        =    120.350006     0.000016     0.075559   120.425565
	   31 B(3,4,10)       =    119.825133    -0.000008    -0.036123   119.789010
	   32 B(4,3,9)        =    120.212983     0.000010     0.044234   120.257217
	   33 B(4,5,6)        =    120.100116    -0.000006    -0.012961   120.087156
	   34 B(4,5,11)       =    120.219000     0.000007     0.032956   120.251956
	   35 B(5,4,10)       =    119.824651    -0.000008    -0.039500   119.785151
	   36 B(5,6,12)       =    119.838898     0.000034     0.204911   120.043809
	   37 B(6,1,7)        =    119.782851    -0.000006    -0.063648   119.719203
	   38 B(6,5,11)       =    119.680234    -0.000002    -0.021189   119.659045
	   39 B(7,13,17)      =    119.675316    -0.000023    -0.541005   119.134311
	   40 B(7,13,18)      =    122.769641     0.000089     0.448079   123.217720
	   41 B(7,14,15)      =    122.823747     0.000075     0.423398   123.247145
	   42 B(7,14,16)      =    119.616071    -0.000007    -0.481836   119.134235
	   43 B(13,7,14)      =    120.475368     0.000166     0.753822   121.229191
	   44 B(15,14,16)     =    117.515558    -0.000066     0.102166   117.617724
	   45 B(17,13,18)     =    117.510313    -0.000066     0.127222   117.637535
	   46 D(1,2,3,4)      =     -1.145689     0.000006     1.233305     0.087616
	   47 D(1,2,3,9)      =    178.398046     0.000005     0.866859   179.264905
	   48 D(1,6,5,4)      =     -1.634350     0.000004     0.601674    -1.032676
	   49 D(1,6,5,11)     =    178.073070     0.000003     0.401635   178.474705
	   50 D(1,7,13,17)    =      2.837589    -0.000033    -7.052805    -4.215216
	   51 D(1,7,13,18)    =   -179.656877    -0.000027    -5.762259  -185.419136
	   52 D(1,7,14,15)    =    179.056408    -0.000025    -5.571817   173.484591
	   53 D(1,7,14,16)    =      1.547868    -0.000039    -8.416136    -6.868268
	   54 D(2,1,6,5)      =      1.312356    -0.000000     0.200655     1.513010
	   55 D(2,1,6,12)     =    178.713941     0.000000    -0.130937   178.583004
	   56 *D(2,1,7,13)    =    -50.000009     0.000000     0.000000   -50.000009
	   57 D(2,1,7,14)     =    131.287433     0.000000     0.261444   131.548876
	   58 D(2,3,4,5)      =      0.828621    -0.000002    -0.444309     0.384312
	   59 D(2,3,4,10)     =   -179.338093    -0.000002    -0.468281  -179.806374
	   60 D(3,2,1,6)      =      0.078095    -0.000005    -1.118439    -1.040345
	   61 D(3,2,1,7)      =   -178.601078     0.000001     0.458804  -178.142273
	   62 D(3,4,5,6)      =      0.577865    -0.000002    -0.483079     0.094786
	   63 D(3,4,5,11)     =   -179.127965    -0.000002    -0.281682  -179.409648
	   64 D(4,3,2,8)      =   -178.735997     0.000004     1.030133  -177.705864
	   65 D(4,5,6,12)     =   -179.055972     0.000003     0.938885  -178.117087
	   66 D(5,4,3,9)      =   -178.712693    -0.000001    -0.075417  -178.788110
	   67 D(5,6,1,7)      =    179.991852    -0.000006    -1.381115   178.610736
	   68 D(6,1,2,8)      =    177.648217    -0.000002    -0.905702   176.742515
	   69 D(6,1,7,13)     =    131.312644     0.000005     1.558312   132.870956
	   70 D(6,1,7,14)     =    -47.399915     0.000005     1.819755   -45.580159
	   71 D(6,5,4,10)     =   -179.255422    -0.000002    -0.459113  -179.714535
	   72 D(7,1,2,8)      =     -1.030956     0.000004     0.671542    -0.359414
	   73 D(7,1,6,12)     =     -2.606562    -0.000005    -1.712708    -4.319270
	   74 D(8,2,3,9)      =      0.807738     0.000002     0.663687     1.471425
	   75 D(9,3,4,10)     =      1.120593    -0.000001    -0.099389     1.021204
	   76 D(10,4,5,11)    =      1.038748    -0.000002    -0.257717     0.781031
	   77 D(11,5,6,12)    =      0.651448     0.000003     0.738846     1.390294
	   78 D(13,7,14,15)   =      0.353205    -0.000024    -5.289478    -4.936273
	   79 D(13,7,14,16)   =   -177.155334    -0.000038    -8.133797  -185.289131
	   80 D(14,7,13,17)   =   -178.459321    -0.000034    -7.333659  -185.792980
	   81 D(14,7,13,18)   =     -0.953786    -0.000028    -6.043113    -6.996900
	 ---------------------------------------------------------------------------
	Successfully symmetrized geometry.

  ==> Convergence Check <==

  Measures of convergence in internal coordinates in au.
  Criteria marked as inactive (o), active & met (*), and active & unmet ( ).
  ---------------------------------------------------------------------------------------------
   Step     Total Energy     Delta E     MAX Force     RMS Force      MAX Disp      RMS Disp   
  ---------------------------------------------------------------------------------------------
    Convergence Criteria    1.00e-06 *    3.00e-04 *             o    1.20e-03 *             o
  ---------------------------------------------------------------------------------------------
      2    -381.46837331   -3.41e-03      7.50e-03      1.51e-03 o    1.47e-01      3.84e-02 o  ~
  ---------------------------------------------------------------------------------------------

	Writing optimization data to binary file.
	Structure for next step:
	Cartesian Geometry (in Angstrom)
	    C    -0.0264135556   0.0033615712  -0.1791872849
	    C     0.0116096207   1.2216539457   0.5185930364
	    C     0.0269860048   1.2116813433   1.9112406426
	    C     0.0064989867  -0.0027970405   2.6031972845
	    C    -0.0214007847  -1.2144581998   1.9061528148
	    C    -0.0269817174  -1.2187795339   0.5134511865
	    C    -0.0012841313   0.0080245407  -1.6514057921
	    H     0.0651892360   2.1646863046  -0.0196371286
	    H     0.0684457053   2.1501334814   2.4547904081
	    H     0.0154236112  -0.0052411146   3.6887407168
	    H    -0.0469162573  -2.1555182665   2.4462447964
	    H    -0.0795831137  -2.1601543834  -0.0276952836
	    N    -0.8455110831   0.7896009552  -2.3137390270
	    N     0.8430675200  -0.7915674630  -2.2917125101
	    H     0.8442626711  -0.9069309124  -3.3028922315
	    H     1.5321960684  -1.3171707523  -1.7553901907
	    H    -1.5391708008   1.3234022139  -1.7933349229
	    H    -0.8264189803   0.9000733102  -3.3264165146
			--------------------------
			 OPTKING Finished Execution 
			--------------------------

    Structure for next step:
    Molecular point group: c1
    Full point group: C1

    Geometry (in Angstrom), charge = 1, multiplicity = 1:

    C           -0.026413555597     0.003361571228    -0.179187284890
    C            0.011609620714     1.221653945719     0.518593036427
    C            0.026986004838     1.211681343349     1.911240642624
    C            0.006498986678    -0.002797040502     2.603197284478
    C           -0.021400784706    -1.214458199777     1.906152814802
    C           -0.026981717420    -1.218779533928     0.513451186515
    C           -0.001284131323     0.008024540723    -1.651405792078
    H            0.065189235991     2.164686304579    -0.019637128626
    H            0.068445705276     2.150133481433     2.454790408055
    H            0.015423611226    -0.005241114559     3.688740716813
    H           -0.046916257285    -2.155518266489     2.446244796374
    H           -0.079583113716    -2.160154383399    -0.027695283597
    N           -0.845511083088     0.789600955215    -2.313739027050
    N            0.843067519988    -0.791567462998    -2.291712510084
    H            0.844262671111    -0.906930912416    -3.302892231532
    H            1.532196068403    -1.317170752279    -1.755390190668
    H           -1.539170800804     1.323402213918    -1.793334922942
    H           -0.826418980286     0.900073310184    -3.326416514622

gradient() will perform analytic gradient computation.

*** tstart() called on green.prib.upf.edu
*** at Sat Sep 29 20:46:15 2018

   => Loading Basis Set <=

    Name: 6-31G*
    Role: ORBITAL
    Keyword: BASIS
    atoms 1-7         entry C          line   111 file /shared/joao/test_parameterize/miniconda3/share/psi4/basis/6-31gs.gbs 
    atoms 8-12, 15-18 entry H          line    44 file /shared/joao/test_parameterize/miniconda3/share/psi4/basis/6-31gs.gbs 
    atoms 13-14       entry N          line   128 file /shared/joao/test_parameterize/miniconda3/share/psi4/basis/6-31gs.gbs 


         ---------------------------------------------------------
                                   SCF
            by Justin Turney, Rob Parrish, Andy Simmonett
                             and Daniel Smith
                              RKS Reference
                        4 Threads,   2861 MiB Core
         ---------------------------------------------------------

  ==> Geometry <==

    Molecular point group: c1
    Full point group: C1

    Geometry (in Angstrom), charge = 1, multiplicity = 1:

[...]
	            -0.0000027824       -0.0000019277        0.0000013265
	            -0.0000023714        0.0000009830       -0.0000006736
	             0.0000042184        0.0000015693        0.0000022199
	            -0.0000034109        0.0000037839        0.0000000098
	            -0.0021282999       -0.0023496367       -0.0000630924
	            -0.0000036708        0.0000352474        0.0000003364
	            -0.0000081187       -0.0000123722       -0.0000165924
	             0.0000131656       -0.0000137693       -0.0000029196
	            -0.0000109889        0.0000085578       -0.0000015514
	             0.0000024423        0.0000067127       -0.0000222025

	---Fragment 1 Intrafragment Coordinates---
	 - Coordinate -           - BOHR/RAD -       - ANG/DEG -
	 R(1,2)           =         2.656956	       1.406001
	 R(1,6)           =         2.657147	       1.406102
	 R(1,7)           =         2.777354	       1.469712
	 R(2,3)           =         2.630967	       1.392248
	 R(2,8)           =         2.053149	       1.086480
	 R(3,4)           =         2.641864	       1.398014
	 R(3,9)           =         2.050712	       1.085190
	 R(4,5)           =         2.642710	       1.398462
	 R(4,10)          =         2.051589	       1.085654
	 R(5,6)           =         2.630381	       1.391937
	 R(5,11)          =         2.050740	       1.085205
	 R(6,12)          =         2.053052	       1.086428
	 R(7,13)          =         2.509966	       1.328217
	 R(7,14)          =         2.509813	       1.328136
	 R(13,17)         =         1.912451	       1.012026
	 R(13,18)         =         1.915794	       1.013794
	 R(14,15)         =         1.915790	       1.013793
	 R(14,16)         =         1.912395	       1.011996
	 B(1,2,3)         =         2.084541	     119.435407
	 B(1,2,8)         =         2.100731	     120.363032
	 B(1,6,5)         =         2.083774	     119.391463
	 B(1,6,12)        =         2.100664	     120.359189
	 B(1,7,13)        =         2.086183	     119.529487
	 B(1,7,14)        =         2.087904	     119.628078
	 B(2,1,6)         =         2.104226	     120.563289
	 B(2,1,7)         =         2.086107	     119.525142
	 B(2,3,4)         =         2.094861	     120.026721
	 B(2,3,9)         =         2.089976	     119.746785
	 B(3,2,8)         =         2.097450	     120.175018
	 B(3,4,5)         =         2.103058	     120.496338
	 B(3,4,10)        =         2.090171	     119.758002
	 B(4,3,9)         =         2.098304	     120.223991
	 B(4,5,6)         =         2.095532	     120.065166
	 B(4,5,11)        =         2.097935	     120.202836
	 B(5,4,10)        =         2.089951	     119.745369
	 B(5,6,12)        =         2.097772	     120.193457
	 B(6,1,7)         =         2.091331	     119.824452
	 B(6,5,11)        =         2.089714	     119.731783
	 B(7,13,17)       =         2.085797	     119.507370
	 B(7,13,18)       =         2.150772	     123.230187
	 B(7,14,15)       =         2.149349	     123.148635
	 B(7,14,16)       =         2.086035	     119.520984
	 B(13,7,14)       =         2.108514	     120.808974
	 B(15,14,16)      =         2.046629	     117.263176
	 B(17,13,18)      =         2.046616	     117.262442
	 D(1,2,3,4)       =        -0.002842	      -0.162835
	 D(1,2,3,9)       =         3.128728	     179.262927
	 D(1,6,5,4)       =        -0.024717	      -1.416176
	 D(1,6,5,11)      =         3.113939	     178.415560
	 D(1,7,13,17)     =        -0.105205	      -6.027816
	 D(1,7,13,18)     =         3.036548	     173.981372
	 D(1,7,14,15)     =         3.026614	     173.412202
	 D(1,7,14,16)     =        -0.168477	      -9.653031
	 D(2,1,6,5)       =         0.030997	       1.775989
	 D(2,1,6,12)      =         3.125232	     179.062605
	*D(2,1,7,13)      =        -0.872665	     -50.000009
	 D(2,1,7,14)      =         2.305346	     132.086587
	 D(2,3,4,5)       =         0.009019	       0.516769
	 D(2,3,4,10)      =        -3.136012	    -179.680267
	 D(3,2,1,6)       =        -0.017203	      -0.985651
	 D(3,2,1,7)       =        -3.099461	    -177.586033
	 D(3,4,5,6)       =         0.004953	       0.283788
	 D(3,4,5,11)      =        -3.133689	    -179.547148
	 D(4,3,2,8)       =        -3.111850	    -178.295851
	 D(4,5,6,12)      =        -3.119032	    -178.707374
	 D(5,4,3,9)       =        -3.122503	    -178.906227
	 D(5,6,1,7)       =         3.113078	     178.366225
	 D(6,1,2,8)       =         3.091742	     177.143785
	 D(6,1,7,13)      =         2.327818	     133.374166
	 D(6,1,7,14)      =        -0.777356	     -44.539239
	 D(6,5,4,10)      =        -3.133201	    -179.519201
	 D(7,1,2,8)       =         0.009484	       0.543402
	 D(7,1,6,12)      =        -0.075872	      -4.347158
	 D(8,2,3,9)       =         0.019721	       1.129911
	 D(9,3,4,10)      =         0.015651	       0.896738
	 D(10,4,5,11)     =         0.011342	       0.649862
	 D(11,5,6,12)     =         0.019624	       1.124362
	 D(13,7,14,15)    =        -0.078085	      -4.473926
	 D(13,7,14,16)    =         3.010010	     172.460842
	 D(14,7,13,17)    =         2.999529	     171.860376
	 D(14,7,13,18)    =        -0.141903	      -8.130436

	Current energy   :      -381.4696618633

	Energy change for the previous step:
		Projected    :        -0.0000012215
		Actual       :        -0.0000003042
	Energy ratio indicates iffy step: Trust radius decreased to 6.250e-02.


	Performing BFGS update.
	Previous computed or guess Hessian on step 1.
	Steps to be used in Hessian update: 6 5
	Taking RFO optimization step.
	Going to follow RFO solution 1.
	Rejecting RFO root 1 because normalization gives large value.
	Rejecting RFO root 2 because normalization gives large value.
	Using RFO vector 3.
	Norm of target step-size    0.00120
	Projected energy change by RFO approximation:        -0.0000000506

	Back-transformation to cartesian coordinates...
	Successfully converged to displaced geometry.

	Back-transformation to cartesian coordinates to adjust frozen coordinates...
	Successfully converged to displaced geometry.

	--- Internal Coordinate Step in ANG or DEG, aJ/ANG or AJ/DEG ---
	 ---------------------------------------------------------------------------
	   Coordinate                Previous        Force       Change         New 
	   ----------                --------       ------       ------       ------
	    1 R(1,2)          =      1.406001    -0.000093    -0.000010     1.405991
	    2 R(1,6)          =      1.406102    -0.000122    -0.000014     1.406088
	    3 R(1,7)          =      1.469712     0.000231     0.000044     1.469756
	    4 R(2,3)          =      1.392248     0.000030     0.000005     1.392253
	    5 R(2,8)          =      1.086480     0.000039     0.000007     1.086486
	    6 R(3,4)          =      1.398014    -0.000004    -0.000001     1.398013
	    7 R(3,9)          =      1.085190     0.000004     0.000001     1.085191
	    8 R(4,5)          =      1.398462    -0.000007    -0.000001     1.398461
	    9 R(4,10)         =      1.085654    -0.000004    -0.000001     1.085653
	   10 R(5,6)          =      1.391937     0.000029     0.000004     1.391941
	   11 R(5,11)         =      1.085205    -0.000001    -0.000000     1.085205
	   12 R(6,12)         =      1.086428     0.000031     0.000005     1.086434
	   13 R(7,13)         =      1.328217    -0.000077    -0.000010     1.328207
	   14 R(7,14)         =      1.328136    -0.000007     0.000001     1.328137
	   15 R(13,17)        =      1.012026    -0.000105    -0.000006     1.012019
	   16 R(13,18)        =      1.013794    -0.000177    -0.000015     1.013780
	   17 R(14,15)        =      1.013793    -0.000138    -0.000013     1.013780
	   18 R(14,16)        =      1.011996    -0.000118    -0.000007     1.011989
	   19 B(1,2,3)        =    119.435407    -0.000000    -0.000270   119.435138
	   20 B(1,2,8)        =    120.363032     0.000001     0.002419   120.365451
	   21 B(1,6,5)        =    119.391463    -0.000000    -0.000303   119.391160
	   22 B(1,6,12)       =    120.359189     0.000000     0.000519   120.359708
	   23 B(1,7,13)       =    119.529487    -0.000001    -0.000780   119.528706
	   24 B(1,7,14)       =    119.628078    -0.000002    -0.006044   119.622034
	   25 B(2,1,6)        =    120.563289     0.000001     0.000683   120.563973
	   26 B(2,1,7)        =    119.525142     0.000000     0.001174   119.526316
	   27 B(2,3,4)        =    120.026721     0.000000     0.000457   120.027178
	   28 B(2,3,9)        =    119.746785    -0.000000    -0.001322   119.745462
	   29 B(3,2,8)        =    120.175018    -0.000000    -0.002220   120.172798
	   30 B(3,4,5)        =    120.496338    -0.000000    -0.001040   120.495297
	   31 B(3,4,10)       =    119.758002     0.000000     0.000696   119.758697
	   32 B(4,3,9)        =    120.223991     0.000000     0.000714   120.224705
	   33 B(4,5,6)        =    120.065166     0.000000     0.000814   120.065980
	   34 B(4,5,11)       =    120.202836     0.000000     0.000359   120.203195
	   35 B(5,4,10)       =    119.745369     0.000000     0.000332   119.745701
	   36 B(5,6,12)       =    120.193457    -0.000000    -0.000184   120.193274
	   37 B(6,1,7)        =    119.824452    -0.000001    -0.001703   119.822750
	   38 B(6,5,11)       =    119.731783    -0.000000    -0.001224   119.730559
	   39 B(7,13,17)      =    119.507370    -0.000001    -0.003259   119.504111
	   40 B(7,13,18)      =    123.230187     0.000000     0.000796   123.230982
	   41 B(7,14,15)      =    123.148635     0.000001     0.002743   123.151377
	   42 B(7,14,16)      =    119.520984    -0.000001    -0.005996   119.514988
	   43 B(13,7,14)      =    120.808974     0.000003     0.006697   120.815671
	   44 B(15,14,16)     =    117.263176     0.000001     0.002743   117.265918
	   45 B(17,13,18)     =    117.262442     0.000000     0.002463   117.264905
	   46 D(1,2,3,4)      =     -0.162835     0.000000     0.016942    -0.145894
	   47 D(1,2,3,9)      =    179.262927     0.000000    -0.000113   179.262814
	   48 D(1,6,5,4)      =     -1.416176     0.000000     0.019854    -1.396323
	   49 D(1,6,5,11)     =    178.415560     0.000000     0.000929   178.416488
	   50 D(1,7,13,17)    =     -6.027816     0.000000     0.009316    -6.018501
	   51 D(1,7,13,18)    =    173.981372     0.000000     0.013416   173.994788
	   52 D(1,7,14,15)    =    173.412202     0.000000     0.020168   173.432370
	   53 D(1,7,14,16)    =     -9.653031    -0.000000     0.008634    -9.644397
	   54 D(2,1,6,5)      =      1.775989     0.000000    -0.009981     1.766008
	   55 D(2,1,6,12)     =    179.062605     0.000000    -0.009204   179.053401
	   56 *D(2,1,7,13)    =    -50.000009     0.000000     0.000000   -50.000009
	   57 D(2,1,7,14)     =    132.086587     0.000000     0.003817   132.090404
	   58 D(2,3,4,5)      =      0.516769    -0.000000    -0.007170     0.509599
	   59 D(2,3,4,10)     =   -179.680267    -0.000000    -0.011476  -179.691743
	   60 D(3,2,1,6)      =     -0.985651    -0.000000    -0.008455    -0.994105
	   61 D(3,2,1,7)      =   -177.586033    -0.000000    -0.011420  -177.597453
	   62 D(3,4,5,6)      =      0.283788    -0.000000    -0.011484     0.272304
	   63 D(3,4,5,11)     =   -179.547148     0.000000     0.007534  -179.539615
	   64 D(4,3,2,8)      =   -178.295851     0.000000     0.019355  -178.276496
	   65 D(4,5,6,12)     =   -178.707374     0.000000     0.019058  -178.688316
	   66 D(5,4,3,9)      =   -178.906227     0.000000     0.009979  -178.896248
	   67 D(5,6,1,7)      =    178.366225    -0.000000    -0.006910   178.359316
	   68 D(6,1,2,8)      =    177.143785    -0.000000    -0.010962   177.132823
	   69 D(6,1,7,13)     =    133.374166     0.000000    -0.003024   133.371142
	   70 D(6,1,7,14)     =    -44.539239     0.000000     0.000793   -44.538446
	   71 D(6,5,4,10)     =   -179.519201    -0.000000    -0.007180  -179.526381
	   72 D(7,1,2,8)      =      0.543402    -0.000000    -0.013927     0.529475
	   73 D(7,1,6,12)     =     -4.347158     0.000000    -0.006132    -4.353291
	   74 D(8,2,3,9)      =      1.129911    -0.000000     0.002301     1.132212
	   75 D(9,3,4,10)     =      0.896738     0.000000     0.005673     0.902410
	   76 D(10,4,5,11)    =      0.649862     0.000000     0.011838     0.661700
	   77 D(11,5,6,12)    =      1.124362    -0.000000     0.000134     1.124496
	   78 D(13,7,14,15)   =     -4.473926     0.000000     0.024199    -4.449727
	   79 D(13,7,14,16)   =    172.460842     0.000000     0.012664   172.473506
	   80 D(14,7,13,17)   =    171.860376    -0.000000     0.005178   171.865554
	   81 D(14,7,13,18)   =     -8.130436     0.000000     0.009278    -8.121157
	 ---------------------------------------------------------------------------
	Successfully symmetrized geometry.

  ==> Convergence Check <==

  Measures of convergence in internal coordinates in au.
  Criteria marked as inactive (o), active & met (*), and active & unmet ( ).
  ---------------------------------------------------------------------------------------------
   Step     Total Energy     Delta E     MAX Force     RMS Force      MAX Disp      RMS Disp   
  ---------------------------------------------------------------------------------------------
    Convergence Criteria    1.00e-06 *    3.00e-04 *             o    1.20e-03 *             o
  ---------------------------------------------------------------------------------------------
      7    -381.46966186   -3.04e-07 *    3.68e-05 *    8.81e-06 o    4.22e-04 *    1.34e-04 o  ~
  ---------------------------------------------------------------------------------------------


  **** Optimization is complete! (in 7 steps) ****

  ==> Optimization Summary <==

  Measures of convergence in internal coordinates in au.
  --------------------------------------------------------------------------------------------------------------- ~
   Step         Total Energy             Delta E       MAX Force       RMS Force        MAX Disp        RMS Disp  ~
  --------------------------------------------------------------------------------------------------------------- ~
      1    -381.464964492110   -381.464964492110      0.00414245      0.00144807      0.16095526      0.04994559  ~
      2    -381.468373305550     -0.003408813440      0.00749926      0.00150618      0.14688928      0.03838078  ~
      3    -381.469478000938     -0.001104695389      0.00632136      0.00117167      0.03568034      0.00856806  ~
      4    -381.469652218196     -0.000174217258      0.00094727      0.00015719      0.01268965      0.00267912  ~
      5    -381.469660138313     -0.000007920117      0.00020893      0.00005555      0.00573455      0.00150707  ~
      6    -381.469661559100     -0.000001420787      0.00012733      0.00002559      0.00195340      0.00052501  ~
      7    -381.469661863283     -0.000000304183      0.00003683      0.00000881      0.00042235      0.00013357  ~
  --------------------------------------------------------------------------------------------------------------- ~

	Writing optimization data to binary file.
	Final energy is   -381.4696618632835
	Final (previous) structure:
	Cartesian Geometry (in Angstrom)
	    C    -0.0310217236   0.0027981653  -0.1781223542
	    C     0.0049098941   1.2217925460   0.5215916518
	    C     0.0204648222   1.2114169223   1.9137141251
	    C    -0.0030445538  -0.0037500364   2.6045549461
	    C    -0.0313756721  -1.2158750251   1.9076721789
	    C    -0.0304009663  -1.2201795424   0.5157416932
	    C     0.0063497465   0.0096484476  -1.6473436583
	    H     0.0510270423   2.1636429635  -0.0180646055
	    H     0.0603026016   2.1489644669   2.4587414975
	    H     0.0039589102  -0.0066223676   3.6901826482
	    H    -0.0569596797  -2.1562138066   2.4487619407
	    H    -0.0735518004  -2.1598903406  -0.0277731960
	    N    -0.8286592346   0.7937024300  -2.3197864433
	    N     0.8448585962  -0.7979493714  -2.2865877434
	    H     0.8484032305  -0.9082470360  -3.2943561364
	    H     1.5496434177  -1.3009135243  -1.7627160678
	    H    -1.5420113358   1.3079610857  -1.8189245972
	    H    -0.7928942949   0.9097140232  -3.3262858794
	Saving final (previous) structure.
	Removing binary optimization data file.
			--------------------------
			 OPTKING Finished Execution 
			--------------------------

    Final optimized geometry and variables:
    Molecular point group: c1
    Full point group: C1

    Geometry (in Angstrom), charge = 1, multiplicity = 1:

    C           -0.031021723592     0.002798165254    -0.178122354184
    C            0.004909894091     1.221792545972     0.521591651818
    C            0.020464822162     1.211416922267     1.913714125136
    C           -0.003044553824    -0.003750036395     2.604554946136
    C           -0.031375672068    -1.215875025111     1.907672178874
    C           -0.030400966323    -1.220179542354     0.515741693189
    C            0.006349746491     0.009648447572    -1.647343658302
    H            0.051027042257     2.163642963531    -0.018064605469
    H            0.060302601649     2.148964466879     2.458741497480
    H            0.003958910202    -0.006622367568     3.690182648169
    H           -0.056959679694    -2.156213806571     2.448761940748
    H           -0.073551800396    -2.159890340612    -0.027773196041
    N           -0.828659234612     0.793702430010    -2.319786443253
    N            0.844858596209    -0.797949371425    -2.286587743433
    H            0.848403230492    -0.908247035965    -3.294356136412
    H            1.549643417730    -1.300913524324    -1.762716067850
    H           -1.542011335829     1.307961085685    -1.818924597246
    H           -0.792894294946     0.909714023157    -3.326285879360

	Removing binary optimization data file.
	Cleaning optimization helper files.


Properties will be evaluated at   0.000000,   0.000000,   0.000000 [a0]
OEProp: No title given, name of density matrix used for the following properties is 'SCF density'
  Nuclear Dipole Moment: [e a0]
     X:    -0.4222      Y:     0.0071      Z:    -0.1289

  Electronic Dipole Moment: [e a0]
     X:     0.4581      Y:     0.0100      Z:    -2.1971

  Dipole Moment: [e a0]
     X:     0.0359      Y:     0.0172      Z:    -2.3260     Total:     2.3264

  Dipole Moment: [D]
     X:     0.0914      Y:     0.0436      Z:    -5.9121     Total:     5.9130

  Quadrupole Moment: [D A]
    XX:   -47.8104     YY:   -39.4300     ZZ:   -13.4772
    XY:    -6.0904     XZ:    -0.1380     YZ:    -0.2051

  Traceless Quadrupole Moment: [D A]
    XX:   -14.2379     YY:    -5.8575     ZZ:    20.0954
    XY:    -6.0904     XZ:    -0.1380     YZ:    -0.2051

  Mulliken Charges: (a.u.)
   Center  Symbol    Alpha    Beta     Spin     Total
       1     C     2.96851  2.96851  0.00000  0.06298
       2     C     3.07822  3.07822  0.00000 -0.15644
       3     C     3.06205  3.06205  0.00000 -0.12409
       4     C     3.05202  3.05202  0.00000 -0.10403
       5     C     3.06302  3.06302  0.00000 -0.12604
       6     C     3.07941  3.07941  0.00000 -0.15881
       7     C     2.73030  2.73030  0.00000  0.53940
       8     H     0.41366  0.41366  0.00000  0.17267
       9     H     0.40588  0.40588  0.00000  0.18825
      10     H     0.40461  0.40461  0.00000  0.19078
      11     H     0.40587  0.40587  0.00000  0.18826
      12     H     0.41345  0.41345  0.00000  0.17309
      13     N     3.85679  3.85679  0.00000 -0.71358
      14     N     3.85820  3.85820  0.00000 -0.71639
      15     H     0.30550  0.30550  0.00000  0.38901
      16     H     0.29863  0.29863  0.00000  0.40275
      17     H     0.29826  0.29826  0.00000  0.40348
      18     H     0.30564  0.30564  0.00000  0.38873

   Total alpha = 32.00000, Total beta = 32.00000, Total charge =  1.00000


    Psi4 stopped on: Saturday, 29 September 2018 08:48PM
    Psi4 wall time for execution: 0:03:12.05

*** Psi4 exiting successfully. Buy a developer a beer!
