
    -----------------------------------------------------------------------
          Psi4: An Open-Source Ab Initio Electronic Structure Package
                               Psi4 1.2.1 release

                         Git: Rev {HEAD} 406f4de 


    R. M. Parrish, L. A. Burns, D. G. A. Smith, A. C. Simmonett,
    A. E. DePrince III, E. G. Hohenstein, U. Bozkaya, A. Yu. Sokolov,
    R. Di Remigio, R. M. Richard, J. F. Gonthier, A. M. James,
    H. R. McAlexander, A. Kumar, M. Saitow, X. Wang, B. P. Pritchard,
    P. Verma, H. F. Schaefer III, K. Patkowski, R. A. King, E. F. Valeev,
    F. A. Evangelista, J. M. Turney, T. D. Crawford, and C. D. Sherrill,
    J. Chem. Theory Comput. 13(7) pp 3185--3197 (2017).
    (doi: 10.1021/acs.jctc.7b00174)


                         Additional Contributions by
    P. Kraus, H. Kruse, M. H. Lechner, M. C. Schieber, and R. A. Shaw

    -----------------------------------------------------------------------


    Psi4 started on: Saturday, 29 September 2018 08:40PM

    Process ID: 31907
    Host:       arancio.prib.upf.edu
    PSIDATADIR: /shared/joao/test_parameterize/miniconda3/share/psi4
    Memory:     500.0 MiB
    Threads:    1
    
  ==> Input File <==

--------------------------------------------------------------------------
set_num_threads(4)
set_memory('3000 MB')

set { scf_mem_safety_factor 0.7 }

set { reference rks }
set { basis 6-31G* }

molecule MOL {
    1 1
    noreorient
    nocom
    symmetry c1
    C   -0.000000  -0.000000  -0.177864
    C    0.036678   1.219374   0.524165
    C    0.031765   1.213120   1.915444
    C    0.000000   0.000000   2.610107
    C   -0.031765  -1.213120   1.915444
    C   -0.036678  -1.219375   0.524165
    C   -0.000000   0.000000  -1.644734
    H    0.018170   2.164705  -0.010854
    H    0.042402   2.152895   2.457886
    H    0.000000   0.000000   3.695756
    H   -0.042402  -2.152895   2.457886
    H   -0.018170  -2.164705  -0.010853
    N   -0.234187  -1.128577  -2.308461
    N    0.234187   1.128577  -2.308460
    H    0.154337   1.201113  -3.315997
    H    0.570662   1.943991  -1.813316
    H   -0.570662  -1.943991  -1.813317
    H   -0.154337  -1.201112  -3.315997
}

set optking { frozen_dihedral = (" 2 1 7 13 ") }

set optking { dynamic_level = 1 
 geom_maxiter = 250
 print_trajectory_xyz_file = True }

energy, wfn = optimize('B3LYP-D3', return_wfn=True)

import os
os.chdir(os.environ['HTMD_PSI4_WORKDIR'])

oeprop(wfn, 'DIPOLE', 'QUADRUPOLE', 'MULLIKEN_CHARGES')

with open('psi4out.xyz', 'w') as f:
    f.write('18 ' )
    f.write('%.12f\n' % energy)
    f.write(MOL.save_string_xyz())
--------------------------------------------------------------------------
  Threads set to 4 by Python driver.

  Memory set to   2.794 GiB by Python driver.
gradient() will perform analytic gradient computation.

*** tstart() called on arancio.prib.upf.edu
*** at Sat Sep 29 20:40:01 2018

   => Loading Basis Set <=

    Name: 6-31G*
    Role: ORBITAL
    Keyword: BASIS
    atoms 1-7         entry C          line   111 file /shared/joao/test_parameterize/miniconda3/share/psi4/basis/6-31gs.gbs 
    atoms 8-12, 15-18 entry H          line    44 file /shared/joao/test_parameterize/miniconda3/share/psi4/basis/6-31gs.gbs 
    atoms 13-14       entry N          line   128 file /shared/joao/test_parameterize/miniconda3/share/psi4/basis/6-31gs.gbs 


         ---------------------------------------------------------
                                   SCF
            by Justin Turney, Rob Parrish, Andy Simmonett
                             and Daniel Smith
                              RKS Reference
                        4 Threads,   2861 MiB Core
         ---------------------------------------------------------

  ==> Geometry <==

    Molecular point group: c1
    Full point group: C1

    Geometry (in Angstrom), charge = 1, multiplicity = 1:

       Center              X                  Y                   Z               Mass       
    ------------   -----------------  -----------------  -----------------  -----------------
         C            0.000000000000     0.000000000000    -0.177864000000    12.000000000000
         C            0.036678000000     1.219374000000     0.524165000000    12.000000000000
         C            0.031765000000     1.213120000000     1.915444000000    12.000000000000
         C            0.000000000000     0.000000000000     2.610107000000    12.000000000000
         C           -0.031765000000    -1.213120000000     1.915444000000    12.000000000000
         C           -0.036678000000    -1.219375000000     0.524165000000    12.000000000000
         C            0.000000000000     0.000000000000    -1.644734000000    12.000000000000
         H            0.018170000000     2.164705000000    -0.010854000000     1.007825032070
         H            0.042402000000     2.152895000000     2.457886000000     1.007825032070
         H            0.000000000000     0.000000000000     3.695756000000     1.007825032070
         H           -0.042402000000    -2.152895000000     2.457886000000     1.007825032070
         H           -0.018170000000    -2.164705000000    -0.010853000000     1.007825032070
         N           -0.234187000000    -1.128577000000    -2.308461000000    14.003074004780
         N            0.234187000000     1.128577000000    -2.308460000000    14.003074004780
         H            0.154337000000     1.201113000000    -3.315997000000     1.007825032070
         H            0.570662000000     1.943991000000    -1.813316000000     1.007825032070
         H           -0.570662000000    -1.943991000000    -1.813317000000     1.007825032070
         H           -0.154337000000    -1.201112000000    -3.315997000000     1.007825032070

  Running in c1 symmetry.

  Rotational constants: A =      0.12190  B =      0.04068  C =      0.03063 [cm^-1]
  Rotational constants: A =   3654.48753  B =   1219.53246  C =    918.32602 [MHz]
  Nuclear repulsion =  417.633980449774128

  Charge       = 1
  Multiplicity = 1
  Electrons    = 64
  Nalpha       = 32
  Nbeta        = 32

  ==> Algorithm <==

  SCF Algorithm Type is DF.
  DIIS enabled.
  MOM disabled.
  Fractional occupation disabled.
  Guess Type is SAD.
  Energy threshold   = 1.00e-08
  Density threshold  = 1.00e-08
  Integral threshold = 0.00e+00

  ==> Primary Basis <==

  Basis Set: 6-31G*
    Blend: 6-31G*
    Number of shells: 72
    Number of basis function: 153
    Number of Cartesian functions: 153
    Spherical Harmonics?: false
    Max angular momentum: 2

  ==> DFT Potential <==

   => Composite Functional: B3LYP-D3ZERO <= 

    B3LYP-d3zero Hyb-GGA Exchange-Correlation Functional

    P. J. Stephens, F. J. Devlin, C. F. Chabalowski, and M. J. Frisch, J. Phys. Chem. 98, 11623 (1994)

    Deriv               =              1
    GGA                 =           TRUE
    Meta                =          FALSE

    Exchange Hybrid     =           TRUE
    MP2 Hybrid          =          FALSE

   => Exchange Functionals <=

    0.0800   Slater exchange
    0.7200         Becke 88

   => Exact (HF) Exchange <=

    0.2000               HF 

   => Correlation Functionals <=

    0.1900   Vosko, Wilk & Nusair (VWN5_RPA)
    0.8100   Lee, Yang & Parr

   => Molecular Quadrature <=

    Radial Scheme       =       TREUTLER
    Pruning Scheme      =           FLAT
    Nuclear Scheme      =       TREUTLER

    BS radius alpha     =              1
    Pruning alpha       =              1
    Radial Points       =             75
    Spherical Points    =            302
    Total Points        =         396618
    Total Blocks        =           2997
    Max Points          =            256
    Max Functions       =            149

   => -D3ZERO: Empirical Dispersion <=

    Grimme's -D3 (zero-damping) Dispersion Correction
    Grimme S.; Antony J.; Ehrlich S.; Krieg H. (2010), J. Chem. Phys., 132: 154104

        S6 =   1.000000E+00
        S8 =   1.703000E+00
       SR6 =   1.261000E+00
       SR8 =   1.000000E+00
    ALPHA6 =   1.400000E+01

   => Loading Basis Set <=

    Name: (6-31G* AUX)
    Role: JKFIT
    Keyword: DF_BASIS_SCF
    atoms 1-7         entry C          line   121 file /shared/joao/test_parameterize/miniconda3/share/psi4/basis/cc-pvdz-jkfit.gbs 
    atoms 8-12, 15-18 entry H          line    51 file /shared/joao/test_parameterize/miniconda3/share/psi4/basis/cc-pvdz-jkfit.gbs 
    atoms 13-14       entry N          line   171 file /shared/joao/test_parameterize/miniconda3/share/psi4/basis/cc-pvdz-jkfit.gbs 

  ==> Pre-Iterations <==

   -------------------------------------------------------
    Irrep   Nso     Nmo     Nalpha   Nbeta   Ndocc  Nsocc
   -------------------------------------------------------
     A        153     153       0       0       0       0
   -------------------------------------------------------
    Total     153     153      32      32      32       0
   -------------------------------------------------------

  ==> Integral Setup <==

  ==> DiskDFJK: Density-Fitted J/K Matrices <==

    J tasked:                  Yes
    K tasked:                  Yes
    wK tasked:                  No
    OpenMP threads:              4
    Integrals threads:           4
    Memory (MB):              2002
    Algorithm:                Core
    Integral Cache:           NONE
    Schwarz Cutoff:          1E-12
    Fitting Condition:       1E-12

   => Auxiliary Basis Set <=

  Basis Set: (6-31G* AUX)
    Blend: CC-PVDZ-JKFIT
    Number of shells: 297
    Number of basis function: 954
    Number of Cartesian functions: 954
    Spherical Harmonics?: false
    Max angular momentum: 3

  Minimum eigenvalue in the overlap matrix is 4.8054012628E-04.
  Using Symmetric Orthogonalization.

  SCF Guess: Superposition of Atomic Densities via on-the-fly atomic UHF.

  ==> Iterations <==

                           Total Energy        Delta E     RMS |[F,P]|

   @DF-RKS iter   0:  -379.52449698399477   -3.79524e+02   6.69171e-02 
   @DF-RKS iter   1:  -381.01410130025067   -1.48960e+00   1.24051e-02 
   @DF-RKS iter   2:  -380.91196389991654    1.02137e-01   1.35820e-02 DIIS
   @DF-RKS iter   3:  -381.45627046924886   -5.44307e-01   1.90425e-03 DIIS
   @DF-RKS iter   4:  -381.46404875750909   -7.77829e-03   8.85498e-04 DIIS
   @DF-RKS iter   5:  -381.46596627648842   -1.91752e-03   2.51175e-04 DIIS
   @DF-RKS iter   6:  -381.46611936681319   -1.53090e-04   8.85342e-05 DIIS
   @DF-RKS iter   7:  -381.46614043161799   -2.10648e-05   2.28292e-05 DIIS
   @DF-RKS iter   8:  -381.46614201030059   -1.57868e-06   6.32748e-06 DIIS
   @DF-RKS iter   9:  -381.46614213747273   -1.27172e-07   2.13276e-06 DIIS
   @DF-RKS iter  10:  -381.46614215070360   -1.32309e-08   6.21801e-07 DIIS
   @DF-RKS iter  11:  -381.46614215173474   -1.03114e-09   1.65198e-07 DIIS
   @DF-RKS iter  12:  -381.46614215180358   -6.88374e-11   8.40610e-08 DIIS
   @DF-RKS iter  13:  -381.46614215182865   -2.50679e-11   1.06076e-08 DIIS
   @DF-RKS iter  14:  -381.46614215182893   -2.84217e-13   4.22974e-09 DIIS

  ==> Post-Iterations <==

    Orbital Energies [Eh]
    ---------------------

    Doubly Occupied:                                                      

       1A    -14.565482     2A    -14.565475     3A    -10.496522  
       4A    -10.375874     5A    -10.361416     6A    -10.361405  
       7A    -10.346895     8A    -10.344032     9A    -10.343981  
      10A     -1.182919    11A     -1.091486    12A     -1.017479  
      13A     -0.928651    14A     -0.906633    15A     -0.847568  
      16A     -0.785723    17A     -0.779239    18A     -0.738150  
      19A     -0.737662    20A     -0.689748    21A     -0.668675  
      22A     -0.632552    23A     -0.611253    24A     -0.599947  
      25A     -0.580968    26A     -0.578894    27A     -0.518529  
      28A     -0.510171    29A     -0.502568    30A     -0.471814  
      31A     -0.413427    32A     -0.408820  

    Virtual:                                                              

      33A     -0.223950    34A     -0.158166    35A     -0.113935  
      36A     -0.113521    37A     -0.075485    38A     -0.069208  
      39A     -0.043019    40A     -0.028839    41A      0.012160  
      42A      0.025371    43A      0.028552    44A      0.064379  
      45A      0.079646    46A      0.085015    47A      0.118116  
      48A      0.132240    49A      0.151552    50A      0.187889  
      51A      0.217230    52A      0.248069    53A      0.302056  
      54A      0.348964    55A      0.350475    56A      0.374202  
      57A      0.391918    58A      0.395782    59A      0.417137  
      60A      0.426488    61A      0.434669    62A      0.451590  
      63A      0.453238    64A      0.470276    65A      0.470600  
      66A      0.472639    67A      0.481933    68A      0.498994  
      69A      0.503763    70A      0.537793    71A      0.563227  
      72A      0.591102    73A      0.624017    74A      0.646989  
      75A      0.666539    76A      0.694839    77A      0.695804  
      78A      0.702905    79A      0.717291    80A      0.744295  
      81A      0.772862    82A      0.775270    83A      0.793624  
      84A      0.813014    85A      0.843371    86A      0.846406  
      87A      0.878802    88A      0.926697    89A      0.957176  
      90A      1.021146    91A      1.041838    92A      1.054450  
      93A      1.081524    94A      1.105153    95A      1.132383  
      96A      1.161200    97A      1.186081    98A      1.273238  
      99A      1.277184   100A      1.307837   101A      1.323243  
     102A      1.341533   103A      1.357837   104A      1.398906  
     105A      1.434610   106A      1.451681   107A      1.504475  
     108A      1.595647   109A      1.632999   110A      1.648908  
     111A      1.664870   112A      1.736495   113A      1.753250  
     114A      1.797409   115A      1.816179   116A      1.864641  
     117A      1.900736   118A      1.912328   119A      1.932765  
     120A      1.978400   121A      1.990106   122A      2.019782  
     123A      2.041754   124A      2.065311   125A      2.109689  
     126A      2.121779   127A      2.148264   128A      2.213768  
     129A      2.279628   130A      2.285073   131A      2.313096  
     132A      2.358456   133A      2.443372   134A      2.482030  
     135A      2.493320   136A      2.494475   137A      2.526933  
     138A      2.590546   139A      2.592474   140A      2.652769  
     141A      2.741110   142A      2.886492   143A      3.010456  
     144A      3.258181   145A      3.646708   146A      3.699533  
     147A      3.899834   148A      3.942154   149A      3.961001  
     150A      4.035611   151A      4.169055   152A      4.258034  
     153A      4.547977  

    Final Occupation by Irrep:
              A 
    DOCC [    32 ]

  Energy converged.

  @DF-RKS Final Energy:  -381.46614215182893

   => Energetics <=

    Nuclear Repulsion Energy =            417.6339804497741284
    One-Electron Energy =               -1330.3219692711245443
    Two-Electron Energy =                 575.6442389018923222
    DFT Exchange-Correlation Energy =     -44.4109415823707963
    Empirical Dispersion Energy =          -0.0114506500000000
    VV10 Nonlocal Energy =                  0.0000000000000000
    Total Energy =                       -381.4661421518289330



Properties will be evaluated at   0.000000,   0.000000,   0.000000 [a0]

Properties computed using the SCF density matrix

  Nuclear Dipole Moment: [e a0]
     X:     0.0000      Y:    -0.0000      Z:     0.0248

  Electronic Dipole Moment: [e a0]
     X:     0.0000      Y:     0.0000      Z:    -2.1701

  Dipole Moment: [e a0]
     X:     0.0000      Y:     0.0000      Z:    -2.1453     Total:     2.1453

  Dipole Moment: [D]
     X:     0.0000      Y:     0.0000      Z:    -5.4528     Total:     5.4528


*** tstop() called on arancio.prib.upf.edu at Sat Sep 29 20:40:27 2018
Module time:
	user time   =      90.47 seconds =       1.51 minutes
	system time =       0.42 seconds =       0.01 minutes
	total time  =         26 seconds =       0.43 minutes
Total time:
	user time   =      90.47 seconds =       1.51 minutes
	system time =       0.42 seconds =       0.01 minutes
	total time  =         26 seconds =       0.43 minutes

*** tstart() called on arancio.prib.upf.edu
*** at Sat Sep 29 20:40:27 2018


         ------------------------------------------------------------
                                   SCF GRAD                          
                          Rob Parrish, Justin Turney,                
                       Andy Simmonett, and Alex Sokolov              
         ------------------------------------------------------------

  ==> Geometry <==

    Molecular point group: c1
    Full point group: C1

    Geometry (in Angstrom), charge = 1, multiplicity = 1:

       Center              X                  Y                   Z               Mass       
    ------------   -----------------  -----------------  -----------------  -----------------
         C            0.000000000000     0.000000000000    -0.177864000000    12.000000000000
         C            0.036678000000     1.219374000000     0.524165000000    12.000000000000
         C            0.031765000000     1.213120000000     1.915444000000    12.000000000000
         C            0.000000000000     0.000000000000     2.610107000000    12.000000000000
         C           -0.031765000000    -1.213120000000     1.915444000000    12.000000000000
         C           -0.036678000000    -1.219375000000     0.524165000000    12.000000000000
         C            0.000000000000     0.000000000000    -1.644734000000    12.000000000000
         H            0.018170000000     2.164705000000    -0.010854000000     1.007825032070
         H            0.042402000000     2.152895000000     2.457886000000     1.007825032070
         H            0.000000000000     0.000000000000     3.695756000000     1.007825032070
         H           -0.042402000000    -2.152895000000     2.457886000000     1.007825032070
         H           -0.018170000000    -2.164705000000    -0.010853000000     1.007825032070
         N           -0.234187000000    -1.128577000000    -2.308461000000    14.003074004780
         N            0.234187000000     1.128577000000    -2.308460000000    14.003074004780
         H            0.154337000000     1.201113000000    -3.315997000000     1.007825032070
         H            0.570662000000     1.943991000000    -1.813316000000     1.007825032070
         H           -0.570662000000    -1.943991000000    -1.813317000000     1.007825032070
         H           -0.154337000000    -1.201112000000    -3.315997000000     1.007825032070

  Nuclear repulsion =  417.633980449774128

  ==> Basis Set <==

  Basis Set: 6-31G*
    Blend: 6-31G*
    Number of shells: 72
    Number of basis function: 153
    Number of Cartesian functions: 153
    Spherical Harmonics?: false
    Max angular momentum: 2

  ==> DFJKGrad: Density-Fitted SCF Gradients <==

    Gradient:                    1
    J tasked:                  Yes
    K tasked:                  Yes
    wK tasked:                  No
    OpenMP threads:              4
    Integrals threads:           4
    Memory (MB):              2002
    Schwarz Cutoff:          0E+00
    Fitting Condition:       1E-12

   => Auxiliary Basis Set <=

  Basis Set: (6-31G* AUX)
    Blend: CC-PVDZ-JKFIT
    Number of shells: 297
    Number of basis function: 954
    Number of Cartesian functions: 954
    Spherical Harmonics?: false
    Max angular momentum: 3

  ==> DFT Potential <==

   => Composite Functional: B3LYP-D3ZERO <= 

    B3LYP-d3zero Hyb-GGA Exchange-Correlation Functional

    P. J. Stephens, F. J. Devlin, C. F. Chabalowski, and M. J. Frisch, J. Phys. Chem. 98, 11623 (1994)

    Deriv               =              1
    GGA                 =           TRUE
    Meta                =          FALSE

    Exchange Hybrid     =           TRUE
    MP2 Hybrid          =          FALSE

   => Exchange Functionals <=

    0.0800   Slater exchange
    0.7200         Becke 88

   => Exact (HF) Exchange <=

    0.2000               HF 

   => Correlation Functionals <=

    0.1900   Vosko, Wilk & Nusair (VWN5_RPA)
    0.8100   Lee, Yang & Parr

   => Molecular Quadrature <=

    Radial Scheme       =       TREUTLER
    Pruning Scheme      =           FLAT
    Nuclear Scheme      =       TREUTLER

    BS radius alpha     =              1
    Pruning alpha       =              1
    Radial Points       =             75
    Spherical Points    =            302
    Total Points        =         396618
    Total Blocks        =           2997
    Max Points          =            256
    Max Functions       =            149


  -Total Gradient:
     Atom            X                  Y                   Z
    ------   -----------------  -----------------  -----------------
       1        0.000000034549     0.000000816139     0.002058138800
       2        0.002912535650     0.003508372110    -0.002677852739
       3       -0.000257365217    -0.001623091103     0.001114173031
       4       -0.000000000730    -0.000000050577     0.000391410267
       5        0.000257367556     0.001623321744     0.001114361105
       6       -0.002912542691    -0.003509897185    -0.002678231238
       7        0.000000051391     0.000000172657    -0.002586405713
       8        0.000641150307    -0.000767565868    -0.004030496221
       9       -0.000330706287     0.000088086978    -0.000057350785
      10        0.000000001185     0.000000005691     0.000077203982
      11        0.000330705209    -0.000088113990    -0.000057396286
      12       -0.000641155741     0.000768279613    -0.004030020410
      13        0.002297635452    -0.000681749085     0.003016134295
      14       -0.002297648109     0.000681286595     0.003017465659
      15       -0.000843140517     0.000462293328    -0.000691972780
      16        0.000223419473     0.000778019844     0.003360812059
      17       -0.000223419870    -0.000778003678     0.003360873278
      18        0.000843078473    -0.000462183313    -0.000691070127


*** tstop() called on arancio.prib.upf.edu at Sat Sep 29 20:40:33 2018
Module time:
	user time   =      25.50 seconds =       0.42 minutes
	system time =       0.24 seconds =       0.00 minutes
	total time  =          6 seconds =       0.10 minutes
Total time:
	user time   =     116.05 seconds =       1.93 minutes
	system time =       0.67 seconds =       0.01 minutes
	total time  =         32 seconds =       0.53 minutes

			-----------------------------------------
			 OPTKING 2.0: for geometry optimizations 
			  - R.A. King,  Bethel University        
			-----------------------------------------
	At level 1: Red. Int., RFO, no backsteps, dynamic trust

	Internal coordinates to be generated automatically.
	Detected frag 1 with atoms:  1 2 3 4 5 6 7 8 9 10 11 12 13 14 15 16 17 18
	---Fragment 1 Bond Connectivity---
	 1 : 2 6 7
	 2 : 1 3 8
	 3 : 2 4 9
	 4 : 3 5 10
	 5 : 4 6 11
	 6 : 1 5 12
	 7 : 1 13 14
	 8 : 2
	 9 : 3
	 10 : 4
	 11 : 5
	 12 : 6
	 13 : 7 17 18
	 14 : 7 15 16
	 15 : 14
	 16 : 14
	 17 : 13
	 18 : 13

	Assuming in current code that numbering for constraints corresponds to unified fragment.
	Frozen dihedral atom list: 
	     2     1     7    13
	---Fragment 1 Geometry and Gradient---
	 C           0.0000000000        0.0000000000       -0.3361142489
	 C           0.0693113751        2.3042829136        0.9905282984
	 C           0.0600271506        2.2924645663        3.6196645829
	 C           0.0000000000        0.0000000000        4.9323874075
	 C          -0.0600271506       -2.2924645663        3.6196645829
	 C          -0.0693113751       -2.3042848033        0.9905282984
	 C           0.0000000000        0.0000000000       -3.1080968214
	 H           0.0343363238        4.0906996085       -0.0205110874
	 H           0.0801281675        4.0683819429        4.6447314059
	 H           0.0000000000        0.0000000000        6.9839666940
	 H          -0.0801281675       -4.0683819429        4.6447314059
	 H          -0.0343363238       -4.0906996085       -0.0205091977
	 N          -0.4425492939       -2.1327014499       -4.3623590784
	 N           0.4425492939        2.1327014499       -4.3623571887
	 H           0.2916546622        2.2697746246       -6.2663261875
	 H           1.0783948944        3.6736105948       -3.4266706324
	 H          -1.0783948944       -3.6736105948       -3.4266725221
	 H          -0.2916546622       -2.2697727349       -6.2663261875
	             0.0000000345        0.0000008161        0.0020581388
	             0.0029125357        0.0035083721       -0.0026778527
	            -0.0002573652       -0.0016230911        0.0011141730
	            -0.0000000007       -0.0000000506        0.0003914103
	             0.0002573676        0.0016233217        0.0011143611
	            -0.0029125427       -0.0035098972       -0.0026782312
	             0.0000000514        0.0000001727       -0.0025864057
	             0.0006411503       -0.0007675659       -0.0040304962
	            -0.0003307063        0.0000880870       -0.0000573508
	             0.0000000012        0.0000000057        0.0000772040
	             0.0003307052       -0.0000881140       -0.0000573963
	            -0.0006411557        0.0007682796       -0.0040300204
	             0.0022976355       -0.0006817491        0.0030161343
	            -0.0022976481        0.0006812866        0.0030174657
	            -0.0008431405        0.0004622933       -0.0006919728
	             0.0002234195        0.0007780198        0.0033608121
	            -0.0002234199       -0.0007780037        0.0033608733
	             0.0008430785       -0.0004621833       -0.0006910701

	Previous optimization step data not found.  Starting new optimization.

	---Fragment 1 Intrafragment Coordinates---
	 - Coordinate -           - BOHR/RAD -       - ANG/DEG -
	 R(1,2)           =         2.659794	       1.407502
	 R(1,6)           =         2.659796	       1.407503
	 R(1,7)           =         2.771983	       1.466870
	 R(2,3)           =         2.629179	       1.391302
	 R(2,8)           =         2.052976	       1.086388
	 R(3,4)           =         2.642393	       1.398294
	 R(3,9)           =         2.050622	       1.085142
	 R(4,5)           =         2.642393	       1.398294
	 R(4,10)          =         2.051579	       1.085649
	 R(5,6)           =         2.629179	       1.391302
	 R(5,11)          =         2.050622	       1.085142
	 R(6,12)          =         2.052973	       1.086386
	 R(7,13)          =         2.513452	       1.330061
	 R(7,14)          =         2.513451	       1.330061
	 R(13,17)         =         1.911599	       1.011575
	 R(13,18)         =         1.914849	       1.013295
	 R(14,15)         =         1.914851	       1.013296
	 R(14,16)         =         1.911599	       1.011575
	 B(1,2,3)         =         2.088380	     119.655376
	 B(1,2,8)         =         2.103396	     120.515689
	 B(1,6,5)         =         2.088379	     119.655315
	 B(1,6,12)        =         2.103396	     120.515729
	 B(1,7,13)        =         2.093264	     119.935175
	 B(1,7,14)        =         2.093263	     119.935137
	 B(2,1,6)         =         2.097220	     120.161857
	 B(2,1,7)         =         2.092983	     119.919082
	 B(2,3,4)         =         2.095279	     120.050636
	 B(2,3,9)         =         2.089719	     119.732108
	 B(3,2,8)         =         2.090149	     119.756722
	 B(3,4,5)         =         2.101793	     120.423859
	 B(3,4,10)        =         2.090696	     119.788070
	 B(4,3,9)         =         2.098135	     120.214297
	 B(4,5,6)         =         2.095280	     120.050677
	 B(4,5,11)        =         2.098135	     120.214297
	 B(5,4,10)        =         2.090696	     119.788070
	 B(5,6,12)        =         2.090149	     119.756743
	 B(6,1,7)         =         2.092982	     119.919061
	 B(6,5,11)        =         2.089719	     119.732067
	 B(7,13,17)       =         2.092411	     119.886331
	 B(7,13,18)       =         2.144860	     122.891403
	 B(7,14,15)       =         2.144860	     122.891417
	 B(7,14,16)       =         2.092412	     119.886368
	 B(13,7,14)       =         2.096659	     120.129688
	 B(15,14,16)      =         2.043399	     117.078152
	 B(17,13,18)      =         2.043400	     117.078203
	 D(1,2,3,4)       =         0.007799	       0.446825
	 D(1,2,3,9)       =        -3.122896	    -178.928735
	 D(1,6,5,4)       =         0.007799	       0.446822
	 D(1,6,5,11)      =        -3.122896	    -178.928737
	 D(1,7,13,17)     =         0.187845	      10.762719
	 D(1,7,13,18)     =        -3.032166	    -173.730287
	 D(1,7,14,15)     =        -3.032165	    -173.730279
	 D(1,7,14,16)     =         0.187845	      10.762723
	 D(2,1,6,5)       =        -0.003906	      -0.223802
	 D(2,1,6,12)      =        -3.091437	    -177.126283
	*D(2,1,7,13)      =        -2.967060	    -170.000026
	 D(2,1,7,14)      =         0.174532	       9.999974
	 D(2,3,4,5)       =        -0.003942	      -0.225875
	 D(2,3,4,10)      =         3.137650	     179.774125
	 D(3,2,1,6)       =        -0.003906	      -0.223806
	 D(3,2,1,7)       =         3.137687	     179.776196
	 D(3,4,5,6)       =        -0.003942	      -0.225874
	 D(3,4,5,11)      =         3.126699	     179.146646
	 D(4,3,2,8)       =         3.095744	     177.373058
	 D(4,5,6,12)      =         3.095744	     177.373055
	 D(5,4,3,9)       =         3.126699	     179.146646
	 D(5,6,1,7)       =         3.137687	     179.776197
	 D(6,1,2,8)       =        -3.091437	    -177.126287
	 D(6,1,7,13)      =         0.174532	       9.999975
	 D(6,1,7,14)      =        -2.967060	    -170.000025
	 D(6,5,4,10)      =         3.137650	     179.774126
	 D(7,1,2,8)       =         0.050156	       2.873714
	 D(7,1,6,12)      =         0.050156	       2.873716
	 D(8,2,3,9)       =        -0.034950	      -2.002503
	 D(9,3,4,10)      =        -0.014894	      -0.853354
	 D(10,4,5,11)     =        -0.014894	      -0.853354
	 D(11,5,6,12)     =        -0.034950	      -2.002504
	 D(13,7,14,15)    =         0.109427	       6.269721
	 D(13,7,14,16)    =        -2.953748	    -169.237277
	 D(14,7,13,17)    =        -2.953748	    -169.237281
	 D(14,7,13,18)    =         0.109427	       6.269713

	Current energy   :      -381.4661421518

	Generating empirical Hessian (Schlegel '84) for each fragment.
	Taking RFO optimization step.
	Going to follow RFO solution 1.
	Using RFO vector 1.
	Norm of target step-size    0.29611
	Projected energy change by RFO approximation:        -0.0037346453

	Back-transformation to cartesian coordinates...
	Could not converge backtransformation.
	Using first guess instead.

	Back-transformation to cartesian coordinates to adjust frozen coordinates...
	Successfully converged to displaced geometry.

	--- Internal Coordinate Step in ANG or DEG, aJ/ANG or AJ/DEG ---
	 ---------------------------------------------------------------------------
	   Coordinate                Previous        Force       Change         New 
	   ----------                --------       ------       ------       ------
	    1 R(1,2)          =      1.407502     0.025780     0.003985     1.411487
	    2 R(1,6)          =      1.407503     0.025767     0.006349     1.413852
	    3 R(1,7)          =      1.466870     0.072353     0.012889     1.479759
	    4 R(2,3)          =      1.391302    -0.010752    -0.000763     1.390539
	    5 R(2,8)          =      1.086388    -0.010763    -0.000563     1.085825
	    6 R(3,4)          =      1.398294    -0.013724    -0.001352     1.396942
	    7 R(3,9)          =      1.085142    -0.000363    -0.000065     1.085077
	    8 R(4,5)          =      1.398294    -0.013730    -0.001899     1.396394
	    9 R(4,10)         =      1.085649    -0.000632     0.000279     1.085928
	   10 R(5,6)          =      1.391302    -0.010767    -0.001235     1.390067
	   11 R(5,11)         =      1.085142    -0.000363     0.000854     1.085997
	   12 R(6,12)         =      1.086386    -0.010756    -0.000679     1.085708
	   13 R(7,13)         =      1.330061     0.014166     0.002062     1.332124
	   14 R(7,14)         =      1.330061     0.014170     0.006668     1.336729
	   15 R(13,17)        =      1.011575    -0.019330     0.000716     1.012290
	   16 R(13,18)        =      1.013295    -0.006486     0.000221     1.013515
	   17 R(14,15)        =      1.013296    -0.006493     0.002340     1.015635
	   18 R(14,16)        =      1.011575    -0.019330    -0.001053     1.010522
	   19 B(1,2,3)        =    119.655376     0.000268     0.875138   120.530514
	   20 B(1,2,8)        =    120.515689     0.000168     0.910869   121.426558
	   21 B(1,6,5)        =    119.655315     0.000268     0.905285   120.560600
	   22 B(1,6,12)       =    120.515729     0.000169     1.024315   121.540045
	   23 B(1,7,13)       =    119.935175     0.000487     1.441957   121.377132
	   24 B(1,7,14)       =    119.935137     0.000487     1.393141   121.328278
	   25 B(2,1,6)        =    120.161857    -0.000536    -1.614238   118.547619
	   26 B(2,1,7)        =    119.919082     0.000268     0.777112   120.696194
	   27 B(2,3,4)        =    120.050636     0.000029     0.067347   120.117983
	   28 B(2,3,9)        =    119.732108    -0.000008    -0.003121   119.728987
	   29 B(3,2,8)        =    119.756722    -0.000436    -1.811004   117.945718
	   30 B(3,4,5)        =    120.423859    -0.000058    -0.280318   120.143541
	   31 B(3,4,10)       =    119.788070     0.000029     0.172226   119.960297
	   32 B(4,3,9)        =    120.214297    -0.000021    -0.064588   120.149709
	   33 B(4,5,6)        =    120.050677     0.000029     0.009197   120.059874
	   34 B(4,5,11)       =    120.214297    -0.000022    -0.046950   120.167346
	   35 B(5,4,10)       =    119.788070     0.000029     0.105237   119.893307
	   36 B(5,6,12)       =    119.756743    -0.000437    -1.920443   117.836300
	   37 B(6,1,7)        =    119.919061     0.000268     0.663322   120.582384
	   38 B(6,5,11)       =    119.732067    -0.000007     0.028720   119.760787
	   39 B(7,13,17)      =    119.886331     0.000248     1.049467   120.935799
	   40 B(7,13,18)      =    122.891403    -0.000140    -0.709297   122.182106
	   41 B(7,14,15)      =    122.891417    -0.000140    -0.484457   122.406961
	   42 B(7,14,16)      =    119.886368     0.000248     1.222261   121.108629
	   43 B(13,7,14)      =    120.129688    -0.000975    -2.994355   117.135333
	   44 B(15,14,16)     =    117.078152    -0.000113    -0.932096   116.146057
	   45 B(17,13,18)     =    117.078203    -0.000113    -0.544736   116.533467
	   46 D(1,2,3,4)      =      0.446825    -0.000002    -0.030716     0.416108
	   47 D(1,2,3,9)      =   -178.928735    -0.000001     0.006742  -178.921993
	   48 D(1,6,5,4)      =      0.446822    -0.000011    -1.775291    -1.328469
	   49 D(1,6,5,11)     =   -178.928737    -0.000007    -1.142205  -180.070942
	   50 D(1,7,13,17)    =     10.762719     0.000020     3.350604    14.113323
	   51 D(1,7,13,18)    =   -173.730287     0.000002     0.827871  -172.902416
	   52 D(1,7,14,15)    =   -173.730279    -0.000024    -4.028404  -177.758683
	   53 D(1,7,14,16)    =     10.762723    -0.000006    -1.583217     9.179506
	   54 D(2,1,6,5)      =     -0.223802     0.000014     2.614817     2.391015
	   55 D(2,1,6,12)     =   -177.126283     0.000016     2.467849  -174.658434
	   56 *D(2,1,7,13)    =   -170.000026    -0.000000     0.000000  -170.000026
	   57 D(2,1,7,14)     =      9.999974     0.000026     4.718722    14.718695
	   58 D(2,3,4,5)      =     -0.225875     0.000006     0.919577     0.693702
	   59 D(2,3,4,10)     =    179.774125     0.000003     0.304291   180.078416
	   60 D(3,2,1,6)      =     -0.223806    -0.000008    -1.709115    -1.932921
	   61 D(3,2,1,7)      =    179.776196     0.000016     3.054537   182.830732
	   62 D(3,4,5,6)      =     -0.225874     0.000001    -0.010870    -0.236744
	   63 D(3,4,5,11)     =    179.146646    -0.000002    -0.646074   178.500573
	   64 D(4,3,2,8)      =    177.373058    -0.000002    -0.491001   176.882056
	   65 D(4,5,6,12)     =    177.373055    -0.000008    -1.545178   175.827877
	   66 D(5,4,3,9)      =    179.146646     0.000005     0.882351   180.028998
	   67 D(5,6,1,7)      =    179.776197    -0.000009    -2.143221   177.632976
	   68 D(6,1,2,8)      =   -177.126287    -0.000003    -1.147825  -178.274112
	   69 D(6,1,7,13)     =      9.999975     0.000024     4.860837    14.860812
	   70 D(6,1,7,14)     =   -170.000025     0.000049     9.579559  -160.420466
	   71 D(6,5,4,10)     =    179.774126     0.000004     0.604002   180.378128
	   72 D(7,1,2,8)      =      2.873714     0.000020     3.615827     6.489541
	   73 D(7,1,6,12)     =      2.873716    -0.000008    -2.290189     0.583527
	   74 D(8,2,3,9)      =     -2.002503    -0.000002    -0.453542    -2.456045
	   75 D(9,3,4,10)     =     -0.853354     0.000002     0.267065    -0.586288
	   76 D(10,4,5,11)    =     -0.853354     0.000001    -0.031201    -0.884555
	   77 D(11,5,6,12)    =     -2.002504    -0.000005    -0.912091    -2.914595
	   78 D(13,7,14,15)   =      6.269721     0.000002     0.498107     6.767828
	   79 D(13,7,14,16)   =   -169.237277     0.000020     2.943294  -166.293982
	   80 D(14,7,13,17)   =   -169.237281    -0.000006    -1.178265  -170.415546
	   81 D(14,7,13,18)   =      6.269713    -0.000024    -3.700997     2.568716
	 ---------------------------------------------------------------------------
	Successfully symmetrized geometry.

  ==> Convergence Check <==

  Measures of convergence in internal coordinates in au.
  Criteria marked as inactive (o), active & met (*), and active & unmet ( ).
  --------------------------------------------------------------------------------------------- ~
   Step     Total Energy     Delta E     MAX Force     RMS Force      MAX Disp      RMS Disp    ~
  --------------------------------------------------------------------------------------------- ~
    Convergence Criteria    1.00e-06 *    3.00e-04 *             o    1.20e-03 *             o  ~
  --------------------------------------------------------------------------------------------- ~
      1    -381.46614215   -3.81e+02      1.28e-02      2.74e-03 o    1.67e-01      3.29e-02 o  ~
  ---------------------------------------------------------------------------------------------

	Writing optimization data to binary file.
	Structure for next step:
	Cartesian Geometry (in Angstrom)
	    C    -0.0715086857   0.0057929403  -0.1711398349
	    C    -0.0348805310   1.2183165637   0.5504837077
	    C     0.0041180972   1.2122057109   1.9404619352
	    C     0.0161314088   0.0008138636   2.6360424508
	    C     0.0036495844  -1.2086411339   1.9382026365
	    C    -0.0257537064  -1.2103805832   0.5484480979
	    C    -0.0502319358   0.0063764614  -1.6507459894
	    H    -0.0952427627   2.1786381304   0.0473385835
	    H     0.0142902059   2.1520784944   2.4826131087
	    H     0.0453187173  -0.0009622249   3.7215769192
	    H     0.0375417060  -2.1504575562   2.4778523840
	    H     0.0351881437  -2.1684117276   0.0412760924
	    N    -0.2809437899  -1.1048959739  -2.3481689875
	    N     0.2923794494   1.0989549952  -2.3404799471
	    H     0.2805650510   1.1277415470  -3.3556386496
	    H     0.6770924895   1.9100207524  -1.8764515303
	    H    -0.6811002609  -1.9229975140  -1.9062227749
	    H    -0.1666131806  -1.1441927457  -3.3544482023
			--------------------------
			 OPTKING Finished Execution 
			--------------------------

    Structure for next step:
    Molecular point group: c1
    Full point group: C1

    Geometry (in Angstrom), charge = 1, multiplicity = 1:

    C           -0.071508685692     0.005792940344    -0.171139834853
    C           -0.034880531031     1.218316563677     0.550483707668
    C            0.004118097174     1.212205710870     1.940461935185
    C            0.016131408811     0.000813863585     2.636042450804
    C            0.003649584429    -1.208641133915     1.938202636504
    C           -0.025753706405    -1.210380583206     0.548448097932
    C           -0.050231935832     0.006376461432    -1.650745989352
    H           -0.095242762679     2.178638130422     0.047338583496
    H            0.014290205889     2.152078494424     2.482613108698
    H            0.045318717272    -0.000962224918     3.721576919169
    H            0.037541705977    -2.150457556153     2.477852384042
    H            0.035188143687    -2.168411727586     0.041276092398
    N           -0.280943789920    -1.104895973925    -2.348168987495
    N            0.292379449357     1.098954995217    -2.340479947091
    H            0.280565050985     1.127741546958    -3.355638649561
    H            0.677092489497     1.910020752449    -1.876451530320
    H           -0.681100260906    -1.922997513988    -1.906222774945
    H           -0.166613180613    -1.144192745686    -3.354448202278

gradient() will perform analytic gradient computation.

*** tstart() called on arancio.prib.upf.edu
*** at Sat Sep 29 20:40:34 2018

   => Loading Basis Set <=

    Name: 6-31G*
    Role: ORBITAL
    Keyword: BASIS
    atoms 1-7         entry C          line   111 file /shared/joao/test_parameterize/miniconda3/share/psi4/basis/6-31gs.gbs 
    atoms 8-12, 15-18 entry H          line    44 file /shared/joao/test_parameterize/miniconda3/share/psi4/basis/6-31gs.gbs 
    atoms 13-14       entry N          line   128 file /shared/joao/test_parameterize/miniconda3/share/psi4/basis/6-31gs.gbs 


         ---------------------------------------------------------
                                   SCF
            by Justin Turney, Rob Parrish, Andy Simmonett
                             and Daniel Smith
                              RKS Reference
                        4 Threads,   2861 MiB Core
         ---------------------------------------------------------

  ==> Geometry <==

    Molecular point group: c1
    Full point group: C1

    Geometry (in Angstrom), charge = 1, multiplicity = 1:

       Center              X                  Y                   Z               Mass       
    ------------   -----------------  -----------------  -----------------  -----------------
         C           -0.071508685692     0.005792940344    -0.171139834853    12.000000000000
         C           -0.034880531031     1.218316563677     0.550483707668    12.000000000000
         C            0.004118097174     1.212205710870     1.940461935185    12.000000000000
         C            0.016131408811     0.000813863585     2.636042450804    12.000000000000
         C            0.003649584429    -1.208641133915     1.938202636504    12.000000000000
         C           -0.025753706405    -1.210380583206     0.548448097932    12.000000000000
         C           -0.050231935832     0.006376461432    -1.650745989352    12.000000000000
         H           -0.095242762679     2.178638130422     0.047338583496     1.007825032070
         H            0.014290205889     2.152078494424     2.482613108698     1.007825032070
         H            0.045318717272    -0.000962224918     3.721576919169     1.007825032070
         H            0.037541705977    -2.150457556153     2.477852384042     1.007825032070
         H            0.035188143687    -2.168411727586     0.041276092398     1.007825032070
         N           -0.280943789920    -1.104895973925    -2.348168987495    14.003074004780
         N            0.292379449357     1.098954995217    -2.340479947091    14.003074004780
         H            0.280565050985     1.127741546958    -3.355638649561     1.007825032070
         H            0.677092489497     1.910020752449    -1.876451530320     1.007825032070
         H           -0.681100260906    -1.922997513988    -1.906222774945     1.007825032070
         H           -0.166613180613    -1.144192745686    -3.354448202278     1.007825032070

  Running in c1 symmetry.

  Rotational constants: A =      0.12315  B =      0.03952  C =      0.03018 [cm^-1]
  Rotational constants: A =   3691.99789  B =   1184.70359  C =    904.79490 [MHz]
  Nuclear repulsion =  415.581850676413296

  Charge       = 1
  Multiplicity = 1
  Electrons    = 64
  Nalpha       = 32
  Nbeta        = 32

  ==> Algorithm <==

  SCF Algorithm Type is DF.
  DIIS enabled.
  MOM disabled.
  Fractional occupation disabled.
  Guess Type is READ.
  Energy threshold   = 1.00e-08
  Density threshold  = 1.00e-08
  Integral threshold = 0.00e+00

  ==> Primary Basis <==

  Basis Set: 6-31G*
    Blend: 6-31G*
    Number of shells: 72
    Number of basis function: 153
    Number of Cartesian functions: 153
    Spherical Harmonics?: false
    Max angular momentum: 2

  ==> DFT Potential <==

   => Composite Functional: B3LYP-D3ZERO <= 

    B3LYP-d3zero Hyb-GGA Exchange-Correlation Functional

    P. J. Stephens, F. J. Devlin, C. F. Chabalowski, and M. J. Frisch, J. Phys. Chem. 98, 11623 (1994)

    Deriv               =              1
    GGA                 =           TRUE
    Meta                =          FALSE

    Exchange Hybrid     =           TRUE
    MP2 Hybrid          =          FALSE

   => Exchange Functionals <=

    0.0800   Slater exchange
    0.7200         Becke 88

   => Exact (HF) Exchange <=

    0.2000               HF 

   => Correlation Functionals <=

    0.1900   Vosko, Wilk & Nusair (VWN5_RPA)
    0.8100   Lee, Yang & Parr

   => Molecular Quadrature <=

    Radial Scheme       =       TREUTLER
    Pruning Scheme      =           FLAT
    Nuclear Scheme      =       TREUTLER

    BS radius alpha     =              1
    Pruning alpha       =              1
    Radial Points       =             75
    Spherical Points    =            302
    Total Points        =         396693
    Total Blocks        =           2964
    Max Points          =            256
    Max Functions       =            149

   => -D3ZERO: Empirical Dispersion <=

    Grimme's -D3 (zero-damping) Dispersion Correction
    Grimme S.; Antony J.; Ehrlich S.; Krieg H. (2010), J. Chem. Phys., 132: 154104

        S6 =   1.000000E+00
        S8 =   1.703000E+00
       SR6 =   1.261000E+00
       SR8 =   1.000000E+00
    ALPHA6 =   1.400000E+01

   => Loading Basis Set <=

    Name: (6-31G* AUX)
    Role: JKFIT
    Keyword: DF_BASIS_SCF
    atoms 1-7         entry C          line   121 file /shared/joao/test_parameterize/miniconda3/share/psi4/basis/cc-pvdz-jkfit.gbs 
    atoms 8-12, 15-18 entry H          line    51 file /shared/joao/test_parameterize/miniconda3/share/psi4/basis/cc-pvdz-jkfit.gbs 
    atoms 13-14       entry N          line   171 file /shared/joao/test_parameterize/miniconda3/share/psi4/basis/cc-pvdz-jkfit.gbs 

  Reading orbitals from file 180, no projection.

  ==> Pre-Iterations <==

   -------------------------------------------------------
    Irrep   Nso     Nmo     Nalpha   Nbeta   Ndocc  Nsocc
   -------------------------------------------------------
     A        153     153       0       0       0       0
   -------------------------------------------------------
    Total     153     153      32      32      32       0
   -------------------------------------------------------

  ==> Integral Setup <==

  ==> DiskDFJK: Density-Fitted J/K Matrices <==

    J tasked:                  Yes
    K tasked:                  Yes
    wK tasked:                  No
    OpenMP threads:              4
    Integrals threads:           4
    Memory (MB):              2002
    Algorithm:                Core
    Integral Cache:           NONE
    Schwarz Cutoff:          1E-12
    Fitting Condition:       1E-12

   => Auxiliary Basis Set <=

  Basis Set: (6-31G* AUX)
    Blend: CC-PVDZ-JKFIT
    Number of shells: 297
    Number of basis function: 954
    Number of Cartesian functions: 954
    Spherical Harmonics?: false
    Max angular momentum: 3

  Minimum eigenvalue in the overlap matrix is 4.8265098294E-04.
  Using Symmetric Orthogonalization.

  SCF Guess: Orbitals guess was supplied from a previous computation.

  ==> Iterations <==

                           Total Energy        Delta E     RMS |[F,P]|

   @DF-RKS iter   0:  -381.43093397008886   -3.81431e+02   2.34894e-03 
   @DF-RKS iter   1:  -381.46677668405954   -3.58427e-02   2.58493e-04 
   @DF-RKS iter   2:  -381.46662610554210    1.50579e-04   3.73455e-04 DIIS
   @DF-RKS iter   3:  -381.46705667285738   -4.30567e-04   8.07470e-05 DIIS
   @DF-RKS iter   4:  -381.46707425593871   -1.75831e-05   3.17434e-05 DIIS
   @DF-RKS iter   5:  -381.46707706313242   -2.80719e-06   9.92761e-06 DIIS
   @DF-RKS iter   6:  -381.46707733556963   -2.72437e-07   3.41692e-06 DIIS
   @DF-RKS iter   7:  -381.46707736637921   -3.08096e-08   8.46082e-07 DIIS
   @DF-RKS iter   8:  -381.46707736822896   -1.84974e-09   2.76431e-07 DIIS
   @DF-RKS iter   9:  -381.46707736844940   -2.20439e-10   8.46553e-08 DIIS
   @DF-RKS iter  10:  -381.46707736846730   -1.79057e-11   3.18628e-08 DIIS
   @DF-RKS iter  11:  -381.46707736847065   -3.35376e-12   1.00679e-08 DIIS
   @DF-RKS iter  12:  -381.46707736847094   -2.84217e-13   2.26668e-09 DIIS

  ==> Post-Iterations <==

    Orbital Energies [Eh]
    ---------------------

    Doubly Occupied:                                                      

       1A    -14.566048     2A    -14.565242     3A    -10.499308  
       4A    -10.379088     5A    -10.360400     6A    -10.359970  
       7A    -10.345628     8A    -10.342209     9A    -10.342159  
      10A     -1.182291    11A     -1.087048    12A     -1.015628  
      13A     -0.927246    14A     -0.904521    15A     -0.847135  
      16A     -0.785711    17A     -0.774194    18A     -0.737647  
      19A     -0.735724    20A     -0.685319    21A     -0.669610  
      22A     -0.629978    23A     -0.610725    24A     -0.596832  
      25A     -0.582009    26A     -0.575734    27A     -0.518011  
      28A     -0.508813    29A     -0.499969    30A     -0.470080  
      31A     -0.413242    32A     -0.407238  

    Virtual:                                                              

      33A     -0.224336    34A     -0.156480    35A     -0.118334  
      36A     -0.112771    37A     -0.073579    38A     -0.068993  
      39A     -0.038526    40A     -0.033118    41A      0.010691  
      42A      0.022464    43A      0.026089    44A      0.063889  
      45A      0.068839    46A      0.078958    47A      0.116815  
      48A      0.126621    49A      0.155510    50A      0.183279  
      51A      0.211629    52A      0.244995    53A      0.300541  
      54A      0.349817    55A      0.352143    56A      0.374907  
      57A      0.389855    58A      0.396833    59A      0.417232  
      60A      0.420401    61A      0.438942    62A      0.453743  
      63A      0.454677    64A      0.470187    65A      0.472673  
      66A      0.473831    67A      0.482974    68A      0.504627  
      69A      0.511894    70A      0.536251    71A      0.556516  
      72A      0.593299    73A      0.619813    74A      0.652286  
      75A      0.665201    76A      0.688467    77A      0.692021  
      78A      0.703268    79A      0.714717    80A      0.735914  
      81A      0.765358    82A      0.774701    83A      0.789209  
      84A      0.805309    85A      0.832623    86A      0.841195  
      87A      0.869571    88A      0.927482    89A      0.955852  
      90A      1.004656    91A      1.027710    92A      1.055231  
      93A      1.067544    94A      1.107247    95A      1.128962  
      96A      1.155950    97A      1.179667    98A      1.263762  
      99A      1.285833   100A      1.308840   101A      1.324170  
     102A      1.347025   103A      1.355467   104A      1.376183  
     105A      1.435418   106A      1.452325   107A      1.496431  
     108A      1.603524   109A      1.628895   110A      1.644985  
     111A      1.658315   112A      1.739079   113A      1.745401  
     114A      1.800319   115A      1.816576   116A      1.843844  
     117A      1.895644   118A      1.913915   119A      1.946972  
     120A      1.973013   121A      1.987039   122A      2.019024  
     123A      2.024770   124A      2.065848   125A      2.107923  
     126A      2.128590   127A      2.152900   128A      2.197793  
     129A      2.253795   130A      2.271597   131A      2.323176  
     132A      2.347293   133A      2.440300   134A      2.473606  
     135A      2.490284   136A      2.497165   137A      2.522659  
     138A      2.592433   139A      2.606027   140A      2.644435  
     141A      2.736315   142A      2.880971   143A      2.994997  
     144A      3.253635   145A      3.637121   146A      3.671158  
     147A      3.893321   148A      3.944988   149A      3.960870  
     150A      4.041004   151A      4.169828   152A      4.257199  
     153A      4.543834  

    Final Occupation by Irrep:
              A 
    DOCC [    32 ]

  Energy converged.

  @DF-RKS Final Energy:  -381.46707736847094

   => Energetics <=

    Nuclear Repulsion Energy =            415.5818506764132962
    One-Electron Energy =               -1326.3080518481956460
    Two-Electron Energy =                 573.6662442713551400
    DFT Exchange-Correlation Energy =     -44.3955122180437201
    Empirical Dispersion Energy =          -0.0116082500000000
    VV10 Nonlocal Energy =                  0.0000000000000000
    Total Energy =                       -381.4670773684709388



Properties will be evaluated at   0.000000,   0.000000,   0.000000 [a0]

Properties computed using the SCF density matrix

  Nuclear Dipole Moment: [e a0]
     X:    -1.3677      Y:     0.1640      Z:     0.3928

  Electronic Dipole Moment: [e a0]
     X:     1.4091      Y:    -0.1818      Z:    -2.5801

  Dipole Moment: [e a0]
     X:     0.0414      Y:    -0.0178      Z:    -2.1873     Total:     2.1878

  Dipole Moment: [D]
     X:     0.1053      Y:    -0.0452      Z:    -5.5596     Total:     5.5608


*** tstop() called on arancio.prib.upf.edu at Sat Sep 29 20:40:56 2018
Module time:
	user time   =      79.03 seconds =       1.32 minutes
	system time =       0.35 seconds =       0.01 minutes
	total time  =         22 seconds =       0.37 minutes
Total time:
	user time   =     196.07 seconds =       3.27 minutes
	system time =       1.07 seconds =       0.02 minutes
	total time  =         55 seconds =       0.92 minutes

*** tstart() called on arancio.prib.upf.edu
*** at Sat Sep 29 20:40:56 2018


         ------------------------------------------------------------
                                   SCF GRAD                          
                          Rob Parrish, Justin Turney,                
                       Andy Simmonett, and Alex Sokolov              
         ------------------------------------------------------------

  ==> Geometry <==

    Molecular point group: c1
    Full point group: C1

    Geometry (in Angstrom), charge = 1, multiplicity = 1:

       Center              X                  Y                   Z               Mass       
    ------------   -----------------  -----------------  -----------------  -----------------
         C           -0.071508685692     0.005792940344    -0.171139834853    12.000000000000
         C           -0.034880531031     1.218316563677     0.550483707668    12.000000000000
         C            0.004118097174     1.212205710870     1.940461935185    12.000000000000
         C            0.016131408811     0.000813863585     2.636042450804    12.000000000000
         C            0.003649584429    -1.208641133915     1.938202636504    12.000000000000
         C           -0.025753706405    -1.210380583206     0.548448097932    12.000000000000
         C           -0.050231935832     0.006376461432    -1.650745989352    12.000000000000
         H           -0.095242762679     2.178638130422     0.047338583496     1.007825032070
         H            0.014290205889     2.152078494424     2.482613108698     1.007825032070
         H            0.045318717272    -0.000962224918     3.721576919169     1.007825032070
         H            0.037541705977    -2.150457556153     2.477852384042     1.007825032070
         H            0.035188143687    -2.168411727586     0.041276092398     1.007825032070
         N           -0.280943789920    -1.104895973925    -2.348168987495    14.003074004780
         N            0.292379449357     1.098954995217    -2.340479947091    14.003074004780
         H            0.280565050985     1.127741546958    -3.355638649561     1.007825032070
         H            0.677092489497     1.910020752449    -1.876451530320     1.007825032070
         H           -0.681100260906    -1.922997513988    -1.906222774945     1.007825032070
         H           -0.166613180613    -1.144192745686    -3.354448202278     1.007825032070

  Nuclear repulsion =  415.581850676413296

  ==> Basis Set <==

  Basis Set: 6-31G*
    Blend: 6-31G*
    Number of shells: 72
    Number of basis function: 153
    Number of Cartesian functions: 153
    Spherical Harmonics?: false
    Max angular momentum: 2

  ==> DFJKGrad: Density-Fitted SCF Gradients <==

    Gradient:                    1
    J tasked:                  Yes
    K tasked:                  Yes
    wK tasked:                  No
    OpenMP threads:              4
    Integrals threads:           4
    Memory (MB):              2002
    Schwarz Cutoff:          0E+00
    Fitting Condition:       1E-12

   => Auxiliary Basis Set <=

  Basis Set: (6-31G* AUX)
    Blend: CC-PVDZ-JKFIT
    Number of shells: 297
    Number of basis function: 954
    Number of Cartesian functions: 954
    Spherical Harmonics?: false
    Max angular momentum: 3

  ==> DFT Potential <==

   => Composite Functional: B3LYP-D3ZERO <= 

    B3LYP-d3zero Hyb-GGA Exchange-Correlation Functional

    P. J. Stephens, F. J. Devlin, C. F. Chabalowski, and M. J. Frisch, J. Phys. Chem. 98, 11623 (1994)

    Deriv               =              1
    GGA                 =           TRUE
    Meta                =          FALSE

    Exchange Hybrid     =           TRUE
    MP2 Hybrid          =          FALSE

   => Exchange Functionals <=

    0.0800   Slater exchange
    0.7200         Becke 88

   => Exact (HF) Exchange <=

    0.2000               HF 

   => Correlation Functionals <=

    0.1900   Vosko, Wilk & Nusair (VWN5_RPA)
    0.8100   Lee, Yang & Parr

   => Molecular Quadrature <=

    Radial Scheme       =       TREUTLER
    Pruning Scheme      =           FLAT
    Nuclear Scheme      =       TREUTLER

    BS radius alpha     =              1
    Pruning alpha       =              1
    Radial Points       =             75
    Spherical Points    =            302
    Total Points        =         396693
    Total Blocks        =           2964
    Max Points          =            256
    Max Functions       =            149


  -Total Gradient:
     Atom            X                  Y                   Z
    ------   -----------------  -----------------  -----------------
       1       -0.004252090218     0.000386101811     0.002447836104
       2        0.004541099445    -0.000123227321     0.001655087809
       3        0.000230264841     0.000259347843     0.000410392550
       4       -0.000260465517    -0.000331099802    -0.001090311397
       5       -0.000357178001     0.000161728412     0.000307830978
       6        0.000401943319    -0.000672162815     0.002981036613
       7       -0.009717611122    -0.000764730965    -0.000106728903
       8        0.000288855307     0.000155657053     0.001118413857
       9       -0.000109146868    -0.000127809234     0.000347428821
      10        0.000113654255    -0.000113019107     0.000180385613
      11        0.000041931911    -0.000397518310     0.000702457605
      12        0.000547343887    -0.000300474817     0.001190571390
      13        0.006099513162     0.002922522204    -0.003563022720
      14        0.001010914735    -0.000553638611    -0.003184383598
      15        0.000424622750     0.000538925840    -0.002804553100
      16        0.000569077169     0.000254441923    -0.000503299110
      17       -0.000041092581    -0.001421993802     0.000853939333
      18        0.000466469987     0.000130747788    -0.000954357735


*** tstop() called on arancio.prib.upf.edu at Sat Sep 29 20:41:03 2018
Module time:
	user time   =      26.31 seconds =       0.44 minutes
	system time =       0.16 seconds =       0.00 minutes
	total time  =          7 seconds =       0.12 minutes
Total time:
	user time   =     222.43 seconds =       3.71 minutes
	system time =       1.24 seconds =       0.02 minutes
	total time  =         62 seconds =       1.03 minutes

			-----------------------------------------
			 OPTKING 2.0: for geometry optimizations 
			  - R.A. King,  Bethel University        
			-----------------------------------------
	At level 1: Red. Int., RFO, no backsteps, dynamic trust

	Previous internal coordinate definitions found.
	---Fragment 1 Geometry and Gradient---
	 C          -0.1351318321        0.0109470708       -0.3234074183
	 C          -0.0659146510        2.3022846485        1.0402634481
	 C           0.0077820758        2.2907368103        3.6669416288
	 C           0.0304839448        0.0015379793        4.9813983067
	 C           0.0068967151       -2.2840007360        3.6626721730
	 C          -0.0486674520       -2.2872878188        1.0364167032
	 C          -0.0949246018        0.0120497658       -3.1194578348
	 H          -0.1799827376        4.1170294092        0.0894569583
	 H           0.0270045755        4.0668389709        4.6914588694
	 H           0.0856399643       -0.0018183416        7.0327611597
	 H           0.0709435429       -4.0637758415        4.6824624036
	 H           0.0664959547       -4.0977043085        0.0780005105
	 N          -0.5309068217       -2.0879507960       -4.4373963001
	 N           0.5525170862        2.0767239733       -4.4228661195
	 H           0.5301911088        2.1311226724       -6.3412380486
	 H           1.2795193718        3.6094161303       -3.5459794939
	 H          -1.2870929621       -3.6339386557       -3.6022389929
	 H          -0.3148532815       -2.1622109326       -6.3389884293
	            -0.0042520902        0.0003861018        0.0024478361
	             0.0045410994       -0.0001232273        0.0016550878
	             0.0002302648        0.0002593478        0.0004103925
	            -0.0002604655       -0.0003310998       -0.0010903114
	            -0.0003571780        0.0001617284        0.0003078310
	             0.0004019433       -0.0006721628        0.0029810366
	            -0.0097176111       -0.0007647310       -0.0001067289
	             0.0002888553        0.0001556571        0.0011184139
	            -0.0001091469       -0.0001278092        0.0003474288
	             0.0001136543       -0.0001130191        0.0001803856
	             0.0000419319       -0.0003975183        0.0007024576
	             0.0005473439       -0.0003004748        0.0011905714
	             0.0060995132        0.0029225222       -0.0035630227
	             0.0010109147       -0.0005536386       -0.0031843836
	             0.0004246227        0.0005389258       -0.0028045531
	             0.0005690772        0.0002544419       -0.0005032991
	            -0.0000410926       -0.0014219938        0.0008539393
	             0.0004664700        0.0001307478       -0.0009543577

	---Fragment 1 Intrafragment Coordinates---
	 - Coordinate -           - BOHR/RAD -       - ANG/DEG -
	 R(1,2)           =         2.667324	       1.411487
	 R(1,6)           =         2.671794	       1.413852
	 R(1,7)           =         2.796340	       1.479759
	 R(2,3)           =         2.627737	       1.390539
	 R(2,8)           =         2.051912	       1.085825
	 R(3,4)           =         2.639838	       1.396942
	 R(3,9)           =         2.050498	       1.085077
	 R(4,5)           =         2.638803	       1.396394
	 R(4,10)          =         2.052107	       1.085928
	 R(5,6)           =         2.626845	       1.390067
	 R(5,11)          =         2.052236	       1.085997
	 R(6,12)          =         2.051690	       1.085708
	 R(7,13)          =         2.517349	       1.332124
	 R(7,14)          =         2.526051	       1.336729
	 R(13,17)         =         1.912952	       1.012290
	 R(13,18)         =         1.915267	       1.013515
	 R(14,15)         =         1.919273	       1.015635
	 R(14,16)         =         1.909609	       1.010522
	 B(1,2,3)         =         2.103654	     120.530514
	 B(1,2,8)         =         2.119293	     121.426558
	 B(1,6,5)         =         2.104179	     120.560600
	 B(1,6,12)        =         2.121274	     121.540045
	 B(1,7,13)        =         2.118431	     121.377132
	 B(1,7,14)        =         2.117578	     121.328278
	 B(2,1,6)         =         2.069046	     118.547619
	 B(2,1,7)         =         2.106546	     120.696194
	 B(2,3,4)         =         2.096454	     120.117983
	 B(2,3,9)         =         2.089665	     119.728987
	 B(3,2,8)         =         2.058541	     117.945718
	 B(3,4,5)         =         2.096900	     120.143541
	 B(3,4,10)        =         2.093702	     119.960297
	 B(4,3,9)         =         2.097008	     120.149709
	 B(4,5,6)         =         2.095440	     120.059874
	 B(4,5,11)        =         2.097316	     120.167346
	 B(5,4,10)        =         2.092533	     119.893307
	 B(5,6,12)        =         2.056631	     117.836300
	 B(6,1,7)         =         2.104560	     120.582384
	 B(6,5,11)        =         2.090220	     119.760787
	 B(7,13,17)       =         2.110728	     120.935799
	 B(7,13,18)       =         2.132480	     122.182106
	 B(7,14,15)       =         2.136404	     122.406961
	 B(7,14,16)       =         2.113744	     121.108629
	 B(13,7,14)       =         2.044397	     117.135333
	 B(15,14,16)      =         2.027131	     116.146057
	 B(17,13,18)      =         2.033893	     116.533467
	 D(1,2,3,4)       =         0.007262	       0.416108
	 D(1,2,3,9)       =        -3.122778	    -178.921993
	 D(1,6,5,4)       =        -0.023186	      -1.328469
	 D(1,6,5,11)      =         3.140354	     179.929058
	 D(1,7,13,17)     =         0.246324	      14.113323
	 D(1,7,13,18)     =        -3.017716	    -172.902416
	 D(1,7,14,15)     =        -3.102474	    -177.758683
	 D(1,7,14,16)     =         0.160213	       9.179506
	 D(2,1,6,5)       =         0.041731	       2.391015
	 D(2,1,6,12)      =        -3.048365	    -174.658434
	*D(2,1,7,13)      =        -2.967060	    -170.000026
	 D(2,1,7,14)      =         0.256890	      14.718695
	 D(2,3,4,5)       =         0.012107	       0.693702
	 D(2,3,4,10)      =        -3.140224	    -179.921584
	 D(3,2,1,6)       =        -0.033736	      -1.932921
	 D(3,2,1,7)       =        -3.092187	    -177.169268
	 D(3,4,5,6)       =        -0.004132	      -0.236744
	 D(3,4,5,11)      =         3.115423	     178.500573
	 D(4,3,2,8)       =         3.087174	     176.882056
	 D(4,5,6,12)      =         3.068775	     175.827877
	 D(5,4,3,9)       =        -3.141087	    -179.971002
	 D(5,6,1,7)       =         3.100280	     177.632976
	 D(6,1,2,8)       =        -3.111470	    -178.274112
	 D(6,1,7,13)      =         0.259370	      14.860812
	 D(6,1,7,14)      =        -2.799865	    -160.420466
	 D(6,5,4,10)      =        -3.134993	    -179.621872
	 D(7,1,2,8)       =         0.113264	       6.489541
	 D(7,1,6,12)      =         0.010184	       0.583527
	 D(8,2,3,9)       =        -0.042866	      -2.456045
	 D(9,3,4,10)      =        -0.010233	      -0.586288
	 D(10,4,5,11)     =        -0.015438	      -0.884555
	 D(11,5,6,12)     =        -0.050869	      -2.914595
	 D(13,7,14,15)    =         0.118121	       6.767828
	 D(13,7,14,16)    =        -2.902378	    -166.293982
	 D(14,7,13,17)    =        -2.974312	    -170.415546
	 D(14,7,13,18)    =         0.044833	       2.568716

	Current energy   :      -381.4670773685

	Energy change for the previous step:
		Projected    :        -0.0037346453
		Actual       :        -0.0009352166

	Performing BFGS update.
	Previous computed or guess Hessian on step 1.
	Steps to be used in Hessian update: 1
	Taking RFO optimization step.
	Going to follow RFO solution 1.
	Using RFO vector 1.
	Norm of target step-size    0.08068
	Projected energy change by RFO approximation:        -0.0015127303

	Back-transformation to cartesian coordinates...
	Could not converge backtransformation.
	Using first guess instead.

	Back-transformation to cartesian coordinates to adjust frozen coordinates...
	Successfully converged to displaced geometry.

	--- Internal Coordinate Step in ANG or DEG, aJ/ANG or AJ/DEG ---
	 ---------------------------------------------------------------------------
	   Coordinate                Previous        Force       Change         New 
	   ----------                --------       ------       ------       ------
	    1 R(1,2)          =      1.411487    -0.022188    -0.002151     1.409336
	    2 R(1,6)          =      1.413852    -0.036106    -0.004197     1.409655
	    3 R(1,7)          =      1.479759    -0.084367    -0.009653     1.470106
	    4 R(2,3)          =      1.390539    -0.005081    -0.000714     1.389824
	    5 R(2,8)          =      1.085825     0.003271    -0.000031     1.085794
	    6 R(3,4)          =      1.396942     0.006328     0.000429     1.397371
	    7 R(3,9)          =      1.085077    -0.000511    -0.000052     1.085025
	    8 R(4,5)          =      1.396394     0.012097     0.001138     1.397532
	    9 R(4,10)         =      1.085928    -0.001517    -0.000301     1.085628
	   10 R(5,6)          =      1.390067    -0.001906    -0.000294     1.389773
	   11 R(5,11)         =      1.085997    -0.005730    -0.000962     1.085035
	   12 R(6,12)         =      1.085708     0.002146    -0.000124     1.085584
	   13 R(7,13)         =      1.332124     0.004723     0.000297     1.332420
	   14 R(7,14)         =      1.336729    -0.033434    -0.003608     1.333121
	   15 R(13,17)        =      1.012290    -0.012677    -0.002146     1.010144
	   16 R(13,18)        =      1.013515    -0.008193    -0.001072     1.012443
	   17 R(14,15)        =      1.015635    -0.023175    -0.003109     1.012526
	   18 R(14,16)        =      1.010522    -0.001564    -0.000420     1.010102
	   19 B(1,2,3)        =    120.530514    -0.000090    -0.175278   120.355236
	   20 B(1,2,8)        =    121.426558    -0.000039    -0.112167   121.314391
	   21 B(1,6,5)        =    120.560600    -0.000119    -0.253193   120.307407
	   22 B(1,6,12)       =    121.540045    -0.000034    -0.131568   121.408477
	   23 B(1,7,13)       =    121.377132    -0.000285    -0.508186   120.868945
	   24 B(1,7,14)       =    121.328278    -0.000361    -0.661733   120.666545
	   25 B(2,1,6)        =    118.547619     0.000282     0.469493   119.017111
	   26 B(2,1,7)        =    120.696194    -0.000131    -0.255049   120.441144
	   27 B(2,3,4)        =    120.117983    -0.000040    -0.057022   120.060961
	   28 B(2,3,9)        =    119.728987    -0.000008    -0.059201   119.669785
	   29 B(3,2,8)        =    117.945718     0.000129     0.285213   118.230931
	   30 B(3,4,5)        =    120.143541    -0.000027    -0.010574   120.132967
	   31 B(3,4,10)       =    119.960297     0.000005    -0.031353   119.928944
	   32 B(4,3,9)        =    120.149709     0.000048     0.117854   120.267563
	   33 B(4,5,6)        =    120.059874    -0.000006     0.035818   120.095692
	   34 B(4,5,11)       =    120.167346     0.000035     0.087443   120.254789
	   35 B(5,4,10)       =    119.893307     0.000022     0.043640   119.936947
	   36 B(5,6,12)       =    117.836300     0.000153     0.385982   118.222283
	   37 B(6,1,7)        =    120.582384    -0.000152    -0.261898   120.320485
	   38 B(6,5,11)       =    119.760787    -0.000029    -0.120378   119.640409
	   39 B(7,13,17)      =    120.935799    -0.000009    -0.019518   120.916281
	   40 B(7,13,18)      =    122.182106     0.000021    -0.004878   122.177228
	   41 B(7,14,15)      =    122.406961    -0.000026    -0.150072   122.256889
	   42 B(7,14,16)      =    121.108629    -0.000029    -0.048487   121.060143
	   43 B(13,7,14)      =    117.135333     0.000650     1.263535   118.398867
	   44 B(15,14,16)     =    116.146057     0.000059     0.269828   116.415885
	   45 B(17,13,18)     =    116.533467    -0.000017    -0.141502   116.391965
	   46 D(1,2,3,4)      =      0.416108     0.000001     0.056284     0.472392
	   47 D(1,2,3,9)      =   -178.921993    -0.000001    -0.133881  -179.055874
	   48 D(1,6,5,4)      =     -1.328469     0.000003     0.170941    -1.157529
	   49 D(1,6,5,11)     =    179.929058     0.000001     0.008450   179.937508
	   50 D(1,7,13,17)    =     14.113323     0.000004     0.154151    14.267474
	   51 D(1,7,13,18)    =   -172.902416    -0.000009    -1.356805  -174.259221
	   52 D(1,7,14,15)    =   -177.758683     0.000009     1.080576  -176.678107
	   53 D(1,7,14,16)    =      9.179506    -0.000001     0.292969     9.472475
	   54 D(2,1,6,5)      =      2.391015    -0.000003    -0.289430     2.101585
	   55 D(2,1,6,12)     =   -174.658434    -0.000004    -0.329209  -174.987643
	   56 *D(2,1,7,13)    =   -170.000026    -0.000000    -0.000000  -170.000026
	   57 D(2,1,7,14)     =     14.718695    -0.000021    -1.725150    12.993546
	   58 D(2,3,4,5)      =      0.693702    -0.000002    -0.192616     0.501086
	   59 D(2,3,4,10)     =   -179.921584    -0.000000     0.033764  -179.887821
	   60 D(3,2,1,6)      =     -1.932921     0.000001     0.173901    -1.759021
	   61 D(3,2,1,7)      =   -177.169268     0.000006     0.797101  -176.372167
	   62 D(3,4,5,6)      =     -0.236744     0.000001     0.079122    -0.157622
	   63 D(3,4,5,11)     =    178.500573     0.000002     0.239981   178.740554
	   64 D(4,3,2,8)      =    176.882056    -0.000000     0.012279   176.894336
	   65 D(4,5,6,12)     =    175.827877     0.000003     0.195225   176.023103
	   66 D(5,4,3,9)      =   -179.971002    -0.000001    -0.002492  -179.973494
	   67 D(5,6,1,7)      =    177.632976    -0.000008    -0.911579   176.721397
	   68 D(6,1,2,8)      =   -178.274112     0.000000     0.205208  -178.068905
	   69 D(6,1,7,13)     =     14.860812     0.000000     0.596494    15.457306
	   70 D(6,1,7,14)     =   -160.420466    -0.000021    -1.128656  -161.549122
	   71 D(6,5,4,10)     =   -179.621872    -0.000002    -0.146812  -179.768684
	   72 D(7,1,2,8)      =      6.489541     0.000005     0.828408     7.317950
	   73 D(7,1,6,12)     =      0.583527    -0.000009    -0.951358    -0.367832
	   74 D(8,2,3,9)      =     -2.456045    -0.000002    -0.177886    -2.633931
	   75 D(9,3,4,10)     =     -0.586288     0.000002     0.223887    -0.362401
	   76 D(10,4,5,11)    =     -0.884555    -0.000000     0.014047    -0.870508
	   77 D(11,5,6,12)    =     -2.914595     0.000001     0.032735    -2.881860
	   78 D(13,7,14,15)   =      6.767828    -0.000002    -0.524963     6.242865
	   79 D(13,7,14,16)   =   -166.293982    -0.000012    -1.312571  -167.606553
	   80 D(14,7,13,17)   =   -170.415546     0.000014     1.755893  -168.659653
	   81 D(14,7,13,18)   =      2.568716     0.000001     0.244937     2.813653
	 ---------------------------------------------------------------------------
	Successfully symmetrized geometry.

  ==> Convergence Check <==

  Measures of convergence in internal coordinates in au.
  Criteria marked as inactive (o), active & met (*), and active & unmet ( ).
  ---------------------------------------------------------------------------------------------
   Step     Total Energy     Delta E     MAX Force     RMS Force      MAX Disp      RMS Disp   
  ---------------------------------------------------------------------------------------------
    Convergence Criteria    1.00e-06 *    3.00e-04 *             o    1.20e-03 *             o
  ---------------------------------------------------------------------------------------------
      2    -381.46707737   -9.35e-04      1.02e-02      1.96e-03 o    3.06e-02      8.97e-03 o  ~
  ---------------------------------------------------------------------------------------------

	Writing optimization data to binary file.
	Structure for next step:
	Cartesian Geometry (in Angstrom)
	    C    -0.0721451993   0.0025573765  -0.1757091929
	    C    -0.0331730285   1.2169369510   0.5384268285
	    C     0.0074043439   1.2137941102   1.9276552240
	    C     0.0197295194   0.0028260295   2.6248288149
	    C     0.0018820568  -1.2082767939   1.9276867095
	    C    -0.0315007717  -1.2122007826   0.5383205417
	    C    -0.0348992761   0.0011954430  -1.6453424732
	    H    -0.0935668157   2.1736507742   0.0285257122
	    H     0.0216493623   2.1553459820   2.4666874362
	    H     0.0496009234   0.0028837887   3.7100453827
	    H     0.0319979807  -2.1496559221   2.4663883386
	    H     0.0216876969  -2.1679321579   0.0262261384
	    N    -0.2687868929  -1.1151689724  -2.3340882870
	    N     0.2922550586   1.1045504382  -2.3182382131
	    H     0.2779071594   1.1447883541  -3.3298629522
	    H     0.6562594142   1.9171615889  -1.8413008069
	    H    -0.6810996063  -1.9228185764  -1.8890128434
	    H    -0.1652019249  -1.1596376308  -3.3402363581
			--------------------------
			 OPTKING Finished Execution 
			--------------------------

    Structure for next step:
    Molecular point group: c1
    Full point group: C1

    Geometry (in Angstrom), charge = 1, multiplicity = 1:

    C           -0.072145199259     0.002557376549    -0.175709192934
    C           -0.033173028525     1.216936951033     0.538426828461
    C            0.007404343879     1.213794110170     1.927655224044
    C            0.019729519382     0.002826029543     2.624828814870
    C            0.001882056760    -1.208276793936     1.927686709532
    C           -0.031500771681    -1.212200782564     0.538320541690
    C           -0.034899276104     0.001195442968    -1.645342473205
    H           -0.093566815748     2.173650774156     0.028525712153
    H            0.021649362261     2.155345981971     2.466687436207
    H            0.049600923362     0.002883788664     3.710045382724
    H            0.031997980723    -2.149655922079     2.466388338588
    H            0.021687696862    -2.167932157910     0.026226138352
    N           -0.268786892883    -1.115168972446    -2.334088286972
    N            0.292255058569     1.104550438177    -2.318238213068
    H            0.277907159440     1.144788354141    -3.329862952157
    H            0.656259414172     1.917161588859    -1.841300806860
    H           -0.681099606309    -1.922818576445    -1.889012843355
    H           -0.165201924900    -1.159637630848    -3.340236358070

gradient() will perform analytic gradient computation.

*** tstart() called on arancio.prib.upf.edu
*** at Sat Sep 29 20:41:03 2018

   => Loading Basis Set <=

    Name: 6-31G*
    Role: ORBITAL
    Keyword: BASIS
    atoms 1-7         entry C          line   111 file /shared/joao/test_parameterize/miniconda3/share/psi4/basis/6-31gs.gbs 
    atoms 8-12, 15-18 entry H          line    44 file /shared/joao/test_parameterize/miniconda3/share/psi4/basis/6-31gs.gbs 
    atoms 13-14       entry N          line   128 file /shared/joao/test_parameterize/miniconda3/share/psi4/basis/6-31gs.gbs 


         ---------------------------------------------------------
                                   SCF
            by Justin Turney, Rob Parrish, Andy Simmonett
                             and Daniel Smith
                              RKS Reference
                        4 Threads,   2861 MiB Core
         ---------------------------------------------------------

  ==> Geometry <==

    Molecular point group: c1
    Full point group: C1

    Geometry (in Angstrom), charge = 1, multiplicity = 1:

[...]
	            -0.0000012522        0.0000016061       -0.0000034149
	            -0.0000011285        0.0000011634       -0.0000009873
	            -0.0000022263       -0.0000020959       -0.0000042672
	            -0.0000019387       -0.0000015763        0.0000027809
	             0.0050632336       -0.0011224443        0.0001217226
	             0.0000309990       -0.0000148315       -0.0000102157
	            -0.0000044431        0.0000025149        0.0000005840
	            -0.0000096185        0.0000053289        0.0000103537
	             0.0000000185        0.0000008940       -0.0000010551
	            -0.0000047507       -0.0000027107       -0.0000001797

	---Fragment 1 Intrafragment Coordinates---
	 - Coordinate -           - BOHR/RAD -       - ANG/DEG -
	 R(1,2)           =         2.663716	       1.409578
	 R(1,6)           =         2.663648	       1.409542
	 R(1,7)           =         2.774781	       1.468351
	 R(2,3)           =         2.626285	       1.389770
	 R(2,8)           =         2.052453	       1.086111
	 R(3,4)           =         2.641583	       1.397865
	 R(3,9)           =         2.050389	       1.085019
	 R(4,5)           =         2.640902	       1.397505
	 R(4,10)          =         2.051483	       1.085598
	 R(5,6)           =         2.627034	       1.390166
	 R(5,11)          =         2.050422	       1.085037
	 R(6,12)          =         2.051456	       1.085584
	 R(7,13)          =         2.519469	       1.333246
	 R(7,14)          =         2.517365	       1.332132
	 R(13,17)         =         1.909384	       1.010402
	 R(13,18)         =         1.913684	       1.012678
	 R(14,15)         =         1.913515	       1.012589
	 R(14,16)         =         1.908690	       1.010035
	 B(1,2,3)         =         2.100272	     120.336707
	 B(1,2,8)         =         2.115007	     121.180952
	 B(1,6,5)         =         2.099547	     120.295177
	 B(1,6,12)        =         2.116917	     121.290384
	 B(1,7,13)        =         2.107351	     120.742327
	 B(1,7,14)        =         2.106621	     120.700502
	 B(2,1,6)         =         2.077802	     119.049265
	 B(2,1,7)         =         2.103090	     120.498165
	 B(2,3,4)         =         2.095583	     120.068075
	 B(2,3,9)         =         2.088385	     119.655638
	 B(3,2,8)         =         2.065782	     118.360585
	 B(3,4,5)         =         2.096678	     120.130784
	 B(3,4,10)        =         2.093156	     119.929025
	 B(4,3,9)         =         2.099184	     120.274407
	 B(4,5,6)         =         2.096090	     120.097122
	 B(4,5,11)        =         2.099018	     120.264891
	 B(5,4,10)        =         2.093339	     119.939470
	 B(5,6,12)        =         2.065618	     118.351189
	 B(6,1,7)         =         2.098707	     120.247040
	 B(6,5,11)        =         2.087917	     119.628847
	 B(7,13,17)       =         2.106182	     120.675331
	 B(7,13,18)       =         2.131314	     122.115292
	 B(7,14,15)       =         2.134479	     122.296616
	 B(7,14,16)       =         2.110276	     120.909886
	 B(13,7,14)       =         2.067590	     118.464155
	 B(15,14,16)      =         2.033086	     116.487232
	 B(17,13,18)      =         2.029012	     116.253839
	 D(1,2,3,4)       =         0.008765	       0.502182
	 D(1,2,3,9)       =        -3.124148	    -179.000475
	 D(1,6,5,4)       =        -0.018343	      -1.051004
	 D(1,6,5,11)      =        -3.140794	    -179.954248
	 D(1,7,13,17)     =         0.285886	      16.380033
	 D(1,7,13,18)     =        -3.058275	    -175.226226
	 D(1,7,14,15)     =        -3.086177	    -176.824897
	 D(1,7,14,16)     =         0.170265	       9.755494
	 D(2,1,6,5)       =         0.031889	       1.827115
	 D(2,1,6,12)      =        -3.058389	    -175.232810
	*D(2,1,7,13)      =        -2.967060	    -170.000026
	 D(2,1,7,14)      =         0.236677	      13.560601
	 D(2,3,4,5)       =         0.005213	       0.298675
	 D(2,3,4,10)      =         3.141412	     179.989630
	 D(3,2,1,6)       =        -0.027101	      -1.552790
	 D(3,2,1,7)       =        -3.078003	    -176.356590
	 D(3,4,5,6)       =        -0.000411	      -0.023544
	 D(3,4,5,11)      =         3.121917	     178.872661
	 D(4,3,2,8)       =         3.081173	     176.538226
	 D(4,5,6,12)      =         3.073424	     176.094208
	 D(5,4,3,9)       =         3.138071	     179.798226
	 D(5,6,1,7)       =         3.083024	     176.644281
	 D(6,1,2,8)       =        -3.097530	    -177.475411
	 D(6,1,7,13)      =         0.266312	      15.258550
	 D(6,1,7,14)      =        -2.813136	    -161.180823
	 D(6,5,4,10)      =        -3.136609	    -179.714467
	 D(7,1,2,8)       =         0.134753	       7.720789
	 D(7,1,6,12)      =        -0.007254	      -0.415644
	 D(8,2,3,9)       =        -0.051739	      -2.964431
	 D(9,3,4,10)      =        -0.008915	      -0.510819
	 D(10,4,5,11)     =        -0.014281	      -0.818261
	 D(11,5,6,12)     =        -0.049027	      -2.809036
	 D(13,7,14,15)    =         0.116171	       6.656082
	 D(13,7,14,16)    =        -2.910573	    -166.763527
	 D(14,7,13,17)    =        -2.916488	    -167.102459
	 D(14,7,13,18)    =         0.022537	       1.291283

	Current energy   :      -381.4675267731

	Energy change for the previous step:
		Projected    :        -0.0000003202
		Actual       :        -0.0000000941

	Performing BFGS update.
	Previous computed or guess Hessian on step 1.
	Steps to be used in Hessian update: 6 5
	Taking RFO optimization step.
	Going to follow RFO solution 1.
	Rejecting RFO root 1 because normalization gives large value.
	Rejecting RFO root 2 because normalization gives large value.
	Rejecting RFO root 3 because normalization gives large value.
	Using RFO vector 4.
	Norm of target step-size    0.01085
	Projected energy change by RFO approximation:         0.0000007986

	Back-transformation to cartesian coordinates...
	Could not converge backtransformation.
	Using first guess instead.

	Back-transformation to cartesian coordinates to adjust frozen coordinates...
	Successfully converged to displaced geometry.

	--- Internal Coordinate Step in ANG or DEG, aJ/ANG or AJ/DEG ---
	 ---------------------------------------------------------------------------
	   Coordinate                Previous        Force       Change         New 
	   ----------                --------       ------       ------       ------
	    1 R(1,2)          =      1.409578    -0.000107    -0.000115     1.409463
	    2 R(1,6)          =      1.409542    -0.000023    -0.000065     1.409477
	    3 R(1,7)          =      1.468351     0.000007     0.000298     1.468649
	    4 R(2,3)          =      1.389770     0.000130     0.000053     1.389823
	    5 R(2,8)          =      1.086111    -0.000016    -0.000018     1.086093
	    6 R(3,4)          =      1.397865    -0.000016     0.000065     1.397931
	    7 R(3,9)          =      1.085019     0.000002     0.000003     1.085022
	    8 R(4,5)          =      1.397505     0.000051     0.000081     1.397586
	    9 R(4,10)         =      1.085598     0.000006     0.000011     1.085609
	   10 R(5,6)          =      1.390166     0.000007    -0.000024     1.390143
	   11 R(5,11)         =      1.085037     0.000001     0.000001     1.085038
	   12 R(6,12)         =      1.085584     0.000001    -0.000015     1.085569
	   13 R(7,13)         =      1.333246    -0.000104     0.000055     1.333300
	   14 R(7,14)         =      1.332132     0.000024     0.000025     1.332157
	   15 R(13,17)        =      1.010402     0.000008     0.000026     1.010429
	   16 R(13,18)        =      1.012678     0.000004     0.000010     1.012688
	   17 R(14,15)        =      1.012589     0.000006     0.000003     1.012592
	   18 R(14,16)        =      1.010035    -0.000046     0.000022     1.010057
	   19 B(1,2,3)        =    120.336707    -0.000000    -0.041095   120.295612
	   20 B(1,2,8)        =    121.180952     0.000001     0.027504   121.208456
	   21 B(1,6,5)        =    120.295177    -0.000000    -0.031580   120.263597
	   22 B(1,6,12)       =    121.290384    -0.000000    -0.009110   121.281274
	   23 B(1,7,13)       =    120.742327    -0.000000    -0.004471   120.737856
	   24 B(1,7,14)       =    120.700502     0.000001     0.024266   120.724768
	   25 B(2,1,6)        =    119.049265     0.000001     0.060759   119.110024
	   26 B(2,1,7)        =    120.498165     0.000000    -0.032709   120.465457
	   27 B(2,3,4)        =    120.068075     0.000000    -0.000513   120.067562
	   28 B(2,3,9)        =    119.655638     0.000000     0.009417   119.665055
	   29 B(3,2,8)        =    118.360585    -0.000000     0.008163   118.368748
	   30 B(3,4,5)        =    120.130784    -0.000000     0.018345   120.149129
	   31 B(3,4,10)       =    119.929025     0.000000    -0.008708   119.920317
	   32 B(4,3,9)        =    120.274407    -0.000000    -0.009191   120.265216
	   33 B(4,5,6)        =    120.097122    -0.000000    -0.007367   120.089754
	   34 B(4,5,11)       =    120.264891    -0.000000     0.001913   120.266805
	   35 B(5,4,10)       =    119.939470    -0.000000    -0.009197   119.930273
	   36 B(5,6,12)       =    118.351189     0.000000     0.041603   118.392791
	   37 B(6,1,7)        =    120.247040    -0.000001    -0.024995   120.222045
	   38 B(6,5,11)       =    119.628847     0.000000     0.006538   119.635384
	   39 B(7,13,17)      =    120.675331     0.000000    -0.021973   120.653358
	   40 B(7,13,18)      =    122.115292    -0.000000    -0.025062   122.090230
	   41 B(7,14,15)      =    122.296616    -0.000000    -0.009711   122.286905
	   42 B(7,14,16)      =    120.909886     0.000001     0.000353   120.910240
	   43 B(13,7,14)      =    118.464155    -0.000000    -0.024291   118.439864
	   44 B(15,14,16)     =    116.487232    -0.000000    -0.009972   116.477261
	   45 B(17,13,18)     =    116.253839     0.000000    -0.012544   116.241295
	   46 D(1,2,3,4)      =      0.502182     0.000000     0.070475     0.572658
	   47 D(1,2,3,9)      =   -179.000475     0.000000     0.107240  -178.893234
	   48 D(1,6,5,4)      =     -1.051004    -0.000000     0.038625    -1.012380
	   49 D(1,6,5,11)     =   -179.954248    -0.000000    -0.028444  -179.982692
	   50 D(1,7,13,17)    =     16.380033    -0.000000     0.289049    16.669081
	   51 D(1,7,13,18)    =   -175.226226    -0.000000    -0.064661  -175.290887
	   52 D(1,7,14,15)    =   -176.824897     0.000000    -0.054727  -176.879624
	   53 D(1,7,14,16)    =      9.755494     0.000000     0.149646     9.905140
	   54 D(2,1,6,5)      =      1.827115     0.000000     0.036784     1.863899
	   55 D(2,1,6,12)     =   -175.232810     0.000000     0.014325  -175.218486
	   56 *D(2,1,7,13)    =   -170.000026     0.000000    -0.000000  -170.000026
	   57 D(2,1,7,14)     =     13.560601    -0.000000     0.085819    13.646420
	   58 D(2,3,4,5)      =      0.298675     0.000000     0.004315     0.302990
	   59 D(2,3,4,10)     =    179.989630    -0.000000     0.120594   180.110225
	   60 D(3,2,1,6)      =     -1.552790    -0.000000    -0.091279    -1.644069
	   61 D(3,2,1,7)      =   -176.356590    -0.000000    -0.128717  -176.485307
	   62 D(3,4,5,6)      =     -0.023544    -0.000000    -0.058883    -0.082427
	   63 D(3,4,5,11)     =    178.872661    -0.000000     0.008663   178.881325
	   64 D(4,3,2,8)      =    176.538226     0.000000    -0.015613   176.522613
	   65 D(4,5,6,12)     =    176.094208    -0.000000     0.059046   176.153253
	   66 D(5,4,3,9)      =    179.798226     0.000000    -0.032579   179.765646
	   67 D(5,6,1,7)      =    176.644281     0.000000     0.073703   176.717984
	   68 D(6,1,2,8)      =   -177.475411    -0.000000    -0.001827  -177.477238
	   69 D(6,1,7,13)     =     15.258550     0.000000    -0.042306    15.216244
	   70 D(6,1,7,14)     =   -161.180823    -0.000000     0.043513  -161.137310
	   71 D(6,5,4,10)     =   -179.714467     0.000000    -0.175176  -179.889643
	   72 D(7,1,2,8)      =      7.720789    -0.000000    -0.039265     7.681525
	   73 D(7,1,6,12)     =     -0.415644     0.000000     0.051243    -0.364401
	   74 D(8,2,3,9)      =     -2.964431     0.000000     0.021152    -2.943279
	   75 D(9,3,4,10)     =     -0.510819     0.000000     0.083700    -0.427119
	   76 D(10,4,5,11)    =     -0.818261    -0.000000    -0.107630    -0.925891
	   77 D(11,5,6,12)    =     -2.809036     0.000000    -0.008023    -2.817059
	   78 D(13,7,14,15)   =      6.656082    -0.000000     0.028513     6.684595
	   79 D(13,7,14,16)   =   -166.763527     0.000000     0.232885  -166.530641
	   80 D(14,7,13,17)   =   -167.102459     0.000000     0.206836  -166.895622
	   81 D(14,7,13,18)   =      1.291283     0.000000    -0.146874     1.144409
	 ---------------------------------------------------------------------------
	Successfully symmetrized geometry.

  ==> Convergence Check <==

  Measures of convergence in internal coordinates in au.
  Criteria marked as inactive (o), active & met (*), and active & unmet ( ).
  ---------------------------------------------------------------------------------------------
   Step     Total Energy     Delta E     MAX Force     RMS Force      MAX Disp      RMS Disp   
  ---------------------------------------------------------------------------------------------
    Convergence Criteria    1.00e-06 *    3.00e-04 *             o    1.20e-03 *             o
  ---------------------------------------------------------------------------------------------
      7    -381.46752677   -9.41e-08 *    1.57e-05 *    5.54e-06 o    5.04e-03      1.21e-03 o  ~
  ---------------------------------------------------------------------------------------------


  **** Optimization is complete! (in 7 steps) ****

  ==> Optimization Summary <==

  Measures of convergence in internal coordinates in au.
  --------------------------------------------------------------------------------------------------------------- ~
   Step         Total Energy             Delta E       MAX Force       RMS Force        MAX Disp        RMS Disp  ~
  --------------------------------------------------------------------------------------------------------------- ~
      1    -381.466142151829   -381.466142151829      0.01280727      0.00273589      0.16719485      0.03288024  ~
      2    -381.467077368471     -0.000935216642      0.01024033      0.00196403      0.03064611      0.00896603  ~
      3    -381.467502442791     -0.000425074320      0.00103537      0.00024116      0.01734451      0.00429686  ~
      4    -381.467517559087     -0.000015116296      0.00062983      0.00016786      0.01431221      0.00251698  ~
      5    -381.467525357059     -0.000007797971      0.00035735      0.00006827      0.00675800      0.00143647  ~
      6    -381.467526679019     -0.000001321960      0.00009338      0.00001953      0.00134349      0.00030854  ~
      7    -381.467526773128     -0.000000094110      0.00001575      0.00000554      0.00504485      0.00120593  ~
  --------------------------------------------------------------------------------------------------------------- ~

	Writing optimization data to binary file.
	Final energy is   -381.4675267731285
	Final (previous) structure:
	Cartesian Geometry (in Angstrom)
	    C    -0.0710339656   0.0038974105  -0.1763040938
	    C    -0.0377605949   1.2182950097   0.5385676424
	    C     0.0031992794   1.2141887346   1.9277277828
	    C     0.0222176158   0.0023699415   2.6242629569
	    C     0.0064187277  -1.2082640819   1.9263118438
	    C    -0.0287681079  -1.2113384375   0.5365941540
	    C    -0.0339393774   0.0019946998  -1.6441852508
	    H    -0.1093716222   2.1738942633   0.0273539168
	    H     0.0121058211   2.1554702545   2.4673354902
	    H     0.0543864532   0.0017967829   3.7093841311
	    H     0.0395558302  -2.1500375428   2.4641494262
	    H     0.0247676648  -2.1655272738   0.0216667229
	    N    -0.2631690524  -1.1179540337  -2.3302704085
	    N     0.2985633398   1.1022680617  -2.3175471449
	    H     0.2864939078   1.1417705310  -3.3292928937
	    H     0.6706667483   1.9105112616  -1.8395799185
	    H    -0.7008160856  -1.9135369839  -1.8870707807
	    H    -0.1735165821  -1.1597985974  -3.3381035766
	Saving final (previous) structure.
	Removing binary optimization data file.
			--------------------------
			 OPTKING Finished Execution 
			--------------------------

    Final optimized geometry and variables:
    Molecular point group: c1
    Full point group: C1

    Geometry (in Angstrom), charge = 1, multiplicity = 1:

    C           -0.071033965599     0.003897410487    -0.176304093753
    C           -0.037760594852     1.218295009737     0.538567642434
    C            0.003199279389     1.214188734600     1.927727782828
    C            0.022217615820     0.002369941507     2.624262956868
    C            0.006418727656    -1.208264081897     1.926311843799
    C           -0.028768107856    -1.211338437520     0.536594154040
    C           -0.033939377436     0.001994699758    -1.644185250790
    H           -0.109371622189     2.173894263332     0.027353916845
    H            0.012105821063     2.155470254505     2.467335490239
    H            0.054386453167     0.001796782870     3.709384131120
    H            0.039555830187    -2.150037542795     2.464149426171
    H            0.024767664825    -2.165527273751     0.021666722948
    N           -0.263169052420    -1.117954033657    -2.330270408462
    N            0.298563339848     1.102268061667    -2.317547144908
    H            0.286493907782     1.141770530968    -3.329292893676
    H            0.670666748310     1.910511261569    -1.839579918489
    H           -0.700816085635    -1.913536983942    -1.887070780661
    H           -0.173516582058    -1.159798597439    -3.338103576554

	Removing binary optimization data file.
	Cleaning optimization helper files.


Properties will be evaluated at   0.000000,   0.000000,   0.000000 [a0]
OEProp: No title given, name of density matrix used for the following properties is 'SCF density'
  Nuclear Dipole Moment: [e a0]
     X:    -0.9183      Y:     0.0219      Z:     0.3004

  Electronic Dipole Moment: [e a0]
     X:     0.9300      Y:    -0.0199      Z:    -2.4710

  Dipole Moment: [e a0]
     X:     0.0116      Y:     0.0020      Z:    -2.1706     Total:     2.1707

  Dipole Moment: [D]
     X:     0.0295      Y:     0.0050      Z:    -5.5172     Total:     5.5173

  Quadrupole Moment: [D A]
    XX:   -53.7895     YY:   -33.9947     ZZ:   -12.6623
    XY:     3.8628     XZ:     0.0027     YZ:     0.1561

  Traceless Quadrupole Moment: [D A]
    XX:   -20.3074     YY:    -0.5125     ZZ:    20.8199
    XY:     3.8628     XZ:     0.0027     YZ:     0.1561

  Mulliken Charges: (a.u.)
   Center  Symbol    Alpha    Beta     Spin     Total
       1     C     2.93437  2.93437  0.00000  0.13126
       2     C     3.08874  3.08874  0.00000 -0.17748
       3     C     3.06166  3.06166  0.00000 -0.12332
       4     C     3.05128  3.05128  0.00000 -0.10256
       5     C     3.06108  3.06108  0.00000 -0.12215
       6     C     3.08494  3.08494  0.00000 -0.16988
       7     C     2.70845  2.70845  0.00000  0.58310
       8     H     0.41810  0.41810  0.00000  0.16380
       9     H     0.40500  0.40500  0.00000  0.19000
      10     H     0.40281  0.40281  0.00000  0.19437
      11     H     0.40497  0.40497  0.00000  0.19006
      12     H     0.41898  0.41898  0.00000  0.16204
      13     N     3.87293  3.87293  0.00000 -0.74587
      14     N     3.87288  3.87288  0.00000 -0.74576
      15     H     0.30595  0.30595  0.00000  0.38809
      16     H     0.30069  0.30069  0.00000  0.39861
      17     H     0.30110  0.30110  0.00000  0.39781
      18     H     0.30607  0.30607  0.00000  0.38786

   Total alpha = 32.00000, Total beta = 32.00000, Total charge =  1.00000


    Psi4 stopped on: Saturday, 29 September 2018 08:43PM
    Psi4 wall time for execution: 0:02:58.28

*** Psi4 exiting successfully. Buy a developer a beer!
