
    -----------------------------------------------------------------------
          Psi4: An Open-Source Ab Initio Electronic Structure Package
                               Psi4 1.2.1 release

                         Git: Rev {HEAD} 406f4de 


    R. M. Parrish, L. A. Burns, D. G. A. Smith, A. C. Simmonett,
    A. E. DePrince III, E. G. Hohenstein, U. Bozkaya, A. Yu. Sokolov,
    R. Di Remigio, R. M. Richard, J. F. Gonthier, A. M. James,
    H. R. McAlexander, A. Kumar, M. Saitow, X. Wang, B. P. Pritchard,
    P. Verma, H. F. Schaefer III, K. Patkowski, R. A. King, E. F. Valeev,
    F. A. Evangelista, J. M. Turney, T. D. Crawford, and C. D. Sherrill,
    J. Chem. Theory Comput. 13(7) pp 3185--3197 (2017).
    (doi: 10.1021/acs.jctc.7b00174)


                         Additional Contributions by
    P. Kraus, H. Kruse, M. H. Lechner, M. C. Schieber, and R. A. Shaw

    -----------------------------------------------------------------------


    Psi4 started on: Saturday, 29 September 2018 04:49PM

    Process ID: 4390
    Host:       loro.prib.upf.edu
    PSIDATADIR: /shared/joao/test_parameterize/miniconda3/share/psi4
    Memory:     500.0 MiB
    Threads:    1
    
  ==> Input File <==

--------------------------------------------------------------------------
set_num_threads(1)
set_memory('5348 MB')

set { scf_mem_safety_factor 0.7 }

set { reference rks }
set { basis cc-pVDZ }

molecule MOL {
    0 1
    noreorient
    nocom
    symmetry c1
    O    1.141000   0.017000   0.083000
    C    2.558000   0.086000  -0.005000
    C    3.192000  -0.789000   1.067000
    O    2.616270  -0.501592   2.335582
    H    0.789000   0.590000  -0.620000
    H    2.874000   1.128000   0.115000
    H    2.871000  -0.243000  -1.001000
    H    4.271290  -0.613522   1.114728
    H    3.037049  -1.848956   0.836001
    H    3.055361  -1.084874   2.978908
}

set optking { frozen_dihedral = (" 1 2 3 4 ") }

energy, wfn = energy('B3LYP-D3', return_wfn=True)

import os
os.chdir(os.environ['HTMD_PSI4_WORKDIR'])

oeprop(wfn, 'DIPOLE', 'QUADRUPOLE', 'MULLIKEN_CHARGES')

with open('psi4out.xyz', 'w') as f:
    f.write('10 ' )
    f.write('%.12f\n' % energy)
    f.write(MOL.save_string_xyz())
--------------------------------------------------------------------------
  Threads set to 1 by Python driver.

  Memory set to   4.981 GiB by Python driver.

*** tstart() called on loro.prib.upf.edu
*** at Sat Sep 29 16:49:33 2018

   => Loading Basis Set <=

    Name: CC-PVDZ
    Role: ORBITAL
    Keyword: BASIS
    atoms 1, 4 entry O          line   198 file /shared/joao/test_parameterize/miniconda3/share/psi4/basis/cc-pvdz.gbs 
    atoms 2-3  entry C          line   138 file /shared/joao/test_parameterize/miniconda3/share/psi4/basis/cc-pvdz.gbs 
    atoms 5-10 entry H          line    22 file /shared/joao/test_parameterize/miniconda3/share/psi4/basis/cc-pvdz.gbs 


         ---------------------------------------------------------
                                   SCF
            by Justin Turney, Rob Parrish, Andy Simmonett
                             and Daniel Smith
                              RKS Reference
                        1 Threads,   5100 MiB Core
         ---------------------------------------------------------

  ==> Geometry <==

    Molecular point group: c1
    Full point group: C1

    Geometry (in Angstrom), charge = 0, multiplicity = 1:

       Center              X                  Y                   Z               Mass       
    ------------   -----------------  -----------------  -----------------  -----------------
         O            1.141000000000     0.017000000000     0.083000000000    15.994914619560
         C            2.558000000000     0.086000000000    -0.005000000000    12.000000000000
         C            3.192000000000    -0.789000000000     1.067000000000    12.000000000000
         O            2.616270000000    -0.501592000000     2.335582000000    15.994914619560
         H            0.789000000000     0.590000000000    -0.620000000000     1.007825032070
         H            2.874000000000     1.128000000000     0.115000000000     1.007825032070
         H            2.871000000000    -0.243000000000    -1.001000000000     1.007825032070
         H            4.271290000000    -0.613522000000     1.114728000000     1.007825032070
         H            3.037049000000    -1.848956000000     0.836001000000     1.007825032070
         H            3.055361000000    -1.084874000000     2.978908000000     1.007825032070

  Running in c1 symmetry.

  Rotational constants: A =      0.31897  B =      0.03578  C =      0.03304 [cm^-1]
  Rotational constants: A =   9562.34923  B =   1072.77062  C =    990.57037 [MHz]
  Nuclear repulsion =  132.184295837693298

  Charge       = 0
  Multiplicity = 1
  Electrons    = 34
  Nalpha       = 17
  Nbeta        = 17

  ==> Algorithm <==

  SCF Algorithm Type is DF.
  DIIS enabled.
  MOM disabled.
  Fractional occupation disabled.
  Guess Type is SAD.
  Energy threshold   = 1.00e-06
  Density threshold  = 1.00e-06
  Integral threshold = 0.00e+00

  ==> Primary Basis <==

  Basis Set: CC-PVDZ
    Blend: CC-PVDZ
    Number of shells: 42
    Number of basis function: 86
    Number of Cartesian functions: 90
    Spherical Harmonics?: true
    Max angular momentum: 2

  ==> DFT Potential <==

   => Composite Functional: B3LYP-D3ZERO <= 

    B3LYP-d3zero Hyb-GGA Exchange-Correlation Functional

    P. J. Stephens, F. J. Devlin, C. F. Chabalowski, and M. J. Frisch, J. Phys. Chem. 98, 11623 (1994)

    Deriv               =              1
    GGA                 =           TRUE
    Meta                =          FALSE

    Exchange Hybrid     =           TRUE
    MP2 Hybrid          =          FALSE

   => Exchange Functionals <=

    0.0800   Slater exchange
    0.7200         Becke 88

   => Exact (HF) Exchange <=

    0.2000               HF 

   => Correlation Functionals <=

    0.1900   Vosko, Wilk & Nusair (VWN5_RPA)
    0.8100   Lee, Yang & Parr

   => Molecular Quadrature <=

    Radial Scheme       =       TREUTLER
    Pruning Scheme      =           FLAT
    Nuclear Scheme      =       TREUTLER

    BS radius alpha     =              1
    Pruning alpha       =              1
    Radial Points       =             75
    Spherical Points    =            302
    Total Points        =         222572
    Total Blocks        =           1741
    Max Points          =            256
    Max Functions       =             86

   => -D3ZERO: Empirical Dispersion <=

    Grimme's -D3 (zero-damping) Dispersion Correction
    Grimme S.; Antony J.; Ehrlich S.; Krieg H. (2010), J. Chem. Phys., 132: 154104

        S6 =   1.000000E+00
        S8 =   1.703000E+00
       SR6 =   1.261000E+00
       SR8 =   1.000000E+00
    ALPHA6 =   1.400000E+01

   => Loading Basis Set <=

    Name: (CC-PVDZ AUX)
    Role: JKFIT
    Keyword: DF_BASIS_SCF
    atoms 1, 4 entry O          line   221 file /shared/joao/test_parameterize/miniconda3/share/psi4/basis/cc-pvdz-jkfit.gbs 
    atoms 2-3  entry C          line   121 file /shared/joao/test_parameterize/miniconda3/share/psi4/basis/cc-pvdz-jkfit.gbs 
    atoms 5-10 entry H          line    51 file /shared/joao/test_parameterize/miniconda3/share/psi4/basis/cc-pvdz-jkfit.gbs 

  ==> Pre-Iterations <==

   -------------------------------------------------------
    Irrep   Nso     Nmo     Nalpha   Nbeta   Ndocc  Nsocc
   -------------------------------------------------------
     A         86      86       0       0       0       0
   -------------------------------------------------------
    Total      86      86      17      17      17       0
   -------------------------------------------------------

  ==> Integral Setup <==

  DFHelper Memory: AOs need 0.030 [GiB]; user supplied 3.486 [GiB]. Using in-core AOs.

  ==> MemDFJK: Density-Fitted J/K Matrices <==

    J tasked:                   Yes
    K tasked:                   Yes
    wK tasked:                   No
    OpenMP threads:               1
    Memory (MB):               3570
    Algorithm:                 Core
    Schwarz Cutoff:           1E-12
    Mask sparsity (%):       0.0000
    Fitting Condition:        1E-12

   => Auxiliary Basis Set <=

  Basis Set: (CC-PVDZ AUX)
    Blend: CC-PVDZ-JKFIT
    Number of shells: 150
    Number of basis function: 418
    Number of Cartesian functions: 474
    Spherical Harmonics?: true
    Max angular momentum: 3

  Minimum eigenvalue in the overlap matrix is 5.1372603768E-03.
  Using Symmetric Orthogonalization.

  SCF Guess: Superposition of Atomic Densities via on-the-fly atomic UHF.

  ==> Iterations <==

                           Total Energy        Delta E     RMS |[F,P]|

   @DF-RKS iter   0:  -230.92776927975927   -2.30928e+02   4.04526e-02 
   @DF-RKS iter   1:  -230.17467272368211    7.53097e-01   4.93285e-03 
   @DF-RKS iter   2:  -230.13589592567325    3.87768e-02   6.42297e-03 DIIS
   @DF-RKS iter   3:  -230.25236470163915   -1.16469e-01   7.55505e-04 DIIS
   @DF-RKS iter   4:  -230.25378362414986   -1.41892e-03   2.84905e-04 DIIS
   @DF-RKS iter   5:  -230.25405707696282   -2.73453e-04   4.89610e-05 DIIS
   @DF-RKS iter   6:  -230.25406510278444   -8.02582e-06   5.99798e-06 DIIS
   @DF-RKS iter   7:  -230.25406518368831   -8.09039e-08   3.38697e-06 DIIS
   @DF-RKS iter   8:  -230.25406521461429   -3.09260e-08   6.32083e-07 DIIS

  ==> Post-Iterations <==

    Orbital Energies [Eh]
    ---------------------

    Doubly Occupied:                                                      

       1A    -19.124195     2A    -19.124159     3A    -10.227315  
       4A    -10.227128     5A     -1.016436     6A     -0.997674  
       7A     -0.733944     8A     -0.601432     9A     -0.522194  
      10A     -0.496074    11A     -0.443883    12A     -0.414989  
      13A     -0.401282    14A     -0.337958    15A     -0.319210  
      16A     -0.259049    17A     -0.257522  

    Virtual:                                                              

      18A      0.044008    19A      0.071471    20A      0.094348  
      21A      0.114911    22A      0.133666    23A      0.154324  
      24A      0.189220    25A      0.230263    26A      0.235641  
      27A      0.462770    28A      0.463390    29A      0.500557  
      30A      0.517926    31A      0.546815    32A      0.554960  
      33A      0.611985    34A      0.626650    35A      0.642468  
      36A      0.656063    37A      0.665119    38A      0.696508  
      39A      0.874534    40A      0.904653    41A      0.918489  
      42A      0.990415    43A      1.002165    44A      1.038631  
      45A      1.077151    46A      1.170848    47A      1.185460  
      48A      1.239235    49A      1.266317    50A      1.328482  
      51A      1.335465    52A      1.395090    53A      1.493680  
      54A      1.520626    55A      1.608911    56A      1.611490  
      57A      1.617811    58A      1.620793    59A      1.649840  
      60A      1.700609    61A      1.728468    62A      1.740551  
      63A      1.872630    64A      1.883766    65A      1.943999  
      66A      1.989694    67A      2.014285    68A      2.025825  
      69A      2.144820    70A      2.166403    71A      2.232730  
      72A      2.260583    73A      2.407616    74A      2.413546  
      75A      2.523735    76A      2.525321    77A      2.918163  
      78A      2.962692    79A      3.004538    80A      3.020125  
      81A      3.057079    82A      3.161013    83A      3.204882  
      84A      3.216383    85A      3.658254    86A      3.740951  

    Final Occupation by Irrep:
              A 
    DOCC [    17 ]

  Energy converged.

  @DF-RKS Final Energy:  -230.25406521461429

   => Energetics <=

    Nuclear Repulsion Energy =            132.1842958376932984
    One-Electron Energy =                -576.2371635388308277
    Two-Electron Energy =                 238.3393022167910260
    DFT Exchange-Correlation Energy =     -24.5362288502677970
    Empirical Dispersion Energy =          -0.0042708800000000
    VV10 Nonlocal Energy =                  0.0000000000000000
    Total Energy =                       -230.2540652146143145



Properties will be evaluated at   0.000000,   0.000000,   0.000000 [a0]

Properties computed using the SCF density matrix

  Nuclear Dipole Moment: [e a0]
     X:   153.9293      Y:   -19.2130      Z:    55.0747

  Electronic Dipole Moment: [e a0]
     X:  -153.2613      Y:    19.1396      Z:   -55.5306

  Dipole Moment: [e a0]
     X:     0.6680      Y:    -0.0734      Z:    -0.4558     Total:     0.8120

  Dipole Moment: [D]
     X:     1.6979      Y:    -0.1865      Z:    -1.1586     Total:     2.0639


*** tstop() called on loro.prib.upf.edu at Sat Sep 29 16:49:48 2018
Module time:
	user time   =      12.58 seconds =       0.21 minutes
	system time =       0.18 seconds =       0.00 minutes
	total time  =         15 seconds =       0.25 minutes
Total time:
	user time   =      12.58 seconds =       0.21 minutes
	system time =       0.18 seconds =       0.00 minutes
	total time  =         15 seconds =       0.25 minutes


Properties will be evaluated at   0.000000,   0.000000,   0.000000 [a0]
OEProp: No title given, name of density matrix used for the following properties is 'SCF density'
  Nuclear Dipole Moment: [e a0]
     X:   153.9293      Y:   -19.2130      Z:    55.0747

  Electronic Dipole Moment: [e a0]
     X:  -153.2613      Y:    19.1396      Z:   -55.5306

  Dipole Moment: [e a0]
     X:     0.6680      Y:    -0.0734      Z:    -0.4558     Total:     0.8120

  Dipole Moment: [D]
     X:     1.6979      Y:    -0.1865      Z:    -1.1586     Total:     2.0639

  Quadrupole Moment: [D A]
    XX:   -16.0452     YY:   -22.6075     ZZ:   -22.5093
    XY:    -3.4513     XZ:     2.1254     YZ:    -4.0500

  Traceless Quadrupole Moment: [D A]
    XX:     4.3421     YY:    -2.2202     ZZ:    -2.1220
    XY:    -3.4513     XZ:     2.1254     YZ:    -4.0500

  Mulliken Charges: (a.u.)
   Center  Symbol    Alpha    Beta     Spin     Total
       1     O     4.13324  4.13324  0.00000 -0.26648
       2     C     2.93337  2.93337  0.00000  0.13326
       3     C     2.93347  2.93347  0.00000  0.13305
       4     O     4.13349  4.13349  0.00000 -0.26698
       5     H     0.43064  0.43064  0.00000  0.13871
       6     H     0.49937  0.49937  0.00000  0.00126
       7     H     0.50333  0.50333  0.00000 -0.00667
       8     H     0.50322  0.50322  0.00000 -0.00644
       9     H     0.49927  0.49927  0.00000  0.00146
      10     H     0.43059  0.43059  0.00000  0.13882

   Total alpha = 17.00000, Total beta = 17.00000, Total charge = -0.00000


    Psi4 stopped on: Saturday, 29 September 2018 04:49PM
    Psi4 wall time for execution: 0:00:15.06

*** Psi4 exiting successfully. Buy a developer a beer!
