
    -----------------------------------------------------------------------
          Psi4: An Open-Source Ab Initio Electronic Structure Package
                               Psi4 1.2.1 release

                         Git: Rev {HEAD} 406f4de 


    R. M. Parrish, L. A. Burns, D. G. A. Smith, A. C. Simmonett,
    A. E. DePrince III, E. G. Hohenstein, U. Bozkaya, A. Yu. Sokolov,
    R. Di Remigio, R. M. Richard, J. F. Gonthier, A. M. James,
    H. R. McAlexander, A. Kumar, M. Saitow, X. Wang, B. P. Pritchard,
    P. Verma, H. F. Schaefer III, K. Patkowski, R. A. King, E. F. Valeev,
    F. A. Evangelista, J. M. Turney, T. D. Crawford, and C. D. Sherrill,
    J. Chem. Theory Comput. 13(7) pp 3185--3197 (2017).
    (doi: 10.1021/acs.jctc.7b00174)


                         Additional Contributions by
    P. Kraus, H. Kruse, M. H. Lechner, M. C. Schieber, and R. A. Shaw

    -----------------------------------------------------------------------


    Psi4 started on: Saturday, 29 September 2018 04:27PM

    Process ID: 26620
    Host:       loro.prib.upf.edu
    PSIDATADIR: /shared/joao/test_parameterize/miniconda3/share/psi4
    Memory:     500.0 MiB
    Threads:    1
    
  ==> Input File <==

--------------------------------------------------------------------------
set_num_threads(1)
set_memory('5348 MB')

set { scf_mem_safety_factor 0.7 }

set { reference rks }
set { basis cc-pVDZ }

molecule MOL {
    0 1
    noreorient
    nocom
    symmetry c1
    O    1.014300  -0.002300   0.060500
    O    2.462400  -0.107500  -0.002400
    H    0.821200  -0.823600  -0.430600
    H    2.521140  -1.029891   0.311575
}

set optking { frozen_dihedral = (" 3 1 2 4 ") }

energy, wfn = energy('B3LYP-D3', return_wfn=True)

import os
os.chdir(os.environ['HTMD_PSI4_WORKDIR'])

oeprop(wfn, 'DIPOLE', 'QUADRUPOLE', 'MULLIKEN_CHARGES')

with open('psi4out.xyz', 'w') as f:
    f.write('4 ' )
    f.write('%.12f\n' % energy)
    f.write(MOL.save_string_xyz())
--------------------------------------------------------------------------
  Threads set to 1 by Python driver.

  Memory set to   4.981 GiB by Python driver.

*** tstart() called on loro.prib.upf.edu
*** at Sat Sep 29 16:27:15 2018

   => Loading Basis Set <=

    Name: CC-PVDZ
    Role: ORBITAL
    Keyword: BASIS
    atoms 1-2 entry O          line   198 file /shared/joao/test_parameterize/miniconda3/share/psi4/basis/cc-pvdz.gbs 
    atoms 3-4 entry H          line    22 file /shared/joao/test_parameterize/miniconda3/share/psi4/basis/cc-pvdz.gbs 


         ---------------------------------------------------------
                                   SCF
            by Justin Turney, Rob Parrish, Andy Simmonett
                             and Daniel Smith
                              RKS Reference
                        1 Threads,   5100 MiB Core
         ---------------------------------------------------------

  ==> Geometry <==

    Molecular point group: c1
    Full point group: C1

    Geometry (in Angstrom), charge = 0, multiplicity = 1:

       Center              X                  Y                   Z               Mass       
    ------------   -----------------  -----------------  -----------------  -----------------
         O            1.014300000000    -0.002300000000     0.060500000000    15.994914619560
         O            2.462400000000    -0.107500000000    -0.002400000000    15.994914619560
         H            0.821200000000    -0.823600000000    -0.430600000000     1.007825032070
         H            2.521140000000    -1.029891000000     0.311575000000     1.007825032070

  Running in c1 symmetry.

  Rotational constants: A =      9.44275  B =      0.13893  C =      0.13763 [cm^-1]
  Rotational constants: A = 283086.66366  B =   4165.08688  C =   4125.89859 [MHz]
  Nuclear repulsion =   36.859932412538669

  Charge       = 0
  Multiplicity = 1
  Electrons    = 18
  Nalpha       = 9
  Nbeta        = 9

  ==> Algorithm <==

  SCF Algorithm Type is DF.
  DIIS enabled.
  MOM disabled.
  Fractional occupation disabled.
  Guess Type is SAD.
  Energy threshold   = 1.00e-06
  Density threshold  = 1.00e-06
  Integral threshold = 0.00e+00

  ==> Primary Basis <==

  Basis Set: CC-PVDZ
    Blend: CC-PVDZ
    Number of shells: 18
    Number of basis function: 38
    Number of Cartesian functions: 40
    Spherical Harmonics?: true
    Max angular momentum: 2

  ==> DFT Potential <==

   => Composite Functional: B3LYP-D3ZERO <= 

    B3LYP-d3zero Hyb-GGA Exchange-Correlation Functional

    P. J. Stephens, F. J. Devlin, C. F. Chabalowski, and M. J. Frisch, J. Phys. Chem. 98, 11623 (1994)

    Deriv               =              1
    GGA                 =           TRUE
    Meta                =          FALSE

    Exchange Hybrid     =           TRUE
    MP2 Hybrid          =          FALSE

   => Exchange Functionals <=

    0.0800   Slater exchange
    0.7200         Becke 88

   => Exact (HF) Exchange <=

    0.2000               HF 

   => Correlation Functionals <=

    0.1900   Vosko, Wilk & Nusair (VWN5_RPA)
    0.8100   Lee, Yang & Parr

   => Molecular Quadrature <=

    Radial Scheme       =       TREUTLER
    Pruning Scheme      =           FLAT
    Nuclear Scheme      =       TREUTLER

    BS radius alpha     =              1
    Pruning alpha       =              1
    Radial Points       =             75
    Spherical Points    =            302
    Total Points        =          88292
    Total Blocks        =            703
    Max Points          =            256
    Max Functions       =             38

   => -D3ZERO: Empirical Dispersion <=

    Grimme's -D3 (zero-damping) Dispersion Correction
    Grimme S.; Antony J.; Ehrlich S.; Krieg H. (2010), J. Chem. Phys., 132: 154104

        S6 =   1.000000E+00
        S8 =   1.703000E+00
       SR6 =   1.261000E+00
       SR8 =   1.000000E+00
    ALPHA6 =   1.400000E+01

   => Loading Basis Set <=

    Name: (CC-PVDZ AUX)
    Role: JKFIT
    Keyword: DF_BASIS_SCF
    atoms 1-2 entry O          line   221 file /shared/joao/test_parameterize/miniconda3/share/psi4/basis/cc-pvdz-jkfit.gbs 
    atoms 3-4 entry H          line    51 file /shared/joao/test_parameterize/miniconda3/share/psi4/basis/cc-pvdz-jkfit.gbs 

  ==> Pre-Iterations <==

   -------------------------------------------------------
    Irrep   Nso     Nmo     Nalpha   Nbeta   Ndocc  Nsocc
   -------------------------------------------------------
     A         38      38       0       0       0       0
   -------------------------------------------------------
    Total      38      38       9       9       9       0
   -------------------------------------------------------

  ==> Integral Setup <==

  DFHelper Memory: AOs need 0.003 [GiB]; user supplied 3.486 [GiB]. Using in-core AOs.

  ==> MemDFJK: Density-Fitted J/K Matrices <==

    J tasked:                   Yes
    K tasked:                   Yes
    wK tasked:                   No
    OpenMP threads:               1
    Memory (MB):               3570
    Algorithm:                 Core
    Schwarz Cutoff:           1E-12
    Mask sparsity (%):       0.0000
    Fitting Condition:        1E-12

   => Auxiliary Basis Set <=

  Basis Set: (CC-PVDZ AUX)
    Blend: CC-PVDZ-JKFIT
    Number of shells: 66
    Number of basis function: 186
    Number of Cartesian functions: 212
    Spherical Harmonics?: true
    Max angular momentum: 3

  Minimum eigenvalue in the overlap matrix is 2.5297330803E-02.
  Using Symmetric Orthogonalization.

  SCF Guess: Superposition of Atomic Densities via on-the-fly atomic UHF.

  ==> Iterations <==

                           Total Energy        Delta E     RMS |[F,P]|

   @DF-RKS iter   0:  -151.57048406902462   -1.51570e+02   4.89157e-02 
   @DF-RKS iter   1:  -151.51146043253755    5.90236e-02   7.27554e-03 
   @DF-RKS iter   2:  -151.51036989933132    1.09053e-03   7.59063e-03 DIIS
   @DF-RKS iter   3:  -151.54114106674069   -3.07712e-02   8.60341e-04 DIIS
   @DF-RKS iter   4:  -151.54150761375021   -3.66547e-04   8.61675e-05 DIIS
   @DF-RKS iter   5:  -151.54150829638297   -6.82633e-07   8.94860e-05 DIIS
   @DF-RKS iter   6:  -151.54151246874412   -4.17236e-06   1.10593e-05 DIIS
   @DF-RKS iter   7:  -151.54151254709345   -7.83493e-08   1.51196e-06 DIIS
   @DF-RKS iter   8:  -151.54151254845860   -1.36515e-09   1.30290e-07 DIIS

  ==> Post-Iterations <==

    Orbital Energies [Eh]
    ---------------------

    Doubly Occupied:                                                      

       1A    -19.191636     2A    -19.191600     3A     -1.119540  
       4A     -0.887339     5A     -0.549161     6A     -0.441105  
       7A     -0.426181     8A     -0.332683     9A     -0.261831  

    Virtual:                                                              

      10A      0.021397    11A      0.024050    12A      0.118753  
      13A      0.567939    14A      0.573091    15A      0.860242  
      16A      0.870128    17A      0.907899    18A      0.924213  
      19A      1.020389    20A      1.025831    21A      1.224885  
      22A      1.261654    23A      1.320821    24A      1.478142  
      25A      1.615199    26A      1.744392    27A      2.039379  
      28A      2.078266    29A      2.384804    30A      2.391398  
      31A      2.614266    32A      2.878120    33A      2.914824  
      34A      3.030237    35A      3.124164    36A      3.456360  
      37A      3.574291    38A      3.819184  

    Final Occupation by Irrep:
              A 
    DOCC [     9 ]

  Energy converged.

  @DF-RKS Final Energy:  -151.54151254845860

   => Energetics <=

    Nuclear Repulsion Energy =             36.8599324125386687
    One-Electron Energy =                -281.6167833286503424
    Two-Electron Energy =                 107.6774716119887785
    DFT Exchange-Correlation Energy =     -14.4619354443356904
    Empirical Dispersion Energy =          -0.0001978000000000
    VV10 Nonlocal Energy =                  0.0000000000000000
    Total Energy =                       -151.5415125484585701



Properties will be evaluated at   0.000000,   0.000000,   0.000000 [a0]

Properties computed using the SCF density matrix

  Nuclear Dipole Moment: [e a0]
     X:    58.8762      Y:    -5.1625      Z:     0.6534

  Electronic Dipole Moment: [e a0]
     X:   -58.9629      Y:     4.0368      Z:    -0.7678

  Dipole Moment: [e a0]
     X:    -0.0867      Y:    -1.1257      Z:    -0.1143     Total:     1.1349

  Dipole Moment: [D]
     X:    -0.2205      Y:    -2.8613      Z:    -0.2906     Total:     2.8845


*** tstop() called on loro.prib.upf.edu at Sat Sep 29 16:27:20 2018
Module time:
	user time   =       2.74 seconds =       0.05 minutes
	system time =       0.08 seconds =       0.00 minutes
	total time  =          5 seconds =       0.08 minutes
Total time:
	user time   =       2.74 seconds =       0.05 minutes
	system time =       0.08 seconds =       0.00 minutes
	total time  =          5 seconds =       0.08 minutes


Properties will be evaluated at   0.000000,   0.000000,   0.000000 [a0]
OEProp: No title given, name of density matrix used for the following properties is 'SCF density'
  Nuclear Dipole Moment: [e a0]
     X:    58.8762      Y:    -5.1625      Z:     0.6534

  Electronic Dipole Moment: [e a0]
     X:   -58.9629      Y:     4.0368      Z:    -0.7678

  Dipole Moment: [e a0]
     X:    -0.0867      Y:    -1.1257      Z:    -0.1143     Total:     1.1349

  Dipole Moment: [D]
     X:    -0.2205      Y:    -2.8613      Z:    -0.2906     Total:     2.8845

  Quadrupole Moment: [D A]
    XX:   -12.0013     YY:    -8.4860     ZZ:   -11.6444
    XY:    -4.9028     XZ:     0.7714     YZ:     0.1236

  Traceless Quadrupole Moment: [D A]
    XX:    -1.2907     YY:     2.2245     ZZ:    -0.9338
    XY:    -4.9028     XZ:     0.7714     YZ:     0.1236

  Mulliken Charges: (a.u.)
   Center  Symbol    Alpha    Beta     Spin     Total
       1     O     4.08225  4.08225  0.00000 -0.16451
       2     O     4.08223  4.08223  0.00000 -0.16447
       3     H     0.41775  0.41775  0.00000  0.16450
       4     H     0.41777  0.41777  0.00000  0.16447

   Total alpha =  9.00000, Total beta =  9.00000, Total charge = -0.00000


    Psi4 stopped on: Saturday, 29 September 2018 04:27PM
    Psi4 wall time for execution: 0:00:04.45

*** Psi4 exiting successfully. Buy a developer a beer!
