
    -----------------------------------------------------------------------
          Psi4: An Open-Source Ab Initio Electronic Structure Package
                               Psi4 1.2.1 release

                         Git: Rev {HEAD} 406f4de 


    R. M. Parrish, L. A. Burns, D. G. A. Smith, A. C. Simmonett,
    A. E. DePrince III, E. G. Hohenstein, U. Bozkaya, A. Yu. Sokolov,
    R. Di Remigio, R. M. Richard, J. F. Gonthier, A. M. James,
    H. R. McAlexander, A. Kumar, M. Saitow, X. Wang, B. P. Pritchard,
    P. Verma, H. F. Schaefer III, K. Patkowski, R. A. King, E. F. Valeev,
    F. A. Evangelista, J. M. Turney, T. D. Crawford, and C. D. Sherrill,
    J. Chem. Theory Comput. 13(7) pp 3185--3197 (2017).
    (doi: 10.1021/acs.jctc.7b00174)


                         Additional Contributions by
    P. Kraus, H. Kruse, M. H. Lechner, M. C. Schieber, and R. A. Shaw

    -----------------------------------------------------------------------


    Psi4 started on: Saturday, 29 September 2018 08:24PM

    Process ID: 27521
    Host:       arancio.prib.upf.edu
    PSIDATADIR: /shared/joao/test_parameterize/miniconda3/share/psi4
    Memory:     500.0 MiB
    Threads:    1
    
  ==> Input File <==

--------------------------------------------------------------------------
set_num_threads(4)
set_memory('3000 MB')

set { scf_mem_safety_factor 0.7 }

set { reference rks }
set { basis 6-31G* }

molecule MOL {
    1 1
    noreorient
    nocom
    symmetry c1
    C   -0.000000  -0.000000  -0.177864
    C    0.036678   1.219374   0.524165
    C    0.031765   1.213120   1.915444
    C    0.000000   0.000000   2.610107
    C   -0.031765  -1.213120   1.915444
    C   -0.036678  -1.219375   0.524165
    C   -0.000000   0.000000  -1.644734
    H    0.018170   2.164705  -0.010854
    H    0.042402   2.152895   2.457886
    H    0.000000   0.000000   3.695756
    H   -0.042402  -2.152895   2.457886
    H   -0.018170  -2.164705  -0.010853
    N   -0.712590  -0.905950  -2.308461
    N    0.712590   0.905950  -2.308460
    H    0.673432   1.006470  -3.315997
    H    1.377190   1.485970  -1.813316
    H   -0.492601  -1.111470  -3.274199
    H   -1.439148  -1.461701  -1.872546
}

set optking { frozen_dihedral = (" 1 7 13 17 ") }

set optking { dynamic_level = 1 
 geom_maxiter = 250
 print_trajectory_xyz_file = True }

energy, wfn = optimize('B3LYP-D3', return_wfn=True)

import os
os.chdir(os.environ['HTMD_PSI4_WORKDIR'])

oeprop(wfn, 'DIPOLE', 'QUADRUPOLE', 'MULLIKEN_CHARGES')

with open('psi4out.xyz', 'w') as f:
    f.write('18 ' )
    f.write('%.12f\n' % energy)
    f.write(MOL.save_string_xyz())
--------------------------------------------------------------------------
  Threads set to 4 by Python driver.

  Memory set to   2.794 GiB by Python driver.
gradient() will perform analytic gradient computation.

*** tstart() called on arancio.prib.upf.edu
*** at Sat Sep 29 20:24:39 2018

   => Loading Basis Set <=

    Name: 6-31G*
    Role: ORBITAL
    Keyword: BASIS
    atoms 1-7         entry C          line   111 file /shared/joao/test_parameterize/miniconda3/share/psi4/basis/6-31gs.gbs 
    atoms 8-12, 15-18 entry H          line    44 file /shared/joao/test_parameterize/miniconda3/share/psi4/basis/6-31gs.gbs 
    atoms 13-14       entry N          line   128 file /shared/joao/test_parameterize/miniconda3/share/psi4/basis/6-31gs.gbs 


         ---------------------------------------------------------
                                   SCF
            by Justin Turney, Rob Parrish, Andy Simmonett
                             and Daniel Smith
                              RKS Reference
                        4 Threads,   2861 MiB Core
         ---------------------------------------------------------

  ==> Geometry <==

    Molecular point group: c1
    Full point group: C1

    Geometry (in Angstrom), charge = 1, multiplicity = 1:

       Center              X                  Y                   Z               Mass       
    ------------   -----------------  -----------------  -----------------  -----------------
         C            0.000000000000     0.000000000000    -0.177864000000    12.000000000000
         C            0.036678000000     1.219374000000     0.524165000000    12.000000000000
         C            0.031765000000     1.213120000000     1.915444000000    12.000000000000
         C            0.000000000000     0.000000000000     2.610107000000    12.000000000000
         C           -0.031765000000    -1.213120000000     1.915444000000    12.000000000000
         C           -0.036678000000    -1.219375000000     0.524165000000    12.000000000000
         C            0.000000000000     0.000000000000    -1.644734000000    12.000000000000
         H            0.018170000000     2.164705000000    -0.010854000000     1.007825032070
         H            0.042402000000     2.152895000000     2.457886000000     1.007825032070
         H            0.000000000000     0.000000000000     3.695756000000     1.007825032070
         H           -0.042402000000    -2.152895000000     2.457886000000     1.007825032070
         H           -0.018170000000    -2.164705000000    -0.010853000000     1.007825032070
         N           -0.712590000000    -0.905950000000    -2.308461000000    14.003074004780
         N            0.712590000000     0.905950000000    -2.308460000000    14.003074004780
         H            0.673432000000     1.006470000000    -3.315997000000     1.007825032070
         H            1.377190000000     1.485970000000    -1.813316000000     1.007825032070
         H           -0.492601000000    -1.111470000000    -3.274199000000     1.007825032070
         H           -1.439148000000    -1.461701000000    -1.872546000000     1.007825032070

  Running in c1 symmetry.

  Rotational constants: A =      0.12180  B =      0.03958  C =      0.03129 [cm^-1]
  Rotational constants: A =   3651.46183  B =   1186.54662  C =    937.95926 [MHz]
  Nuclear repulsion =  416.863742555865713

  Charge       = 1
  Multiplicity = 1
  Electrons    = 64
  Nalpha       = 32
  Nbeta        = 32

  ==> Algorithm <==

  SCF Algorithm Type is DF.
  DIIS enabled.
  MOM disabled.
  Fractional occupation disabled.
  Guess Type is SAD.
  Energy threshold   = 1.00e-08
  Density threshold  = 1.00e-08
  Integral threshold = 0.00e+00

  ==> Primary Basis <==

  Basis Set: 6-31G*
    Blend: 6-31G*
    Number of shells: 72
    Number of basis function: 153
    Number of Cartesian functions: 153
    Spherical Harmonics?: false
    Max angular momentum: 2

  ==> DFT Potential <==

   => Composite Functional: B3LYP-D3ZERO <= 

    B3LYP-d3zero Hyb-GGA Exchange-Correlation Functional

    P. J. Stephens, F. J. Devlin, C. F. Chabalowski, and M. J. Frisch, J. Phys. Chem. 98, 11623 (1994)

    Deriv               =              1
    GGA                 =           TRUE
    Meta                =          FALSE

    Exchange Hybrid     =           TRUE
    MP2 Hybrid          =          FALSE

   => Exchange Functionals <=

    0.0800   Slater exchange
    0.7200         Becke 88

   => Exact (HF) Exchange <=

    0.2000               HF 

   => Correlation Functionals <=

    0.1900   Vosko, Wilk & Nusair (VWN5_RPA)
    0.8100   Lee, Yang & Parr

   => Molecular Quadrature <=

    Radial Scheme       =       TREUTLER
    Pruning Scheme      =           FLAT
    Nuclear Scheme      =       TREUTLER

    BS radius alpha     =              1
    Pruning alpha       =              1
    Radial Points       =             75
    Spherical Points    =            302
    Total Points        =         396967
    Total Blocks        =           3016
    Max Points          =            256
    Max Functions       =            149

   => -D3ZERO: Empirical Dispersion <=

    Grimme's -D3 (zero-damping) Dispersion Correction
    Grimme S.; Antony J.; Ehrlich S.; Krieg H. (2010), J. Chem. Phys., 132: 154104

        S6 =   1.000000E+00
        S8 =   1.703000E+00
       SR6 =   1.261000E+00
       SR8 =   1.000000E+00
    ALPHA6 =   1.400000E+01

   => Loading Basis Set <=

    Name: (6-31G* AUX)
    Role: JKFIT
    Keyword: DF_BASIS_SCF
    atoms 1-7         entry C          line   121 file /shared/joao/test_parameterize/miniconda3/share/psi4/basis/cc-pvdz-jkfit.gbs 
    atoms 8-12, 15-18 entry H          line    51 file /shared/joao/test_parameterize/miniconda3/share/psi4/basis/cc-pvdz-jkfit.gbs 
    atoms 13-14       entry N          line   171 file /shared/joao/test_parameterize/miniconda3/share/psi4/basis/cc-pvdz-jkfit.gbs 

  ==> Pre-Iterations <==

   -------------------------------------------------------
    Irrep   Nso     Nmo     Nalpha   Nbeta   Ndocc  Nsocc
   -------------------------------------------------------
     A        153     153       0       0       0       0
   -------------------------------------------------------
    Total     153     153      32      32      32       0
   -------------------------------------------------------

  ==> Integral Setup <==

  ==> DiskDFJK: Density-Fitted J/K Matrices <==

    J tasked:                  Yes
    K tasked:                  Yes
    wK tasked:                  No
    OpenMP threads:              4
    Integrals threads:           4
    Memory (MB):              2002
    Algorithm:                Core
    Integral Cache:           NONE
    Schwarz Cutoff:          1E-12
    Fitting Condition:       1E-12

   => Auxiliary Basis Set <=

  Basis Set: (6-31G* AUX)
    Blend: CC-PVDZ-JKFIT
    Number of shells: 297
    Number of basis function: 954
    Number of Cartesian functions: 954
    Spherical Harmonics?: false
    Max angular momentum: 3

  Minimum eigenvalue in the overlap matrix is 4.8705507475E-04.
  Using Symmetric Orthogonalization.

  SCF Guess: Superposition of Atomic Densities via on-the-fly atomic UHF.

  ==> Iterations <==

                           Total Energy        Delta E     RMS |[F,P]|

   @DF-RKS iter   0:  -379.61862232518052   -3.79619e+02   6.73244e-02 
   @DF-RKS iter   1:  -381.04329516369540   -1.42467e+00   1.17549e-02 
   @DF-RKS iter   2:  -380.95776187066730    8.55333e-02   1.29291e-02 DIIS
   @DF-RKS iter   3:  -381.46116852218938   -5.03407e-01   1.68162e-03 DIIS
   @DF-RKS iter   4:  -381.46740681655206   -6.23829e-03   8.02714e-04 DIIS
   @DF-RKS iter   5:  -381.46899175815702   -1.58494e-03   2.41029e-04 DIIS
   @DF-RKS iter   6:  -381.46913348370970   -1.41726e-04   8.55496e-05 DIIS
   @DF-RKS iter   7:  -381.46915272683128   -1.92431e-05   1.66736e-05 DIIS
   @DF-RKS iter   8:  -381.46915345863141   -7.31800e-07   6.81838e-06 DIIS
   @DF-RKS iter   9:  -381.46915360525662   -1.46625e-07   2.12796e-06 DIIS
   @DF-RKS iter  10:  -381.46915361919145   -1.39348e-08   6.10075e-07 DIIS
   @DF-RKS iter  11:  -381.46915362022628   -1.03483e-09   6.59291e-08 DIIS
   @DF-RKS iter  12:  -381.46915362023549   -9.20863e-12   7.34364e-08 DIIS
   @DF-RKS iter  13:  -381.46915362025368   -1.81899e-11   1.24062e-08 DIIS
   @DF-RKS iter  14:  -381.46915362025521   -1.53477e-12   4.83774e-09 DIIS

  ==> Post-Iterations <==

    Orbital Energies [Eh]
    ---------------------

    Doubly Occupied:                                                      

       1A    -14.568881     2A    -14.566188     3A    -10.496498  
       4A    -10.372283     5A    -10.355952     6A    -10.355852  
       7A    -10.343371     8A    -10.340281     9A    -10.340211  
      10A     -1.183467    11A     -1.091211    12A     -1.013997  
      13A     -0.926160    14A     -0.901943    15A     -0.845013  
      16A     -0.785559    17A     -0.771714    18A     -0.741086  
      19A     -0.731857    20A     -0.693245    21A     -0.668972  
      22A     -0.625271    23A     -0.615181    24A     -0.584549  
      25A     -0.578886    26A     -0.571052    27A     -0.518540  
      28A     -0.505083    29A     -0.497796    30A     -0.472730  
      31A     -0.412178    32A     -0.405521  

    Virtual:                                                              

      33A     -0.219421    34A     -0.156930    35A     -0.128025  
      36A     -0.106930    37A     -0.067723    38A     -0.060781  
      39A     -0.038246    40A     -0.031353    41A      0.007262  
      42A      0.018398    43A      0.021331    44A      0.055277  
      45A      0.061944    46A      0.084919    47A      0.128243  
      48A      0.146567    49A      0.156009    50A      0.157914  
      51A      0.202264    52A      0.243007    53A      0.297054  
      54A      0.352667    55A      0.354088    56A      0.380986  
      57A      0.387734    58A      0.397518    59A      0.421671  
      60A      0.422584    61A      0.442619    62A      0.447142  
      63A      0.453401    64A      0.471534    65A      0.474965  
      66A      0.475362    67A      0.485987    68A      0.513782  
      69A      0.528728    70A      0.530899    71A      0.542253  
      72A      0.589024    73A      0.607213    74A      0.656568  
      75A      0.661446    76A      0.683384    77A      0.689775  
      78A      0.703452    79A      0.715497    80A      0.717902  
      81A      0.735602    82A      0.768178    83A      0.774657  
      84A      0.794793    85A      0.809985    86A      0.821976  
      87A      0.851928    88A      0.943533    89A      0.960942  
      90A      0.990071    91A      1.003053    92A      1.026514  
      93A      1.070490    94A      1.082596    95A      1.132681  
      96A      1.150629    97A      1.220801    98A      1.271858  
      99A      1.282928   100A      1.303549   101A      1.321344  
     102A      1.343423   103A      1.362096   104A      1.373220  
     105A      1.448297   106A      1.469477   107A      1.481485  
     108A      1.611652   109A      1.621974   110A      1.651154  
     111A      1.659068   112A      1.736657   113A      1.753858  
     114A      1.799301   115A      1.826969   116A      1.845220  
     117A      1.901127   118A      1.914196   119A      1.961925  
     120A      1.973261   121A      1.997218   122A      2.013112  
     123A      2.032194   124A      2.056809   125A      2.124356  
     126A      2.130634   127A      2.152263   128A      2.212111  
     129A      2.222638   130A      2.284722   131A      2.357177  
     132A      2.369603   133A      2.444547   134A      2.452515  
     135A      2.489874   136A      2.515519   137A      2.550643  
     138A      2.588204   139A      2.602594   140A      2.629931  
     141A      2.738437   142A      2.875360   143A      2.983349  
     144A      3.259380   145A      3.640754   146A      3.654574  
     147A      3.912947   148A      3.948068   149A      3.963929  
     150A      4.053464   151A      4.174217   152A      4.257362  
     153A      4.546524  

    Final Occupation by Irrep:
              A 
    DOCC [    32 ]

  Energy converged.

  @DF-RKS Final Energy:  -381.46915362025521

   => Energetics <=

    Nuclear Repulsion Energy =            416.8637425558657128
    One-Electron Energy =               -1328.9568145736293445
    Two-Electron Energy =                 575.0417829932016502
    DFT Exchange-Correlation Energy =     -44.4059067556932234
    Empirical Dispersion Energy =          -0.0119578400000000
    VV10 Nonlocal Energy =                  0.0000000000000000
    Total Energy =                       -381.4691536202552129



Properties will be evaluated at   0.000000,   0.000000,   0.000000 [a0]

Properties computed using the SCF density matrix

  Nuclear Dipole Moment: [e a0]
     X:     0.2246      Y:    -0.1526      Z:    -0.0082

  Electronic Dipole Moment: [e a0]
     X:    -0.1482      Y:     0.0984      Z:    -2.2238

  Dipole Moment: [e a0]
     X:     0.0764      Y:    -0.0542      Z:    -2.2319     Total:     2.2339

  Dipole Moment: [D]
     X:     0.1942      Y:    -0.1378      Z:    -5.6730     Total:     5.6780


*** tstop() called on arancio.prib.upf.edu at Sat Sep 29 20:25:10 2018
Module time:
	user time   =     100.44 seconds =       1.67 minutes
	system time =       0.78 seconds =       0.01 minutes
	total time  =         31 seconds =       0.52 minutes
Total time:
	user time   =     100.44 seconds =       1.67 minutes
	system time =       0.78 seconds =       0.01 minutes
	total time  =         31 seconds =       0.52 minutes

*** tstart() called on arancio.prib.upf.edu
*** at Sat Sep 29 20:25:10 2018


         ------------------------------------------------------------
                                   SCF GRAD                          
                          Rob Parrish, Justin Turney,                
                       Andy Simmonett, and Alex Sokolov              
         ------------------------------------------------------------

  ==> Geometry <==

    Molecular point group: c1
    Full point group: C1

    Geometry (in Angstrom), charge = 1, multiplicity = 1:

       Center              X                  Y                   Z               Mass       
    ------------   -----------------  -----------------  -----------------  -----------------
         C            0.000000000000     0.000000000000    -0.177864000000    12.000000000000
         C            0.036678000000     1.219374000000     0.524165000000    12.000000000000
         C            0.031765000000     1.213120000000     1.915444000000    12.000000000000
         C            0.000000000000     0.000000000000     2.610107000000    12.000000000000
         C           -0.031765000000    -1.213120000000     1.915444000000    12.000000000000
         C           -0.036678000000    -1.219375000000     0.524165000000    12.000000000000
         C            0.000000000000     0.000000000000    -1.644734000000    12.000000000000
         H            0.018170000000     2.164705000000    -0.010854000000     1.007825032070
         H            0.042402000000     2.152895000000     2.457886000000     1.007825032070
         H            0.000000000000     0.000000000000     3.695756000000     1.007825032070
         H           -0.042402000000    -2.152895000000     2.457886000000     1.007825032070
         H           -0.018170000000    -2.164705000000    -0.010853000000     1.007825032070
         N           -0.712590000000    -0.905950000000    -2.308461000000    14.003074004780
         N            0.712590000000     0.905950000000    -2.308460000000    14.003074004780
         H            0.673432000000     1.006470000000    -3.315997000000     1.007825032070
         H            1.377190000000     1.485970000000    -1.813316000000     1.007825032070
         H           -0.492601000000    -1.111470000000    -3.274199000000     1.007825032070
         H           -1.439148000000    -1.461701000000    -1.872546000000     1.007825032070

  Nuclear repulsion =  416.863742555865713

  ==> Basis Set <==

  Basis Set: 6-31G*
    Blend: 6-31G*
    Number of shells: 72
    Number of basis function: 153
    Number of Cartesian functions: 153
    Spherical Harmonics?: false
    Max angular momentum: 2

  ==> DFJKGrad: Density-Fitted SCF Gradients <==

    Gradient:                    1
    J tasked:                  Yes
    K tasked:                  Yes
    wK tasked:                  No
    OpenMP threads:              4
    Integrals threads:           4
    Memory (MB):              2002
    Schwarz Cutoff:          0E+00
    Fitting Condition:       1E-12

   => Auxiliary Basis Set <=

  Basis Set: (6-31G* AUX)
    Blend: CC-PVDZ-JKFIT
    Number of shells: 297
    Number of basis function: 954
    Number of Cartesian functions: 954
    Spherical Harmonics?: false
    Max angular momentum: 3

  ==> DFT Potential <==

   => Composite Functional: B3LYP-D3ZERO <= 

    B3LYP-d3zero Hyb-GGA Exchange-Correlation Functional

    P. J. Stephens, F. J. Devlin, C. F. Chabalowski, and M. J. Frisch, J. Phys. Chem. 98, 11623 (1994)

    Deriv               =              1
    GGA                 =           TRUE
    Meta                =          FALSE

    Exchange Hybrid     =           TRUE
    MP2 Hybrid          =          FALSE

   => Exchange Functionals <=

    0.0800   Slater exchange
    0.7200         Becke 88

   => Exact (HF) Exchange <=

    0.2000               HF 

   => Correlation Functionals <=

    0.1900   Vosko, Wilk & Nusair (VWN5_RPA)
    0.8100   Lee, Yang & Parr

   => Molecular Quadrature <=

    Radial Scheme       =       TREUTLER
    Pruning Scheme      =           FLAT
    Nuclear Scheme      =       TREUTLER

    BS radius alpha     =              1
    Pruning alpha       =              1
    Radial Points       =             75
    Spherical Points    =            302
    Total Points        =         396967
    Total Blocks        =           3016
    Max Points          =            256
    Max Functions       =            149


  -Total Gradient:
     Atom            X                  Y                   Z
    ------   -----------------  -----------------  -----------------
       1        0.001929529744    -0.002638687107     0.001309061603
       2        0.000062088281    -0.000129806117    -0.001139821355
       3       -0.000212861847    -0.000550170066     0.000332922241
       4        0.000043412033     0.000164888602     0.000014415226
       5       -0.000180060950    -0.000006851495     0.000098247312
       6        0.000145349756     0.000620192726     0.000158691041
       7        0.002165234752     0.000137073561    -0.008444728525
       8        0.000105089925    -0.000015590736     0.000038475866
       9        0.000001215027     0.000012179709    -0.000065900537
      10        0.000037162485    -0.000010466901    -0.000023603660
      11       -0.000015165864     0.000004226066    -0.000006634531
      12        0.000342067363    -0.000316372227     0.000244831556
      13       -0.004486659920     0.001707767772     0.006532037557
      14       -0.001083471659     0.001913281955     0.000523399752
      15        0.000695678627    -0.000201683636     0.000206141101
      16       -0.000659925649     0.000463901691    -0.000100887761
      17        0.004902878790     0.000005949132     0.003402960883
      18       -0.003794848683    -0.001163007728    -0.003096049169


*** tstop() called on arancio.prib.upf.edu at Sat Sep 29 20:25:17 2018
Module time:
	user time   =      26.46 seconds =       0.44 minutes
	system time =       0.24 seconds =       0.00 minutes
	total time  =          7 seconds =       0.12 minutes
Total time:
	user time   =     126.96 seconds =       2.12 minutes
	system time =       1.02 seconds =       0.02 minutes
	total time  =         38 seconds =       0.63 minutes

			-----------------------------------------
			 OPTKING 2.0: for geometry optimizations 
			  - R.A. King,  Bethel University        
			-----------------------------------------
	At level 1: Red. Int., RFO, no backsteps, dynamic trust

	Internal coordinates to be generated automatically.
	Detected frag 1 with atoms:  1 2 3 4 5 6 7 8 9 10 11 12 13 14 15 16 17 18
	---Fragment 1 Bond Connectivity---
	 1 : 2 6 7
	 2 : 1 3 8
	 3 : 2 4 9
	 4 : 3 5 10
	 5 : 4 6 11
	 6 : 1 5 12
	 7 : 1 13 14
	 8 : 2
	 9 : 3
	 10 : 4
	 11 : 5
	 12 : 6
	 13 : 7 17 18
	 14 : 7 15 16
	 15 : 14
	 16 : 14
	 17 : 13
	 18 : 13

	Assuming in current code that numbering for constraints corresponds to unified fragment.
	Frozen dihedral atom list: 
	     1     7    13    17
	---Fragment 1 Geometry and Gradient---
	 C           0.0000000000        0.0000000000       -0.3361142489
	 C           0.0693113751        2.3042829136        0.9905282984
	 C           0.0600271506        2.2924645663        3.6196645829
	 C           0.0000000000        0.0000000000        4.9323874075
	 C          -0.0600271506       -2.2924645663        3.6196645829
	 C          -0.0693113751       -2.3042848033        0.9905282984
	 C           0.0000000000        0.0000000000       -3.1080968214
	 H           0.0343363238        4.0906996085       -0.0205110874
	 H           0.0801281675        4.0683819429        4.6447314059
	 H           0.0000000000        0.0000000000        6.9839666940
	 H          -0.0801281675       -4.0683819429        4.6447314059
	 H          -0.0343363238       -4.0906996085       -0.0205091977
	 N          -1.3465999450       -1.7119973901       -4.3623590784
	 N           1.3465999450        1.7119973901       -4.3623571887
	 H           1.2726020491        1.9019526610       -6.2663261875
	 H           2.6025119329        2.8080763417       -3.4266706324
	 H          -0.9308809828       -2.1003739049       -6.1873394146
	 H          -2.7195955847       -2.7622145782       -3.5385991112
	             0.0019295297       -0.0026386871        0.0013090616
	             0.0000620883       -0.0001298061       -0.0011398214
	            -0.0002128618       -0.0005501701        0.0003329222
	             0.0000434120        0.0001648886        0.0000144152
	            -0.0001800610       -0.0000068515        0.0000982473
	             0.0001453498        0.0006201927        0.0001586910
	             0.0021652348        0.0001370736       -0.0084447285
	             0.0001050899       -0.0000155907        0.0000384759
	             0.0000012150        0.0000121797       -0.0000659005
	             0.0000371625       -0.0000104669       -0.0000236037
	            -0.0000151659        0.0000042261       -0.0000066345
	             0.0003420674       -0.0003163722        0.0002448316
	            -0.0044866599        0.0017077678        0.0065320376
	            -0.0010834717        0.0019132820        0.0005233998
	             0.0006956786       -0.0002016836        0.0002061411
	            -0.0006599256        0.0004639017       -0.0001008878
	             0.0049028788        0.0000059491        0.0034029609
	            -0.0037948487       -0.0011630077       -0.0030960492

	Previous optimization step data not found.  Starting new optimization.

	---Fragment 1 Intrafragment Coordinates---
	 - Coordinate -           - BOHR/RAD -       - ANG/DEG -
	 R(1,2)           =         2.659794	       1.407502
	 R(1,6)           =         2.659796	       1.407503
	 R(1,7)           =         2.771983	       1.466870
	 R(2,3)           =         2.629179	       1.391302
	 R(2,8)           =         2.052976	       1.086388
	 R(3,4)           =         2.642393	       1.398294
	 R(3,9)           =         2.050622	       1.085142
	 R(4,5)           =         2.642393	       1.398294
	 R(4,10)          =         2.051579	       1.085649
	 R(5,6)           =         2.629179	       1.391302
	 R(5,11)          =         2.050622	       1.085142
	 R(6,12)          =         2.052973	       1.086386
	 R(7,13)          =         2.513452	       1.330061
	 R(7,14)          =         2.513451	       1.330061
	 R(13,17)         =         1.911599	       1.011575
	 R(13,18)         =         1.914851	       1.013295
	 R(14,15)         =         1.914852	       1.013296
	 R(14,16)         =         1.911600	       1.011575
	 B(1,2,3)         =         2.088380	     119.655376
	 B(1,2,8)         =         2.103396	     120.515689
	 B(1,6,5)         =         2.088379	     119.655315
	 B(1,6,12)        =         2.103396	     120.515729
	 B(1,7,13)        =         2.093264	     119.935172
	 B(1,7,14)        =         2.093263	     119.935135
	 B(2,1,6)         =         2.097220	     120.161857
	 B(2,1,7)         =         2.092983	     119.919082
	 B(2,3,4)         =         2.095279	     120.050636
	 B(2,3,9)         =         2.089719	     119.732108
	 B(3,2,8)         =         2.090149	     119.756722
	 B(3,4,5)         =         2.101793	     120.423859
	 B(3,4,10)        =         2.090696	     119.788070
	 B(4,3,9)         =         2.098135	     120.214297
	 B(4,5,6)         =         2.095280	     120.050677
	 B(4,5,11)        =         2.098135	     120.214297
	 B(5,4,10)        =         2.090696	     119.788070
	 B(5,6,12)        =         2.090149	     119.756743
	 B(6,1,7)         =         2.092982	     119.919061
	 B(6,5,11)        =         2.089719	     119.732067
	 B(7,13,17)       =         2.092411	     119.886328
	 B(7,13,18)       =         2.144861	     122.891458
	 B(7,14,15)       =         2.144860	     122.891405
	 B(7,14,16)       =         2.092412	     119.886393
	 B(13,7,14)       =         2.096659	     120.129694
	 B(15,14,16)      =         2.043399	     117.078146
	 B(17,13,18)      =         2.043399	     117.078151
	 D(1,2,3,4)       =         0.007799	       0.446825
	 D(1,2,3,9)       =        -3.122896	    -178.928735
	 D(1,6,5,4)       =         0.007799	       0.446822
	 D(1,6,5,11)      =        -3.122896	    -178.928737
	*D(1,7,13,17)     =        -2.792526	    -159.999973
	 D(1,7,13,18)     =         0.270649	      15.507022
	 D(1,7,14,15)     =        -3.032165	    -173.730230
	 D(1,7,14,16)     =         0.187844	      10.762681
	 D(2,1,6,5)       =        -0.003906	      -0.223802
	 D(2,1,6,12)      =        -3.091437	    -177.126283
	 D(2,1,7,13)      =        -2.505167	    -143.535494
	 D(2,1,7,14)      =         0.636426	      36.464506
	 D(2,3,4,5)       =        -0.003942	      -0.225875
	 D(2,3,4,10)      =         3.137650	     179.774125
	 D(3,2,1,6)       =        -0.003906	      -0.223806
	 D(3,2,1,7)       =         3.137687	     179.776196
	 D(3,4,5,6)       =        -0.003942	      -0.225874
	 D(3,4,5,11)      =         3.126699	     179.146646
	 D(4,3,2,8)       =         3.095744	     177.373058
	 D(4,5,6,12)      =         3.095744	     177.373055
	 D(5,4,3,9)       =         3.126699	     179.146646
	 D(5,6,1,7)       =         3.137687	     179.776197
	 D(6,1,2,8)       =        -3.091437	    -177.126287
	 D(6,1,7,13)      =         0.636426	      36.464508
	 D(6,1,7,14)      =        -2.505167	    -143.535492
	 D(6,5,4,10)      =         3.137650	     179.774126
	 D(7,1,2,8)       =         0.050156	       2.873714
	 D(7,1,6,12)      =         0.050156	       2.873716
	 D(8,2,3,9)       =        -0.034950	      -2.002503
	 D(9,3,4,10)      =        -0.014894	      -0.853354
	 D(10,4,5,11)     =        -0.014894	      -0.853354
	 D(11,5,6,12)     =        -0.034950	      -2.002504
	 D(13,7,14,15)    =         0.109428	       6.269770
	 D(13,7,14,16)    =        -2.953748	    -169.237319
	 D(14,7,13,17)    =         0.349066	      20.000027
	 D(14,7,13,18)    =        -2.870944	    -164.492978

	Current energy   :      -381.4691536203

	Generating empirical Hessian (Schlegel '84) for each fragment.
	Taking RFO optimization step.
	Going to follow RFO solution 1.
	Using RFO vector 1.
	Norm of target step-size    0.18734
	Projected energy change by RFO approximation:         0.0000650033

	Back-transformation to cartesian coordinates...
	Could not converge backtransformation.
	Using first guess instead.

	Back-transformation to cartesian coordinates to adjust frozen coordinates...
	Successfully converged to displaced geometry.

	--- Internal Coordinate Step in ANG or DEG, aJ/ANG or AJ/DEG ---
	 ---------------------------------------------------------------------------
	   Coordinate                Previous        Force       Change         New 
	   ----------                --------       ------       ------       ------
	    1 R(1,2)          =      1.407502     0.005619     0.000918     1.408420
	    2 R(1,6)          =      1.407503    -0.001124    -0.000087     1.407416
	    3 R(1,7)          =      1.466870    -0.007998    -0.001414     1.465456
	    4 R(2,3)          =      1.391302    -0.002468    -0.000248     1.391053
	    5 R(2,8)          =      1.086388     0.000286     0.000084     1.086472
	    6 R(3,4)          =      1.398294     0.002443     0.000395     1.398689
	    7 R(3,9)          =      1.085142     0.000180     0.000139     1.085281
	    8 R(4,5)          =      1.398294     0.001593     0.000378     1.398672
	    9 R(4,10)         =      1.085649     0.000187     0.000085     1.085734
	   10 R(5,6)          =      1.391302    -0.000456     0.000009     1.391311
	   11 R(5,11)         =      1.085142     0.000053     0.000061     1.085203
	   12 R(6,12)         =      1.086386    -0.001319     0.000004     1.086390
	   13 R(7,13)         =      1.330061     0.016316     0.002538     1.332599
	   14 R(7,14)         =      1.330061    -0.004999    -0.000491     1.329570
	   15 R(13,17)        =      1.011575     0.017997     0.002888     1.014463
	   16 R(13,18)        =      1.013295    -0.016697     0.002178     1.015473
	   17 R(14,15)        =      1.013296     0.002084     0.000305     1.013601
	   18 R(14,16)        =      1.011575     0.001778     0.000342     1.011917
	   19 B(1,2,3)        =    119.655376     0.000006     0.026480   119.681857
	   20 B(1,2,8)        =    120.515689    -0.000005    -0.018097   120.497593
	   21 B(1,6,5)        =    119.655315    -0.000007    -0.032914   119.622401
	   22 B(1,6,12)       =    120.515729    -0.000024    -0.111780   120.403949
	   23 B(1,7,13)       =    119.935172     0.000110     0.305547   120.240718
	   24 B(1,7,14)       =    119.935135     0.000064     0.188313   120.123447
	   25 B(2,1,6)        =    120.161857     0.000004     0.015956   120.177812
	   26 B(2,1,7)        =    119.919082     0.000102     0.303522   120.222604
	   27 B(2,3,4)        =    120.050636    -0.000018    -0.061623   119.989013
	   28 B(2,3,9)        =    119.732108     0.000014     0.054154   119.786262
	   29 B(3,2,8)        =    119.756722    -0.000000    -0.000155   119.756567
	   30 B(3,4,5)        =    120.423859     0.000012     0.042166   120.466026
	   31 B(3,4,10)       =    119.788070    -0.000007    -0.027604   119.760466
	   32 B(4,3,9)        =    120.214297     0.000004     0.006510   120.220806
	   33 B(4,5,6)        =    120.050677     0.000002     0.008600   120.059277
	   34 B(4,5,11)       =    120.214297    -0.000001    -0.000324   120.213972
	   35 B(5,4,10)       =    119.788070    -0.000005    -0.014688   119.773382
	   36 B(5,6,12)       =    119.756743     0.000032     0.152259   119.909002
	   37 B(6,1,7)        =    119.919061    -0.000106    -0.319485   119.599576
	   38 B(6,5,11)       =    119.732067    -0.000001    -0.007121   119.724946
	   39 B(7,13,17)      =    119.886328     0.000549     2.462878   122.349206
	   40 B(7,13,18)      =    122.891458    -0.000562    -2.659407   120.232052
	   41 B(7,14,15)      =    122.891405    -0.000025    -0.123282   122.768123
	   42 B(7,14,16)      =    119.886393     0.000002     0.004972   119.891365
	   43 B(13,7,14)      =    120.129694    -0.000174    -0.557070   119.572623
	   44 B(15,14,16)     =    117.078146     0.000022     0.092441   117.170587
	   45 B(17,13,18)     =    117.078151     0.000005    -0.124904   116.953248
	   46 D(1,2,3,4)      =      0.446825    -0.000001    -0.225499     0.221326
	   47 D(1,2,3,9)      =   -178.928735    -0.000001    -0.131477  -179.060213
	   48 D(1,6,5,4)      =      0.446822     0.000001     0.193492     0.640314
	   49 D(1,6,5,11)     =   -178.928737     0.000000     0.056692  -178.872045
	   50 *D(1,7,13,17)   =   -159.999973     0.000000    -0.000000  -159.999973
	   51 D(1,7,13,18)    =     15.507022    -0.000026    -3.576355    11.930667
	   52 D(1,7,14,15)    =   -173.730230     0.000000    -0.162001  -173.892231
	   53 D(1,7,14,16)    =     10.762681     0.000003     0.219415    10.982096
	   54 D(2,1,6,5)      =     -0.223802    -0.000002    -0.435667    -0.659468
	   55 D(2,1,6,12)     =   -177.126283    -0.000004    -0.606766  -177.733049
	   56 D(2,1,7,13)     =   -143.535494    -0.000013    -2.936059  -146.471553
	   57 D(2,1,7,14)     =     36.464506     0.000003    -0.032618    36.431889
	   58 D(2,3,4,5)      =     -0.225875    -0.000000    -0.015665    -0.241541
	   59 D(2,3,4,10)     =    179.774125     0.000001     0.113664   179.887789
	   60 D(3,2,1,6)      =     -0.223806     0.000003     0.451718     0.227912
	   61 D(3,2,1,7)      =    179.776196     0.000003     0.483378   180.259574
	   62 D(3,4,5,6)      =     -0.225874     0.000000     0.031769    -0.194106
	   63 D(3,4,5,11)     =    179.146646     0.000001     0.169201   179.315847
	   64 D(4,3,2,8)      =    177.373058    -0.000000    -0.045737   177.327320
	   65 D(4,5,6,12)     =    177.373055     0.000002     0.355503   177.728558
	   66 D(5,4,3,9)      =    179.146646    -0.000001    -0.109802   179.036844
	   67 D(5,6,1,7)      =    179.776197    -0.000003    -0.467130   179.309067
	   68 D(6,1,2,8)      =   -177.126287     0.000002     0.270026  -176.856261
	   69 D(6,1,7,13)     =     36.464508    -0.000013    -2.904582    33.559925
	   70 D(6,1,7,14)     =   -143.535492     0.000004    -0.001140  -143.536633
	   71 D(6,5,4,10)     =    179.774126    -0.000001    -0.097577   179.676548
	   72 D(7,1,2,8)      =      2.873714     0.000002     0.301686     3.175401
	   73 D(7,1,6,12)     =      2.873716    -0.000004    -0.638229     2.235487
	   74 D(8,2,3,9)      =     -2.002503     0.000000     0.048284    -1.954218
	   75 D(9,3,4,10)     =     -0.853354     0.000000     0.019527    -0.833826
	   76 D(10,4,5,11)    =     -0.853354     0.000000     0.039855    -0.813499
	   77 D(11,5,6,12)    =     -2.002504     0.000001     0.218703    -1.783801
	   78 D(13,7,14,15)   =      6.269770     0.000017     2.722016     8.991787
	   79 D(13,7,14,16)   =   -169.237319     0.000020     3.103432  -166.133887
	   80 D(14,7,13,17)   =     20.000027    -0.000017    -2.887455    17.112572
	   81 D(14,7,13,18)   =   -164.492978    -0.000043    -6.463810  -170.956788
	 ---------------------------------------------------------------------------
	Successfully symmetrized geometry.

  ==> Convergence Check <==

  Measures of convergence in internal coordinates in au.
  Criteria marked as inactive (o), active & met (*), and active & unmet ( ).
  --------------------------------------------------------------------------------------------- ~
   Step     Total Energy     Delta E     MAX Force     RMS Force      MAX Disp      RMS Disp    ~
  --------------------------------------------------------------------------------------------- ~
    Convergence Criteria    1.00e-06 *    3.00e-04 *             o    1.20e-03 *             o  ~
  --------------------------------------------------------------------------------------------- ~
      1    -381.46915362   -3.81e+02      7.38e-03      1.35e-03 o    1.13e-01      2.06e-02 o  ~
  ---------------------------------------------------------------------------------------------

	Writing optimization data to binary file.
	Structure for next step:
	Cartesian Geometry (in Angstrom)
	    C    -0.0146130964   0.0155435385  -0.1786133896
	    C     0.0363582447   1.2306535419   0.5317086374
	    C     0.0435697939   1.2156466598   1.9226624216
	    C     0.0049864060  -0.0025257376   2.6088817828
	    C    -0.0460627262  -1.2108972869   1.9063752242
	    C    -0.0628898767  -1.2080391544   0.5151691376
	    C    -0.0170131644   0.0173047706  -1.6440662100
	    H     0.0224347595   2.1795615578   0.0027464671
	    H     0.0673757209   2.1514414615   2.4718046052
	    H     0.0126106846  -0.0099757852   3.6945637070
	    H    -0.0646833876  -2.1540734684   2.4427868299
	    H    -0.0652380610  -2.1486177933  -0.0284756537
	    N    -0.6927554010  -0.9147580796  -2.3152233968
	    N     0.7021413388   0.9146324414  -2.3114312269
	    H     0.6606064878   1.0109932135  -3.3195863479
	    H     1.3771233039   1.4863701324  -1.8200129262
	    H    -0.4939530358  -1.1366986632  -3.2849420626
	    H    -1.3511249910  -1.5172933489  -1.8307785992
			--------------------------
			 OPTKING Finished Execution 
			--------------------------

    Structure for next step:
    Molecular point group: c1
    Full point group: C1

    Geometry (in Angstrom), charge = 1, multiplicity = 1:

    C           -0.014613096424     0.015543538496    -0.178613389621
    C            0.036358244696     1.230653541924     0.531708637441
    C            0.043569793896     1.215646659827     1.922662421647
    C            0.004986406003    -0.002525737617     2.608881782755
    C           -0.046062726247    -1.210897286856     1.906375224236
    C           -0.062889876655    -1.208039154434     0.515169137603
    C           -0.017013164431     0.017304770580    -1.644066209998
    H            0.022434759506     2.179561557808     0.002746467051
    H            0.067375720915     2.151441461482     2.471804605238
    H            0.012610684608    -0.009975785233     3.694563707016
    H           -0.064683387616    -2.154073468364     2.442786829897
    H           -0.065238061021    -2.148617793344    -0.028475653727
    N           -0.692755400957    -0.914758079556    -2.315223396824
    N            0.702141338767     0.914632441442    -2.311431226904
    H            0.660606487810     1.010993213509    -3.319586347853
    H            1.377123303916     1.486370132409    -1.820012926151
    H           -0.493953035761    -1.136698663152    -3.284942062586
    H           -1.351124991005    -1.517293348923    -1.830778599220

gradient() will perform analytic gradient computation.

*** tstart() called on arancio.prib.upf.edu
*** at Sat Sep 29 20:25:18 2018

   => Loading Basis Set <=

    Name: 6-31G*
    Role: ORBITAL
    Keyword: BASIS
    atoms 1-7         entry C          line   111 file /shared/joao/test_parameterize/miniconda3/share/psi4/basis/6-31gs.gbs 
    atoms 8-12, 15-18 entry H          line    44 file /shared/joao/test_parameterize/miniconda3/share/psi4/basis/6-31gs.gbs 
    atoms 13-14       entry N          line   128 file /shared/joao/test_parameterize/miniconda3/share/psi4/basis/6-31gs.gbs 


         ---------------------------------------------------------
                                   SCF
            by Justin Turney, Rob Parrish, Andy Simmonett
                             and Daniel Smith
                              RKS Reference
                        4 Threads,   2861 MiB Core
         ---------------------------------------------------------

  ==> Geometry <==

    Molecular point group: c1
    Full point group: C1

    Geometry (in Angstrom), charge = 1, multiplicity = 1:

       Center              X                  Y                   Z               Mass       
    ------------   -----------------  -----------------  -----------------  -----------------
         C           -0.014613096424     0.015543538496    -0.178613389621    12.000000000000
         C            0.036358244696     1.230653541924     0.531708637441    12.000000000000
         C            0.043569793896     1.215646659827     1.922662421647    12.000000000000
         C            0.004986406003    -0.002525737617     2.608881782755    12.000000000000
         C           -0.046062726247    -1.210897286856     1.906375224236    12.000000000000
         C           -0.062889876655    -1.208039154434     0.515169137603    12.000000000000
         C           -0.017013164431     0.017304770580    -1.644066209998    12.000000000000
         H            0.022434759506     2.179561557808     0.002746467051     1.007825032070
         H            0.067375720915     2.151441461482     2.471804605238     1.007825032070
         H            0.012610684608    -0.009975785233     3.694563707016     1.007825032070
         H           -0.064683387616    -2.154073468364     2.442786829897     1.007825032070
         H           -0.065238061021    -2.148617793344    -0.028475653727     1.007825032070
         N           -0.692755400957    -0.914758079556    -2.315223396824    14.003074004780
         N            0.702141338767     0.914632441442    -2.311431226904    14.003074004780
         H            0.660606487810     1.010993213509    -3.319586347853     1.007825032070
         H            1.377123303916     1.486370132409    -1.820012926151     1.007825032070
         H           -0.493953035761    -1.136698663152    -3.284942062586     1.007825032070
         H           -1.351124991005    -1.517293348923    -1.830778599220     1.007825032070

  Running in c1 symmetry.

  Rotational constants: A =      0.12189  B =      0.03964  C =      0.03121 [cm^-1]
  Rotational constants: A =   3654.12649  B =   1188.35125  C =    935.68361 [MHz]
  Nuclear repulsion =  416.855980983951042

  Charge       = 1
  Multiplicity = 1
  Electrons    = 64
  Nalpha       = 32
  Nbeta        = 32

  ==> Algorithm <==

  SCF Algorithm Type is DF.
  DIIS enabled.
  MOM disabled.
  Fractional occupation disabled.
  Guess Type is READ.
  Energy threshold   = 1.00e-08
  Density threshold  = 1.00e-08
  Integral threshold = 0.00e+00

  ==> Primary Basis <==

  Basis Set: 6-31G*
    Blend: 6-31G*
    Number of shells: 72
    Number of basis function: 153
    Number of Cartesian functions: 153
    Spherical Harmonics?: false
    Max angular momentum: 2

  ==> DFT Potential <==

   => Composite Functional: B3LYP-D3ZERO <= 

    B3LYP-d3zero Hyb-GGA Exchange-Correlation Functional

    P. J. Stephens, F. J. Devlin, C. F. Chabalowski, and M. J. Frisch, J. Phys. Chem. 98, 11623 (1994)

    Deriv               =              1
    GGA                 =           TRUE
    Meta                =          FALSE

    Exchange Hybrid     =           TRUE
    MP2 Hybrid          =          FALSE

   => Exchange Functionals <=

    0.0800   Slater exchange
    0.7200         Becke 88

   => Exact (HF) Exchange <=

    0.2000               HF 

   => Correlation Functionals <=

    0.1900   Vosko, Wilk & Nusair (VWN5_RPA)
    0.8100   Lee, Yang & Parr

   => Molecular Quadrature <=

    Radial Scheme       =       TREUTLER
    Pruning Scheme      =           FLAT
    Nuclear Scheme      =       TREUTLER

    BS radius alpha     =              1
    Pruning alpha       =              1
    Radial Points       =             75
    Spherical Points    =            302
    Total Points        =         396943
    Total Blocks        =           3022
    Max Points          =            256
    Max Functions       =            149

   => -D3ZERO: Empirical Dispersion <=

    Grimme's -D3 (zero-damping) Dispersion Correction
    Grimme S.; Antony J.; Ehrlich S.; Krieg H. (2010), J. Chem. Phys., 132: 154104

        S6 =   1.000000E+00
        S8 =   1.703000E+00
       SR6 =   1.261000E+00
       SR8 =   1.000000E+00
    ALPHA6 =   1.400000E+01

   => Loading Basis Set <=

    Name: (6-31G* AUX)
    Role: JKFIT
    Keyword: DF_BASIS_SCF
    atoms 1-7         entry C          line   121 file /shared/joao/test_parameterize/miniconda3/share/psi4/basis/cc-pvdz-jkfit.gbs 
    atoms 8-12, 15-18 entry H          line    51 file /shared/joao/test_parameterize/miniconda3/share/psi4/basis/cc-pvdz-jkfit.gbs 
    atoms 13-14       entry N          line   171 file /shared/joao/test_parameterize/miniconda3/share/psi4/basis/cc-pvdz-jkfit.gbs 

  Reading orbitals from file 180, no projection.

  ==> Pre-Iterations <==

   -------------------------------------------------------
    Irrep   Nso     Nmo     Nalpha   Nbeta   Ndocc  Nsocc
   -------------------------------------------------------
     A        153     153       0       0       0       0
   -------------------------------------------------------
    Total     153     153      32      32      32       0
   -------------------------------------------------------

  ==> Integral Setup <==

  ==> DiskDFJK: Density-Fitted J/K Matrices <==

    J tasked:                  Yes
    K tasked:                  Yes
    wK tasked:                  No
    OpenMP threads:              4
    Integrals threads:           4
    Memory (MB):              2002
    Algorithm:                Core
    Integral Cache:           NONE
    Schwarz Cutoff:          1E-12
    Fitting Condition:       1E-12

   => Auxiliary Basis Set <=

  Basis Set: (6-31G* AUX)
    Blend: CC-PVDZ-JKFIT
    Number of shells: 297
    Number of basis function: 954
    Number of Cartesian functions: 954
    Spherical Harmonics?: false
    Max angular momentum: 3

  Minimum eigenvalue in the overlap matrix is 4.8708159175E-04.
  Using Symmetric Orthogonalization.

  SCF Guess: Orbitals guess was supplied from a previous computation.

  ==> Iterations <==

                           Total Energy        Delta E     RMS |[F,P]|

   @DF-RKS iter   0:  -381.46353896515518   -3.81464e+02   8.93225e-04 
   @DF-RKS iter   1:  -381.46965636043473   -6.11740e-03   1.03226e-04 
   @DF-RKS iter   2:  -381.46965406162468    2.29881e-06   1.28468e-04 DIIS
   @DF-RKS iter   3:  -381.46969908978247   -4.50282e-05   3.31456e-05 DIIS
   @DF-RKS iter   4:  -381.46970172295659   -2.63317e-06   1.33950e-05 DIIS
   @DF-RKS iter   5:  -381.46970219451856   -4.71562e-07   4.10630e-06 DIIS
   @DF-RKS iter   6:  -381.46970224175828   -4.72397e-08   1.35999e-06 DIIS
   @DF-RKS iter   7:  -381.46970224726124   -5.50295e-09   3.81238e-07 DIIS
   @DF-RKS iter   8:  -381.46970224766420   -4.02963e-10   1.06918e-07 DIIS
   @DF-RKS iter   9:  -381.46970224769672   -3.25144e-11   3.14231e-08 DIIS
   @DF-RKS iter  10:  -381.46970224769893   -2.21689e-12   1.69872e-08 DIIS
   @DF-RKS iter  11:  -381.46970224769996   -1.02318e-12   2.52008e-09 DIIS

  ==> Post-Iterations <==

    Orbital Energies [Eh]
    ---------------------

    Doubly Occupied:                                                      

       1A    -14.567605     2A    -14.566317     3A    -10.496343  
       4A    -10.373396     5A    -10.357267     6A    -10.356751  
       7A    -10.344305     8A    -10.341268     9A    -10.341123  
      10A     -1.182610    11A     -1.089996    12A     -1.014779  
      13A     -0.926746    14A     -0.902920    15A     -0.844715  
      16A     -0.784774    17A     -0.772730    18A     -0.741158  
      19A     -0.732619    20A     -0.688672    21A     -0.669716  
      22A     -0.626439    23A     -0.615916    24A     -0.585711  
      25A     -0.579839    26A     -0.572445    27A     -0.519009  
      28A     -0.506187    29A     -0.498752    30A     -0.471814  
      31A     -0.412825    32A     -0.406446  

    Virtual:                                                              

      33A     -0.219905    34A     -0.157959    35A     -0.127315  
      36A     -0.106094    37A     -0.068795    38A     -0.060221  
      39A     -0.038628    40A     -0.033762    41A      0.006825  
      42A      0.019394    43A      0.020870    44A      0.055653  
      45A      0.061519    46A      0.084952    47A      0.127086  
      48A      0.144112    49A      0.156858    50A      0.158262  
      51A      0.203111    52A      0.241856    53A      0.297814  
      54A      0.351496    55A      0.355116    56A      0.380255  
      57A      0.387813    58A      0.397506    59A      0.421470  
      60A      0.421829    61A      0.441557    62A      0.447182  
      63A      0.453268    64A      0.470805    65A      0.473284  
      66A      0.474628    67A      0.485788    68A      0.512851  
      69A      0.528786    70A      0.532528    71A      0.542680  
      72A      0.590448    73A      0.606279    74A      0.656629  
      75A      0.661528    76A      0.682579    77A      0.689920  
      78A      0.702886    79A      0.715792    80A      0.719424  
      81A      0.737816    82A      0.771692    83A      0.774130  
      84A      0.794188    85A      0.810796    86A      0.822356  
      87A      0.850870    88A      0.942435    89A      0.961272  
      90A      0.995704    91A      1.002483    92A      1.027181  
      93A      1.071815    94A      1.079565    95A      1.133353  
      96A      1.151058    97A      1.216341    98A      1.271290  
      99A      1.282013   100A      1.301880   101A      1.319764  
     102A      1.342421   103A      1.360281   104A      1.366986  
     105A      1.448550   106A      1.467276   107A      1.490790  
     108A      1.608540   109A      1.621143   110A      1.653025  
     111A      1.657248   112A      1.736872   113A      1.752188  
     114A      1.797715   115A      1.824866   116A      1.843803  
     117A      1.902670   118A      1.910635   119A      1.955442  
     120A      1.972109   121A      1.996519   122A      2.014754  
     123A      2.035212   124A      2.065157   125A      2.123794  
     126A      2.129454   127A      2.151029   128A      2.212622  
     129A      2.226717   130A      2.280228   131A      2.351297  
     132A      2.365344   133A      2.444923   134A      2.451351  
     135A      2.488360   136A      2.512986   137A      2.548688  
     138A      2.587170   139A      2.602076   140A      2.629939  
     141A      2.736818   142A      2.877964   143A      2.983341  
     144A      3.258268   145A      3.638777   146A      3.655958  
     147A      3.910742   148A      3.946680   149A      3.962834  
     150A      4.051549   151A      4.172680   152A      4.257090  
     153A      4.545943  

    Final Occupation by Irrep:
              A 
    DOCC [    32 ]

  Energy converged.

  @DF-RKS Final Energy:  -381.46970224769996

   => Energetics <=

    Nuclear Repulsion Energy =            416.8559809839510422
    One-Electron Energy =               -1328.9229331180174540
    Two-Electron Energy =                 575.0124500902608133
    DFT Exchange-Correlation Energy =     -44.4032660038943376
    Empirical Dispersion Energy =          -0.0119342000000000
    VV10 Nonlocal Energy =                  0.0000000000000000
    Total Energy =                       -381.4697022476999564



Properties will be evaluated at   0.000000,   0.000000,   0.000000 [a0]

Properties computed using the SCF density matrix

  Nuclear Dipole Moment: [e a0]
     X:    -0.1949      Y:     0.3911      Z:    -0.1621

  Electronic Dipole Moment: [e a0]
     X:     0.3088      Y:    -0.4648      Z:    -2.0385

  Dipole Moment: [e a0]
     X:     0.1139      Y:    -0.0738      Z:    -2.2006     Total:     2.2048

  Dipole Moment: [D]
     X:     0.2896      Y:    -0.1875      Z:    -5.5934     Total:     5.6040


*** tstop() called on arancio.prib.upf.edu at Sat Sep 29 20:25:42 2018
Module time:
	user time   =      78.97 seconds =       1.32 minutes
	system time =       0.69 seconds =       0.01 minutes
	total time  =         24 seconds =       0.40 minutes
Total time:
	user time   =     206.83 seconds =       3.45 minutes
	system time =       1.77 seconds =       0.03 minutes
	total time  =         63 seconds =       1.05 minutes

*** tstart() called on arancio.prib.upf.edu
*** at Sat Sep 29 20:25:42 2018


         ------------------------------------------------------------
                                   SCF GRAD                          
                          Rob Parrish, Justin Turney,                
                       Andy Simmonett, and Alex Sokolov              
         ------------------------------------------------------------

  ==> Geometry <==

    Molecular point group: c1
    Full point group: C1

    Geometry (in Angstrom), charge = 1, multiplicity = 1:

       Center              X                  Y                   Z               Mass       
    ------------   -----------------  -----------------  -----------------  -----------------
         C           -0.014613096424     0.015543538496    -0.178613389621    12.000000000000
         C            0.036358244696     1.230653541924     0.531708637441    12.000000000000
         C            0.043569793896     1.215646659827     1.922662421647    12.000000000000
         C            0.004986406003    -0.002525737617     2.608881782755    12.000000000000
         C           -0.046062726247    -1.210897286856     1.906375224236    12.000000000000
         C           -0.062889876655    -1.208039154434     0.515169137603    12.000000000000
         C           -0.017013164431     0.017304770580    -1.644066209998    12.000000000000
         H            0.022434759506     2.179561557808     0.002746467051     1.007825032070
         H            0.067375720915     2.151441461482     2.471804605238     1.007825032070
         H            0.012610684608    -0.009975785233     3.694563707016     1.007825032070
         H           -0.064683387616    -2.154073468364     2.442786829897     1.007825032070
         H           -0.065238061021    -2.148617793344    -0.028475653727     1.007825032070
         N           -0.692755400957    -0.914758079556    -2.315223396824    14.003074004780
         N            0.702141338767     0.914632441442    -2.311431226904    14.003074004780
         H            0.660606487810     1.010993213509    -3.319586347853     1.007825032070
         H            1.377123303916     1.486370132409    -1.820012926151     1.007825032070
         H           -0.493953035761    -1.136698663152    -3.284942062586     1.007825032070
         H           -1.351124991005    -1.517293348923    -1.830778599220     1.007825032070

  Nuclear repulsion =  416.855980983951042

  ==> Basis Set <==

  Basis Set: 6-31G*
    Blend: 6-31G*
    Number of shells: 72
    Number of basis function: 153
    Number of Cartesian functions: 153
    Spherical Harmonics?: false
    Max angular momentum: 2

  ==> DFJKGrad: Density-Fitted SCF Gradients <==

    Gradient:                    1
    J tasked:                  Yes
    K tasked:                  Yes
    wK tasked:                  No
    OpenMP threads:              4
    Integrals threads:           4
    Memory (MB):              2002
    Schwarz Cutoff:          0E+00
    Fitting Condition:       1E-12

   => Auxiliary Basis Set <=

  Basis Set: (6-31G* AUX)
    Blend: CC-PVDZ-JKFIT
    Number of shells: 297
    Number of basis function: 954
    Number of Cartesian functions: 954
    Spherical Harmonics?: false
    Max angular momentum: 3

  ==> DFT Potential <==

   => Composite Functional: B3LYP-D3ZERO <= 

    B3LYP-d3zero Hyb-GGA Exchange-Correlation Functional

    P. J. Stephens, F. J. Devlin, C. F. Chabalowski, and M. J. Frisch, J. Phys. Chem. 98, 11623 (1994)

    Deriv               =              1
    GGA                 =           TRUE
    Meta                =          FALSE

    Exchange Hybrid     =           TRUE
    MP2 Hybrid          =          FALSE

   => Exchange Functionals <=

    0.0800   Slater exchange
    0.7200         Becke 88

   => Exact (HF) Exchange <=

    0.2000               HF 

   => Correlation Functionals <=

    0.1900   Vosko, Wilk & Nusair (VWN5_RPA)
    0.8100   Lee, Yang & Parr

   => Molecular Quadrature <=

    Radial Scheme       =       TREUTLER
    Pruning Scheme      =           FLAT
    Nuclear Scheme      =       TREUTLER

    BS radius alpha     =              1
    Pruning alpha       =              1
    Radial Points       =             75
    Spherical Points    =            302
    Total Points        =         396943
    Total Blocks        =           3022
    Max Points          =            256
    Max Functions       =            149


  -Total Gradient:
     Atom            X                  Y                   Z
    ------   -----------------  -----------------  -----------------
       1        0.003128682917    -0.002322402953     0.000644503436
       2       -0.000177598856     0.000133949030     0.000096179836
       3       -0.000012303960     0.000051114461     0.000187047588
       4        0.000024393644     0.000133809804     0.000116130684
       5        0.000129655300     0.000162261272     0.000054355105
       6       -0.000058501175    -0.000112573496    -0.000647572746
       7       -0.003874553794     0.005579947556    -0.000204157289
       8       -0.000011163025     0.000095078321     0.000137125218
       9        0.000004175830     0.000102055991     0.000050395793
      10       -0.000052862664     0.000046363015     0.000041640825
      11       -0.000005922587    -0.000062394657    -0.000034918724
      12       -0.000397467485     0.000078710759    -0.000596951041
      13        0.000847709284     0.002542321505    -0.001232475836
      14       -0.000555138321    -0.001426860075     0.000062245838
      15        0.000147353498     0.000081247271    -0.000201300058
      16        0.000610082479    -0.000476992994     0.000148594053
      17        0.002617675149    -0.002233056366     0.000003152825
      18       -0.002367431601    -0.002370757977     0.001354817896


*** tstop() called on arancio.prib.upf.edu at Sat Sep 29 20:25:48 2018
Module time:
	user time   =      22.95 seconds =       0.38 minutes
	system time =       0.21 seconds =       0.00 minutes
	total time  =          6 seconds =       0.10 minutes
Total time:
	user time   =     229.82 seconds =       3.83 minutes
	system time =       1.99 seconds =       0.03 minutes
	total time  =         69 seconds =       1.15 minutes

			-----------------------------------------
			 OPTKING 2.0: for geometry optimizations 
			  - R.A. King,  Bethel University        
			-----------------------------------------
	At level 1: Red. Int., RFO, no backsteps, dynamic trust

	Previous internal coordinate definitions found.
	---Fragment 1 Geometry and Gradient---
	 C          -0.0276147502        0.0293730309       -0.3375303901
	 C           0.0687071251        2.3255981587        1.0047837073
	 C           0.0823349781        2.2972392614        3.6333054229
	 C           0.0094229417       -0.0047729524        4.9300720825
	 C          -0.0870459375       -2.2882642472        3.6025270803
	 C          -0.1188446434       -2.2828631597        0.9735285822
	 C          -0.0321502214        0.0327012772       -3.1068348812
	 H           0.0423955513        4.1187744340        0.0051900706
	 H           0.1273216605        4.0656351531        4.6710337579
	 H           0.0238307403       -0.0188515021        6.9817135868
	 H          -0.1222338879       -4.0706089253        4.6161981095
	 H          -0.1232820688       -4.0602991937       -0.0538111870
	 N          -1.3091179849       -1.7286422482       -4.3751381564
	 N           1.3268548368        1.7284048266       -4.3679719938
	 H           1.2483653436        1.9105002957       -6.2731090719
	 H           2.6023858956        2.8088324824       -3.4393259887
	 H          -0.9334359601       -2.1480491690       -6.2076408607
	 H          -2.5532562043       -2.8672688927       -3.4596701625
	             0.0031286829       -0.0023224030        0.0006445034
	            -0.0001775989        0.0001339490        0.0000961798
	            -0.0000123040        0.0000511145        0.0001870476
	             0.0000243936        0.0001338098        0.0001161307
	             0.0001296553        0.0001622613        0.0000543551
	            -0.0000585012       -0.0001125735       -0.0006475727
	            -0.0038745538        0.0055799476       -0.0002041573
	            -0.0000111630        0.0000950783        0.0001371252
	             0.0000041758        0.0001020560        0.0000503958
	            -0.0000528627        0.0000463630        0.0000416408
	            -0.0000059226       -0.0000623947       -0.0000349187
	            -0.0003974675        0.0000787108       -0.0005969510
	             0.0008477093        0.0025423215       -0.0012324758
	            -0.0005551383       -0.0014268601        0.0000622458
	             0.0001473535        0.0000812473       -0.0002013001
	             0.0006100825       -0.0004769930        0.0001485941
	             0.0026176751       -0.0022330564        0.0000031528
	            -0.0023674316       -0.0023707580        0.0013548179

	---Fragment 1 Intrafragment Coordinates---
	 - Coordinate -           - BOHR/RAD -       - ANG/DEG -
	 R(1,2)           =         2.661529	       1.408420
	 R(1,6)           =         2.659631	       1.407416
	 R(1,7)           =         2.769310	       1.465456
	 R(2,3)           =         2.628710	       1.391053
	 R(2,8)           =         2.053134	       1.086472
	 R(3,4)           =         2.643138	       1.398689
	 R(3,9)           =         2.050885	       1.085281
	 R(4,5)           =         2.643107	       1.398672
	 R(4,10)          =         2.051740	       1.085734
	 R(5,6)           =         2.629196	       1.391311
	 R(5,11)          =         2.050736	       1.085203
	 R(6,12)          =         2.052980	       1.086390
	 R(7,13)          =         2.518248	       1.332599
	 R(7,14)          =         2.512523	       1.329570
	 R(13,17)         =         1.917056	       1.014463
	 R(13,18)         =         1.918966	       1.015473
	 R(14,15)         =         1.915429	       1.013601
	 R(14,16)         =         1.912247	       1.011917
	 B(1,2,3)         =         2.088842	     119.681857
	 B(1,2,8)         =         2.103080	     120.497593
	 B(1,6,5)         =         2.087805	     119.622401
	 B(1,6,12)        =         2.101445	     120.403949
	 B(1,7,13)        =         2.098596	     120.240718
	 B(1,7,14)        =         2.096550	     120.123447
	 B(2,1,6)         =         2.097499	     120.177812
	 B(2,1,7)         =         2.098280	     120.222604
	 B(2,3,4)         =         2.094203	     119.989013
	 B(2,3,9)         =         2.090665	     119.786262
	 B(3,2,8)         =         2.090146	     119.756567
	 B(3,4,5)         =         2.102529	     120.466026
	 B(3,4,10)        =         2.090214	     119.760466
	 B(4,3,9)         =         2.098249	     120.220806
	 B(4,5,6)         =         2.095430	     120.059277
	 B(4,5,11)        =         2.098130	     120.213972
	 B(5,4,10)        =         2.090440	     119.773382
	 B(5,6,12)        =         2.092807	     119.909002
	 B(6,1,7)         =         2.087406	     119.599576
	 B(6,5,11)        =         2.089595	     119.724946
	 B(7,13,17)       =         2.135396	     122.349206
	 B(7,13,18)       =         2.098445	     120.232052
	 B(7,14,15)       =         2.142708	     122.768123
	 B(7,14,16)       =         2.092499	     119.891365
	 B(13,7,14)       =         2.086936	     119.572623
	 B(15,14,16)      =         2.045013	     117.170587
	 B(17,13,18)      =         2.041219	     116.953248
	 D(1,2,3,4)       =         0.003863	       0.221326
	 D(1,2,3,9)       =        -3.125190	    -179.060213
	 D(1,6,5,4)       =         0.011176	       0.640314
	 D(1,6,5,11)      =        -3.121906	    -178.872045
	*D(1,7,13,17)     =        -2.792526	    -159.999973
	 D(1,7,13,18)     =         0.208229	      11.930667
	 D(1,7,14,15)     =        -3.034992	    -173.892231
	 D(1,7,14,16)     =         0.191674	      10.982096
	 D(2,1,6,5)       =        -0.011510	      -0.659468
	 D(2,1,6,12)      =        -3.102027	    -177.733049
	 D(2,1,7,13)      =        -2.556411	    -146.471553
	 D(2,1,7,14)      =         0.635856	      36.431889
	 D(2,3,4,5)       =        -0.004216	      -0.241541
	 D(2,3,4,10)      =         3.139634	     179.887789
	 D(3,2,1,6)       =         0.003978	       0.227912
	 D(3,2,1,7)       =        -3.137062	    -179.740426
	 D(3,4,5,6)       =        -0.003388	      -0.194106
	 D(3,4,5,11)      =         3.129652	     179.315847
	 D(4,3,2,8)       =         3.094946	     177.327320
	 D(4,5,6,12)      =         3.101949	     177.728558
	 D(5,4,3,9)       =         3.124782	     179.036844
	 D(5,6,1,7)       =         3.129534	     179.309067
	 D(6,1,2,8)       =        -3.086724	    -176.856261
	 D(6,1,7,13)      =         0.585731	      33.559925
	 D(6,1,7,14)      =        -2.505187	    -143.536633
	 D(6,5,4,10)      =         3.135947	     179.676548
	 D(7,1,2,8)       =         0.055421	       3.175401
	 D(7,1,6,12)      =         0.039017	       2.235487
	 D(8,2,3,9)       =        -0.034108	      -1.954218
	 D(9,3,4,10)      =        -0.014553	      -0.833826
	 D(10,4,5,11)     =        -0.014198	      -0.813499
	 D(11,5,6,12)     =        -0.031133	      -1.783801
	 D(13,7,14,15)    =         0.156936	       8.991787
	 D(13,7,14,16)    =        -2.899583	    -166.133887
	 D(14,7,13,17)    =         0.298671	      17.112572
	 D(14,7,13,18)    =        -2.983759	    -170.956788

	Current energy   :      -381.4697022477

	Energy change for the previous step:
		Projected    :         0.0000650033
		Actual       :        -0.0005486274

	Performing BFGS update.
	Previous computed or guess Hessian on step 1.
	Steps to be used in Hessian update: 1
	Taking RFO optimization step.
	Going to follow RFO solution 1.
	Using RFO vector 1.
	Norm of target step-size    0.10076
	Projected energy change by RFO approximation:        -0.0003265316

	Back-transformation to cartesian coordinates...
	Could not converge backtransformation.
	Using first guess instead.

	Back-transformation to cartesian coordinates to adjust frozen coordinates...
	Successfully converged to displaced geometry.

	--- Internal Coordinate Step in ANG or DEG, aJ/ANG or AJ/DEG ---
	 ---------------------------------------------------------------------------
	   Coordinate                Previous        Force       Change         New 
	   ----------                --------       ------       ------       ------
	    1 R(1,2)          =      1.408420    -0.003674    -0.000272     1.408148
	    2 R(1,6)          =      1.407416     0.006496     0.000815     1.408231
	    3 R(1,7)          =      1.465456    -0.000553    -0.000305     1.465151
	    4 R(2,3)          =      1.391053    -0.001534    -0.000228     1.390826
	    5 R(2,8)          =      1.086472    -0.000131     0.000007     1.086479
	    6 R(3,4)          =      1.398689    -0.000534    -0.000004     1.398685
	    7 R(3,9)          =      1.085281    -0.000941    -0.000118     1.085163
	    8 R(4,5)          =      1.398672    -0.002896    -0.000272     1.398400
	    9 R(4,10)         =      1.085734    -0.000347    -0.000032     1.085702
	   10 R(5,6)          =      1.391311    -0.001935    -0.000194     1.391117
	   11 R(5,11)         =      1.085203    -0.000310    -0.000021     1.085182
	   12 R(6,12)         =      1.086390    -0.001902    -0.000221     1.086169
	   13 R(7,13)         =      1.332599    -0.006756     0.000272     1.332871
	   14 R(7,14)         =      1.329570     0.009285     0.000795     1.330365
	   15 R(13,17)        =      1.014463    -0.008219    -0.000429     1.014033
	   16 R(13,18)        =      1.015473    -0.029563    -0.003779     1.011694
	   17 R(14,15)        =      1.013601    -0.001653     0.000054     1.013655
	   18 R(14,16)        =      1.011917    -0.001733    -0.000113     1.011804
	   19 B(1,2,3)        =    119.681857     0.000012     0.034779   119.716636
	   20 B(1,2,8)        =    120.497593    -0.000019    -0.071481   120.426111
	   21 B(1,6,5)        =    119.622401     0.000014     0.039227   119.661627
	   22 B(1,6,12)       =    120.403949     0.000036     0.118789   120.522738
	   23 B(1,7,13)       =    120.240718     0.000091     0.301400   120.542118
	   24 B(1,7,14)       =    120.123447    -0.000091    -0.162801   119.960647
	   25 B(2,1,6)        =    120.177812    -0.000030    -0.067396   120.110416
	   26 B(2,1,7)        =    120.222604    -0.000106    -0.216545   120.006059
	   27 B(2,3,4)        =    119.989013     0.000010     0.009536   119.998549
	   28 B(2,3,9)        =    119.786262    -0.000005     0.001884   119.788146
	   29 B(3,2,8)        =    119.756567     0.000007     0.035409   119.791976
	   30 B(3,4,5)        =    120.466026     0.000000     0.000665   120.466691
	   31 B(3,4,10)       =    119.760466     0.000003     0.012812   119.773278
	   32 B(4,3,9)        =    120.220806    -0.000006    -0.011212   120.209595
	   33 B(4,5,6)        =    120.059277    -0.000006    -0.015042   120.044235
	   34 B(4,5,11)       =    120.213972    -0.000002    -0.011129   120.202843
	   35 B(5,4,10)       =    119.773382    -0.000004    -0.013369   119.760013
	   36 B(5,6,12)       =    119.909002    -0.000050    -0.173121   119.735881
	   37 B(6,1,7)        =    119.599576     0.000136     0.281317   119.880893
	   38 B(6,5,11)       =    119.724946     0.000008     0.024471   119.749417
	   39 B(7,13,17)      =    122.349206     0.000054     0.587661   122.936866
	   40 B(7,13,18)      =    120.232052    -0.000060    -0.801777   119.430275
	   41 B(7,14,15)      =    122.768123    -0.000023    -0.082402   122.685721
	   42 B(7,14,16)      =    119.891365     0.000028     0.141983   120.033347
	   43 B(13,7,14)      =    119.572623     0.000003    -0.076188   119.496435
	   44 B(15,14,16)     =    117.170587    -0.000001     0.026125   117.196712
	   45 B(17,13,18)     =    116.953248     0.000002    -0.059573   116.893674
	   46 D(1,2,3,4)      =      0.221326     0.000001     0.062067     0.283393
	   47 D(1,2,3,9)      =   -179.060213     0.000000     0.042816  -179.017396
	   48 D(1,6,5,4)      =      0.640314    -0.000001    -0.161144     0.479170
	   49 D(1,6,5,11)     =   -178.872045     0.000000     0.030866  -178.841180
	   50 *D(1,7,13,17)   =   -159.999973    -0.000000     0.000000  -159.999973
	   51 D(1,7,13,18)    =     11.930667    -0.000009    -2.093152     9.837515
	   52 D(1,7,14,15)    =   -173.892231     0.000011     1.656698  -172.235533
	   53 D(1,7,14,16)    =     10.982096    -0.000000     0.214544    11.196639
	   54 D(2,1,6,5)      =     -0.659468     0.000002     0.319499    -0.339969
	   55 D(2,1,6,12)     =   -177.733049     0.000005     0.648854  -177.084194
	   56 D(2,1,7,13)     =   -146.471553     0.000013     1.925311  -144.546242
	   57 D(2,1,7,14)     =     36.431889    -0.000007    -0.651144    35.780744
	   58 D(2,3,4,5)      =     -0.241541     0.000001     0.096288    -0.145253
	   59 D(2,3,4,10)     =    179.887789    -0.000001    -0.082153   179.805635
	   60 D(3,2,1,6)      =      0.227912    -0.000002    -0.270075    -0.042163
	   61 D(3,2,1,7)      =   -179.740426     0.000001     0.289065  -179.451362
	   62 D(3,4,5,6)      =     -0.194106    -0.000000    -0.046108    -0.240214
	   63 D(3,4,5,11)     =    179.315847    -0.000002    -0.238821   179.077026
	   64 D(4,3,2,8)      =    177.327320     0.000000     0.030880   177.358200
	   65 D(4,5,6,12)     =    177.728558    -0.000003    -0.479288   177.249270
	   66 D(5,4,3,9)      =    179.036844     0.000001     0.115717   179.152561
	   67 D(5,6,1,7)      =    179.309067    -0.000001    -0.239094   179.069973
	   68 D(6,1,2,8)      =   -176.856261    -0.000002    -0.241857  -177.098119
	   69 D(6,1,7,13)     =     33.559925     0.000016     2.483269    36.043195
	   70 D(6,1,7,14)     =   -143.536633    -0.000004    -0.093186  -143.629819
	   71 D(6,5,4,10)     =    179.676548     0.000001     0.132344   179.808892
	   72 D(7,1,2,8)      =      3.175401     0.000001     0.317282     3.492683
	   73 D(7,1,6,12)     =      2.235487     0.000002     0.090261     2.325747
	   74 D(8,2,3,9)      =     -1.954218    -0.000000     0.011629    -1.942589
	   75 D(9,3,4,10)     =     -0.833826    -0.000000    -0.062725    -0.896551
	   76 D(10,4,5,11)    =     -0.813499    -0.000000    -0.060370    -0.873868
	   77 D(11,5,6,12)    =     -1.783801    -0.000002    -0.287279    -2.071080
	   78 D(13,7,14,15)   =      8.991787    -0.000009    -0.903764     8.088023
	   79 D(13,7,14,16)   =   -166.133887    -0.000021    -2.345917  -168.479805
	   80 D(14,7,13,17)   =     17.112572     0.000020     2.561978    19.674550
	   81 D(14,7,13,18)   =   -170.956788     0.000011     0.468827  -170.487962
	 ---------------------------------------------------------------------------
	Successfully symmetrized geometry.

  ==> Convergence Check <==

  Measures of convergence in internal coordinates in au.
  Criteria marked as inactive (o), active & met (*), and active & unmet ( ).
  ---------------------------------------------------------------------------------------------
   Step     Total Energy     Delta E     MAX Force     RMS Force      MAX Disp      RMS Disp   
  ---------------------------------------------------------------------------------------------
    Convergence Criteria    1.00e-06 *    3.00e-04 *             o    1.20e-03 *             o
  ---------------------------------------------------------------------------------------------
      2    -381.46970225   -5.49e-04      3.59e-03      6.41e-04 o    4.47e-02      1.12e-02 o  ~
  ---------------------------------------------------------------------------------------------

	Writing optimization data to binary file.
	Structure for next step:
	Cartesian Geometry (in Angstrom)
	    C    -0.0124276584   0.0045889021  -0.1795964688
	    C     0.0355617732   1.2225944330   0.5254144886
	    C     0.0393006020   1.2144970781   1.9162114230
	    C     0.0014941876  -0.0002185894   2.6085670929
	    C    -0.0432751556  -1.2121173106   1.9122775968
	    C    -0.0555337329  -1.2161125822   0.5212201129
	    C    -0.0045058600   0.0052362359  -1.6447257629
	    H     0.0215337947   2.1685219285  -0.0088714597
	    H     0.0601165085   2.1529224434   2.4607332359
	    H     0.0077476413  -0.0023805260   3.6942491866
	    H    -0.0574011325  -2.1525370246   2.4536020495
	    H    -0.0450831956  -2.1606771390  -0.0149247178
	    N    -0.7058123172  -0.9004307735  -2.3262550759
	    N     0.7120862130   0.9111062484  -2.3048517709
	    H     0.6591953984   1.0237863510  -3.3108353415
	    H     1.3799358278   1.4875445771  -1.8094294158
	    H    -0.5128942267  -1.1327828391  -3.2942731714
	    H    -1.3611656676  -1.4942734131  -1.8349430014
			--------------------------
			 OPTKING Finished Execution 
			--------------------------

    Structure for next step:
    Molecular point group: c1
    Full point group: C1

    Geometry (in Angstrom), charge = 1, multiplicity = 1:

    C           -0.012427658364     0.004588902137    -0.179596468772
    C            0.035561773200     1.222594433017     0.525414488601
    C            0.039300602031     1.214497078081     1.916211423029
    C            0.001494187607    -0.000218589361     2.608567092929
    C           -0.043275155554    -1.212117310587     1.912277596831
    C           -0.055533732923    -1.216112582182     0.521220112895
    C           -0.004505859994     0.005236235853    -1.644725762939
    H            0.021533794715     2.168521928466    -0.008871459704
    H            0.060116508463     2.152922443425     2.460733235860
    H            0.007747641279    -0.002380525960     3.694249186565
    H           -0.057401132489    -2.152537024639     2.453602049508
    H           -0.045083195569    -2.160677139016    -0.014924717773
    N           -0.705812317216    -0.900430773542    -2.326255075869
    N            0.712086212961     0.911106248356    -2.304851770936
    H            0.659195398391     1.023786351041    -3.310835341540
    H            1.379935827834     1.487544577135    -1.809429415803
    H           -0.512894226741    -1.132782839086    -3.294273171444
    H           -1.361165667633    -1.494273413136    -1.834943001438

gradient() will perform analytic gradient computation.

*** tstart() called on arancio.prib.upf.edu
*** at Sat Sep 29 20:25:48 2018

   => Loading Basis Set <=

    Name: 6-31G*
    Role: ORBITAL
    Keyword: BASIS
    atoms 1-7         entry C          line   111 file /shared/joao/test_parameterize/miniconda3/share/psi4/basis/6-31gs.gbs 
    atoms 8-12, 15-18 entry H          line    44 file /shared/joao/test_parameterize/miniconda3/share/psi4/basis/6-31gs.gbs 
    atoms 13-14       entry N          line   128 file /shared/joao/test_parameterize/miniconda3/share/psi4/basis/6-31gs.gbs 


         ---------------------------------------------------------
                                   SCF
            by Justin Turney, Rob Parrish, Andy Simmonett
                             and Daniel Smith
                              RKS Reference
                        4 Threads,   2861 MiB Core
         ---------------------------------------------------------

  ==> Geometry <==

    Molecular point group: c1
    Full point group: C1

    Geometry (in Angstrom), charge = 1, multiplicity = 1:

[...]
	             0.0000041911       -0.0000118186       -0.0000208397
	             0.0000115356        0.0000445216        0.0000150616
	            -0.0019252829        0.0011317021        0.0004512350
	            -0.0000089108       -0.0000109224        0.0000027071
	             0.0000010785       -0.0000048210       -0.0000003753
	            -0.0000029225        0.0000022593       -0.0000027516
	            -0.0000098974        0.0000059681       -0.0000030447
	            -0.0000089150       -0.0000157150       -0.0000130236
	            -0.0020142231        0.0026504087       -0.0014123866
	             0.0000333995        0.0001214063       -0.0000210834
	            -0.0000189546       -0.0000226751        0.0000353028
	            -0.0000078554       -0.0000267783       -0.0000292012
	             0.0021545854       -0.0024444469        0.0010480931
	            -0.0000376519        0.0000006716       -0.0000294149

	---Fragment 1 Intrafragment Coordinates---
	 - Coordinate -           - BOHR/RAD -       - ANG/DEG -
	 R(1,2)           =         2.660927	       1.408102
	 R(1,6)           =         2.660387	       1.407816
	 R(1,7)           =         2.768748	       1.465158
	 R(2,3)           =         2.628416	       1.390898
	 R(2,8)           =         2.053020	       1.086411
	 R(3,4)           =         2.642935	       1.398581
	 R(3,9)           =         2.050599	       1.085130
	 R(4,5)           =         2.642515	       1.398359
	 R(4,10)          =         2.051623	       1.085672
	 R(5,6)           =         2.628878	       1.391143
	 R(5,11)          =         2.050595	       1.085128
	 R(6,12)          =         2.052901	       1.086349
	 R(7,13)          =         2.516828	       1.331848
	 R(7,14)          =         2.513920	       1.330309
	 R(13,17)         =         1.915064	       1.013408
	 R(13,18)         =         1.911766	       1.011663
	 R(14,15)         =         1.914985	       1.013367
	 R(14,16)         =         1.911546	       1.011546
	 B(1,2,3)         =         2.089117	     119.697599
	 B(1,2,8)         =         2.102055	     120.438907
	 B(1,6,5)         =         2.088677	     119.672385
	 B(1,6,12)        =         2.103723	     120.534473
	 B(1,7,13)        =         2.100032	     120.322979
	 B(1,7,14)        =         2.094357	     119.997793
	 B(2,1,6)         =         2.096468	     120.118761
	 B(2,1,7)         =         2.094628	     120.013347
	 B(2,3,4)         =         2.094661	     120.015253
	 B(2,3,9)         =         2.090486	     119.776009
	 B(3,2,8)         =         2.090780	     119.792889
	 B(3,4,5)         =         2.102305	     120.453217
	 B(3,4,10)        =         2.090472	     119.775246
	 B(4,3,9)         =         2.097977	     120.205232
	 B(4,5,6)         =         2.095102	     120.040485
	 B(4,5,11)        =         2.098039	     120.208800
	 B(5,4,10)        =         2.090407	     119.771524
	 B(5,6,12)        =         2.089504	     119.719740
	 B(6,1,7)         =         2.092080	     119.867361
	 B(6,5,11)        =         2.089999	     119.748114
	 B(7,13,17)       =         2.139893	     122.606862
	 B(7,13,18)       =         2.088927	     119.686681
	 B(7,14,15)       =         2.140431	     122.637650
	 B(7,14,16)       =         2.095459	     120.060962
	 B(13,7,14)       =         2.088727	     119.675232
	 B(15,14,16)      =         2.046318	     117.245402
	 B(17,13,18)      =         2.039558	     116.858047
	 D(1,2,3,4)       =         0.006106	       0.349867
	 D(1,2,3,9)       =        -3.123623	    -178.970417
	 D(1,6,5,4)       =         0.008838	       0.506382
	 D(1,6,5,11)      =        -3.122536	    -178.908158
	*D(1,7,13,17)     =        -2.792526	    -159.999973
	 D(1,7,13,18)     =         0.159135	       9.117757
	 D(1,7,14,15)     =        -3.012205	    -172.586635
	 D(1,7,14,16)     =         0.178212	      10.210782
	 D(2,1,6,5)       =        -0.006627	      -0.379727
	 D(2,1,6,12)      =        -3.093695	    -177.255687
	 D(2,1,7,13)      =        -2.514912	    -144.093837
	 D(2,1,7,14)      =         0.639415	      36.635755
	 D(2,3,4,5)       =        -0.003924	      -0.224832
	 D(2,3,4,10)      =         3.138409	     179.817608
	 D(3,2,1,6)       =        -0.000861	      -0.049328
	 D(3,2,1,7)       =        -3.137818	    -179.783734
	 D(3,4,5,6)       =        -0.003629	      -0.207934
	 D(3,4,5,11)      =         3.127698	     179.203883
	 D(4,3,2,8)       =         3.094610	     177.308118
	 D(4,5,6,12)      =         3.096354	     177.408041
	 D(5,4,3,9)       =         3.125754	     179.092506
	 D(5,6,1,7)       =         3.130336	     179.355069
	 D(6,1,2,8)       =        -3.089016	    -176.987601
	 D(6,1,7,13)      =         0.631305	      36.171085
	 D(6,1,7,14)      =        -2.497554	    -143.099323
	 D(6,5,4,10)      =         3.137223	     179.749627
	 D(7,1,2,8)       =         0.057212	       3.277992
	 D(7,1,6,12)      =         0.043269	       2.479109
	 D(8,2,3,9)       =        -0.035119	      -2.012165
	 D(9,3,4,10)      =        -0.015098	      -0.865054
	 D(10,4,5,11)     =        -0.014636	      -0.838555
	 D(11,5,6,12)     =        -0.035020	      -2.006498
	 D(13,7,14,15)    =         0.142039	       8.138210
	 D(13,7,14,16)    =        -2.950730	    -169.064373
	 D(14,7,13,17)    =         0.336374	      19.272787
	 D(14,7,13,18)    =        -2.995150	    -171.609483

	Current energy   :      -381.4698458079

	Energy change for the previous step:
		Projected    :        -0.0000003007
		Actual       :        -0.0000001604

	Performing BFGS update.
	Previous computed or guess Hessian on step 1.
	Steps to be used in Hessian update: 5 4
	Taking RFO optimization step.
	Going to follow RFO solution 1.
	Rejecting RFO root 1 because normalization gives large value.
	Using RFO vector 2.
	Norm of target step-size    0.00333
	Projected energy change by RFO approximation:        -0.0000001832

	Back-transformation to cartesian coordinates...
	Successfully converged to displaced geometry.

	Back-transformation to cartesian coordinates to adjust frozen coordinates...
	Successfully converged to displaced geometry.

	--- Internal Coordinate Step in ANG or DEG, aJ/ANG or AJ/DEG ---
	 ---------------------------------------------------------------------------
	   Coordinate                Previous        Force       Change         New 
	   ----------                --------       ------       ------       ------
	    1 R(1,2)          =      1.408102    -0.000209    -0.000029     1.408072
	    2 R(1,6)          =      1.407816     0.000204    -0.000020     1.407796
	    3 R(1,7)          =      1.465158     0.000445    -0.000008     1.465151
	    4 R(2,3)          =      1.390898     0.000002     0.000006     1.390904
	    5 R(2,8)          =      1.086411     0.000093     0.000003     1.086414
	    6 R(3,4)          =      1.398581     0.000117     0.000005     1.398586
	    7 R(3,9)          =      1.085130     0.000031    -0.000001     1.085129
	    8 R(4,5)          =      1.398359    -0.000049    -0.000005     1.398353
	    9 R(4,10)         =      1.085672     0.000012    -0.000001     1.085671
	   10 R(5,6)          =      1.391143     0.000099     0.000012     1.391155
	   11 R(5,11)         =      1.085128     0.000049    -0.000001     1.085127
	   12 R(6,12)         =      1.086349    -0.000160     0.000001     1.086349
	   13 R(7,13)         =      1.331848    -0.000023    -0.000073     1.331775
	   14 R(7,14)         =      1.330309    -0.000477    -0.000026     1.330283
	   15 R(13,17)        =      1.013408     0.000314    -0.000034     1.013374
	   16 R(13,18)        =      1.011663    -0.000081    -0.000019     1.011644
	   17 R(14,15)        =      1.013367     0.000312    -0.000006     1.013361
	   18 R(14,16)        =      1.011546     0.000281     0.000002     1.011548
	   19 B(1,2,3)        =    119.697599    -0.000000    -0.003748   119.693851
	   20 B(1,2,8)        =    120.438907     0.000000     0.001744   120.440651
	   21 B(1,6,5)        =    119.672385    -0.000001    -0.001151   119.671234
	   22 B(1,6,12)       =    120.534473     0.000001     0.000568   120.535042
	   23 B(1,7,13)       =    120.322979     0.000001    -0.016096   120.306883
	   24 B(1,7,14)       =    119.997793    -0.000001     0.001569   119.999362
	   25 B(2,1,6)        =    120.118761     0.000001     0.004478   120.123239
	   26 B(2,1,7)        =    120.013347    -0.000002    -0.004357   120.008990
	   27 B(2,3,4)        =    120.015253    -0.000000     0.001581   120.016833
	   28 B(2,3,9)        =    119.776009    -0.000000    -0.001849   119.774159
	   29 B(3,2,8)        =    119.792889    -0.000000     0.002899   119.795788
	   30 B(3,4,5)        =    120.453217     0.000000     0.000166   120.453383
	   31 B(3,4,10)       =    119.775246    -0.000000    -0.000122   119.775124
	   32 B(4,3,9)        =    120.205232     0.000000     0.000368   120.205601
	   33 B(4,5,6)        =    120.040485    -0.000000    -0.001351   120.039134
	   34 B(4,5,11)       =    120.208800     0.000000     0.001051   120.209851
	   35 B(5,4,10)       =    119.771524    -0.000000    -0.000036   119.771488
	   36 B(5,6,12)       =    119.719740     0.000000     0.000264   119.720005
	   37 B(6,1,7)        =    119.867361     0.000001    -0.000111   119.867250
	   38 B(6,5,11)       =    119.748114     0.000000     0.000262   119.748375
	   39 B(7,13,17)      =    122.606862     0.000001    -0.015687   122.591175
	   40 B(7,13,18)      =    119.686681    -0.000003     0.009602   119.696283
	   41 B(7,14,15)      =    122.637650     0.000003     0.000723   122.638373
	   42 B(7,14,16)      =    120.060962    -0.000002    -0.000509   120.060453
	   43 B(13,7,14)      =    119.675232     0.000000     0.014555   119.689787
	   44 B(15,14,16)     =    117.245402    -0.000001     0.004219   117.249621
	   45 B(17,13,18)     =    116.858047     0.000002    -0.004970   116.853077
	   46 D(1,2,3,4)      =      0.349867    -0.000000    -0.002239     0.347628
	   47 D(1,2,3,9)      =   -178.970417    -0.000000    -0.011982  -178.982398
	   48 D(1,6,5,4)      =      0.506382     0.000000     0.006384     0.512766
	   49 D(1,6,5,11)     =   -178.908158     0.000000     0.010630  -178.897528
	   50 *D(1,7,13,17)   =   -159.999973     0.000000     0.000000  -159.999973
	   51 D(1,7,13,18)    =      9.117757    -0.000000    -0.070421     9.047336
	   52 D(1,7,14,15)    =   -172.586635    -0.000000     0.029197  -172.557439
	   53 D(1,7,14,16)    =     10.210782    -0.000000    -0.083888    10.126894
	   54 D(2,1,6,5)      =     -0.379727    -0.000000    -0.003373    -0.383100
	   55 D(2,1,6,12)     =   -177.255687     0.000000     0.003387  -177.252300
	   56 D(2,1,7,13)     =   -144.093837    -0.000000     0.046217  -144.047620
	   57 D(2,1,7,14)     =     36.635755     0.000000     0.043513    36.679268
	   58 D(2,3,4,5)      =     -0.224832     0.000000     0.005296    -0.219536
	   59 D(2,3,4,10)     =    179.817608    -0.000000    -0.011744   179.805864
	   60 D(3,2,1,6)      =     -0.049328     0.000000     0.001295    -0.048032
	   61 D(3,2,1,7)      =   -179.783734     0.000000    -0.001384  -179.785118
	   62 D(3,4,5,6)      =     -0.207934    -0.000000    -0.007402    -0.215336
	   63 D(3,4,5,11)     =    179.203883    -0.000000    -0.011673   179.192211
	   64 D(4,3,2,8)      =    177.308118     0.000000     0.017136   177.325254
	   65 D(4,5,6,12)     =    177.408041    -0.000000    -0.000310   177.407731
	   66 D(5,4,3,9)      =    179.092506     0.000000     0.015066   179.107572
	   67 D(5,6,1,7)      =    179.355069    -0.000000    -0.000708   179.354361
	   68 D(6,1,2,8)      =   -176.987601    -0.000000    -0.018241  -177.005842
	   69 D(6,1,7,13)     =     36.171085    -0.000000     0.043532    36.214617
	   70 D(6,1,7,14)     =   -143.099323     0.000000     0.040828  -143.058495
	   71 D(6,5,4,10)     =    179.749627     0.000000     0.009638   179.759264
	   72 D(7,1,2,8)      =      3.277992     0.000000    -0.020921     3.257072
	   73 D(7,1,6,12)     =      2.479109    -0.000000     0.006051     2.485160
	   74 D(8,2,3,9)      =     -2.012165     0.000000     0.007393    -2.004772
	   75 D(9,3,4,10)     =     -0.865054    -0.000000    -0.001974    -0.867028
	   76 D(10,4,5,11)    =     -0.838555    -0.000000     0.005367    -0.833188
	   77 D(11,5,6,12)    =     -2.006498    -0.000000     0.003936    -2.002562
	   78 D(13,7,14,15)   =      8.138210     0.000000     0.026734     8.164944
	   79 D(13,7,14,16)   =   -169.064373    -0.000000    -0.086350  -169.150724
	   80 D(14,7,13,17)   =     19.272787    -0.000000     0.002601    19.275389
	   81 D(14,7,13,18)   =   -171.609483    -0.000001    -0.067820  -171.677302
	 ---------------------------------------------------------------------------
	Successfully symmetrized geometry.

  ==> Convergence Check <==

  Measures of convergence in internal coordinates in au.
  Criteria marked as inactive (o), active & met (*), and active & unmet ( ).
  ---------------------------------------------------------------------------------------------
   Step     Total Energy     Delta E     MAX Force     RMS Force      MAX Disp      RMS Disp   
  ---------------------------------------------------------------------------------------------
    Convergence Criteria    1.00e-06 *    3.00e-04 *             o    1.20e-03 *             o
  ---------------------------------------------------------------------------------------------
      6    -381.46984581   -1.60e-07 *    5.79e-05 *    1.71e-05 o    1.51e-03      3.70e-04 o  ~
  ---------------------------------------------------------------------------------------------


  **** Optimization is complete! (in 6 steps) ****

  ==> Optimization Summary <==

  Measures of convergence in internal coordinates in au.
  --------------------------------------------------------------------------------------------------------------- ~
   Step         Total Energy             Delta E       MAX Force       RMS Force        MAX Disp        RMS Disp  ~
  --------------------------------------------------------------------------------------------------------------- ~
      1    -381.469153620255   -381.469153620255      0.00738482      0.00134631      0.11281477      0.02064660  ~
      2    -381.469702247700     -0.000548627445      0.00358830      0.00064074      0.04471496      0.01121816  ~
      3    -381.469825160174     -0.000122912474      0.00112971      0.00025981      0.01273116      0.00305298  ~
      4    -381.469843529222     -0.000018369048      0.00026064      0.00006322      0.00707450      0.00163897  ~
      5    -381.469845647545     -0.000002118323      0.00014871      0.00002920      0.00152224      0.00045011  ~
      6    -381.469845807947     -0.000000160402      0.00005789      0.00001711      0.00150710      0.00037031  ~
  --------------------------------------------------------------------------------------------------------------- ~

	Writing optimization data to binary file.
	Final energy is   -381.4698458079466
	Final (previous) structure:
	Cartesian Geometry (in Angstrom)
	    C    -0.0089988932   0.0062062935  -0.1803125971
	    C     0.0354021672   1.2237077766   0.5257111273
	    C     0.0362663015   1.2140780521   1.9165756268
	    C     0.0005602192  -0.0012177786   2.6078134108
	    C    -0.0409059174  -1.2124193373   1.9101904081
	    C    -0.0512559027  -1.2148584862   0.5190884851
	    C    -0.0054139014   0.0081045638  -1.6454652890
	    H     0.0189128477   2.1701011434  -0.0075403677
	    H     0.0535390034   2.1520365175   2.4619590241
	    H     0.0043688111  -0.0042804665   3.6934744418
	    H    -0.0554953786  -2.1534145336   2.4503919701
	    H    -0.0408473115  -2.1591425525  -0.0179149297
	    N    -0.7127282882  -0.8960350041  -2.3207851629
	    N     0.7181844760   0.9067972921  -2.3076432278
	    H     0.6663244196   1.0162508709  -3.3137457595
	    H     1.3828668142   1.4865862265  -1.8123975128
	    H    -0.5214454534  -1.1270910831  -3.2887832283
	    H    -1.3604610134  -1.4961414945  -1.8270474191
	Saving final (previous) structure.
	Removing binary optimization data file.
			--------------------------
			 OPTKING Finished Execution 
			--------------------------

    Final optimized geometry and variables:
    Molecular point group: c1
    Full point group: C1

    Geometry (in Angstrom), charge = 1, multiplicity = 1:

    C           -0.008998893162     0.006206293485    -0.180312597089
    C            0.035402167200     1.223707776644     0.525711127256
    C            0.036266301451     1.214078052134     1.916575626768
    C            0.000560219250    -0.001217778554     2.607813410764
    C           -0.040905917420    -1.212419337285     1.910190408057
    C           -0.051255902666    -1.214858486237     0.519088485080
    C           -0.005413901417     0.008104563805    -1.645465288959
    H            0.018912847699     2.170101143389    -0.007540367718
    H            0.053539003430     2.152036517461     2.461959024109
    H            0.004368811079    -0.004280466502     3.693474441789
    H           -0.055495378638    -2.153414533577     2.450391970070
    H           -0.040847311477    -2.159142552522    -0.017914929693
    N           -0.712728288225    -0.896035004127    -2.320785162906
    N            0.718184475988     0.906797292114    -2.307643227762
    H            0.666324419575     1.016250870887    -3.313745759502
    H            1.382866814163     1.486586226537    -1.812397512788
    H           -0.521445453438    -1.127091083114    -3.288783228348
    H           -1.360461013392    -1.496141494538    -1.827047419127

	Removing binary optimization data file.
	Cleaning optimization helper files.


Properties will be evaluated at   0.000000,   0.000000,   0.000000 [a0]
OEProp: No title given, name of density matrix used for the following properties is 'SCF density'
  Nuclear Dipole Moment: [e a0]
     X:    -0.0380      Y:     0.1925      Z:    -0.2627

  Electronic Dipole Moment: [e a0]
     X:     0.1505      Y:    -0.2626      Z:    -1.9350

  Dipole Moment: [e a0]
     X:     0.1125      Y:    -0.0701      Z:    -2.1976     Total:     2.2016

  Dipole Moment: [D]
     X:     0.2860      Y:    -0.1783      Z:    -5.5858     Total:     5.5960

  Quadrupole Moment: [D A]
    XX:   -49.8630     YY:   -37.3365     ZZ:   -13.7296
    XY:     6.3152     XZ:    -0.9962     YZ:     0.6687

  Traceless Quadrupole Moment: [D A]
    XX:   -16.2199     YY:    -3.6935     ZZ:    19.9134
    XY:     6.3152     XZ:    -0.9962     YZ:     0.6687

  Mulliken Charges: (a.u.)
   Center  Symbol    Alpha    Beta     Spin     Total
       1     C     2.95569  2.95569  0.00000  0.08862
       2     C     3.08172  3.08172  0.00000 -0.16344
       3     C     3.06242  3.06242  0.00000 -0.12485
       4     C     3.05123  3.05123  0.00000 -0.10246
       5     C     3.06246  3.06246  0.00000 -0.12492
       6     C     3.08136  3.08136  0.00000 -0.16272
       7     C     2.72487  2.72487  0.00000  0.55027
       8     H     0.41373  0.41373  0.00000  0.17254
       9     H     0.40517  0.40517  0.00000  0.18965
      10     H     0.40357  0.40357  0.00000  0.19287
      11     H     0.40527  0.40527  0.00000  0.18946
      12     H     0.41531  0.41531  0.00000  0.16938
      13     N     3.86395  3.86395  0.00000 -0.72790
      14     N     3.86213  3.86213  0.00000 -0.72426
      15     H     0.30518  0.30518  0.00000  0.38964
      16     H     0.29997  0.29997  0.00000  0.40005
      17     H     0.30550  0.30550  0.00000  0.38899
      18     H     0.30046  0.30046  0.00000  0.39908

   Total alpha = 32.00000, Total beta = 32.00000, Total charge =  1.00000


    Psi4 stopped on: Saturday, 29 September 2018 08:27PM
    Psi4 wall time for execution: 0:02:49.25

*** Psi4 exiting successfully. Buy a developer a beer!
