
    -----------------------------------------------------------------------
          Psi4: An Open-Source Ab Initio Electronic Structure Package
                               Psi4 1.2.1 release

                         Git: Rev {HEAD} 406f4de 


    R. M. Parrish, L. A. Burns, D. G. A. Smith, A. C. Simmonett,
    A. E. DePrince III, E. G. Hohenstein, U. Bozkaya, A. Yu. Sokolov,
    R. Di Remigio, R. M. Richard, J. F. Gonthier, A. M. James,
    H. R. McAlexander, A. Kumar, M. Saitow, X. Wang, B. P. Pritchard,
    P. Verma, H. F. Schaefer III, K. Patkowski, R. A. King, E. F. Valeev,
    F. A. Evangelista, J. M. Turney, T. D. Crawford, and C. D. Sherrill,
    J. Chem. Theory Comput. 13(7) pp 3185--3197 (2017).
    (doi: 10.1021/acs.jctc.7b00174)


                         Additional Contributions by
    P. Kraus, H. Kruse, M. H. Lechner, M. C. Schieber, and R. A. Shaw

    -----------------------------------------------------------------------


    Psi4 started on: Saturday, 29 September 2018 04:27PM

    Process ID: 26806
    Host:       loro.prib.upf.edu
    PSIDATADIR: /shared/joao/test_parameterize/miniconda3/share/psi4
    Memory:     500.0 MiB
    Threads:    1
    
  ==> Input File <==

--------------------------------------------------------------------------
set_num_threads(1)
set_memory('5348 MB')

set { scf_mem_safety_factor 0.7 }

set { reference rks }
set { basis cc-pVDZ }

molecule MOL {
    0 1
    noreorient
    nocom
    symmetry c1
    O    1.014300  -0.002300   0.060500
    O    2.462400  -0.107500  -0.002400
    H    0.821200  -0.823600  -0.430600
    H    2.614609   0.730060  -0.480064
}

set optking { frozen_dihedral = (" 3 1 2 4 ") }

energy, wfn = energy('B3LYP-D3', return_wfn=True)

import os
os.chdir(os.environ['HTMD_PSI4_WORKDIR'])

oeprop(wfn, 'DIPOLE', 'QUADRUPOLE', 'MULLIKEN_CHARGES')

with open('psi4out.xyz', 'w') as f:
    f.write('4 ' )
    f.write('%.12f\n' % energy)
    f.write(MOL.save_string_xyz())
--------------------------------------------------------------------------
  Threads set to 1 by Python driver.

  Memory set to   4.981 GiB by Python driver.

*** tstart() called on loro.prib.upf.edu
*** at Sat Sep 29 16:27:20 2018

   => Loading Basis Set <=

    Name: CC-PVDZ
    Role: ORBITAL
    Keyword: BASIS
    atoms 1-2 entry O          line   198 file /shared/joao/test_parameterize/miniconda3/share/psi4/basis/cc-pvdz.gbs 
    atoms 3-4 entry H          line    22 file /shared/joao/test_parameterize/miniconda3/share/psi4/basis/cc-pvdz.gbs 


         ---------------------------------------------------------
                                   SCF
            by Justin Turney, Rob Parrish, Andy Simmonett
                             and Daniel Smith
                              RKS Reference
                        1 Threads,   5100 MiB Core
         ---------------------------------------------------------

  ==> Geometry <==

    Molecular point group: c1
    Full point group: C1

    Geometry (in Angstrom), charge = 0, multiplicity = 1:

       Center              X                  Y                   Z               Mass       
    ------------   -----------------  -----------------  -----------------  -----------------
         O            1.014300000000    -0.002300000000     0.060500000000    15.994914619560
         O            2.462400000000    -0.107500000000    -0.002400000000    15.994914619560
         H            0.821200000000    -0.823600000000    -0.430600000000     1.007825032070
         H            2.614609000000     0.730060000000    -0.480064000000     1.007825032070

  Running in c1 symmetry.

  Rotational constants: A =      9.35320  B =      0.13867  C =      0.13770 [cm^-1]
  Rotational constants: A = 280401.93395  B =   4157.34222  C =   4128.26901 [MHz]
  Nuclear repulsion =   36.799359264400024

  Charge       = 0
  Multiplicity = 1
  Electrons    = 18
  Nalpha       = 9
  Nbeta        = 9

  ==> Algorithm <==

  SCF Algorithm Type is DF.
  DIIS enabled.
  MOM disabled.
  Fractional occupation disabled.
  Guess Type is SAD.
  Energy threshold   = 1.00e-06
  Density threshold  = 1.00e-06
  Integral threshold = 0.00e+00

  ==> Primary Basis <==

  Basis Set: CC-PVDZ
    Blend: CC-PVDZ
    Number of shells: 18
    Number of basis function: 38
    Number of Cartesian functions: 40
    Spherical Harmonics?: true
    Max angular momentum: 2

  ==> DFT Potential <==

   => Composite Functional: B3LYP-D3ZERO <= 

    B3LYP-d3zero Hyb-GGA Exchange-Correlation Functional

    P. J. Stephens, F. J. Devlin, C. F. Chabalowski, and M. J. Frisch, J. Phys. Chem. 98, 11623 (1994)

    Deriv               =              1
    GGA                 =           TRUE
    Meta                =          FALSE

    Exchange Hybrid     =           TRUE
    MP2 Hybrid          =          FALSE

   => Exchange Functionals <=

    0.0800   Slater exchange
    0.7200         Becke 88

   => Exact (HF) Exchange <=

    0.2000               HF 

   => Correlation Functionals <=

    0.1900   Vosko, Wilk & Nusair (VWN5_RPA)
    0.8100   Lee, Yang & Parr

   => Molecular Quadrature <=

    Radial Scheme       =       TREUTLER
    Pruning Scheme      =           FLAT
    Nuclear Scheme      =       TREUTLER

    BS radius alpha     =              1
    Pruning alpha       =              1
    Radial Points       =             75
    Spherical Points    =            302
    Total Points        =          88342
    Total Blocks        =            715
    Max Points          =            256
    Max Functions       =             38

   => -D3ZERO: Empirical Dispersion <=

    Grimme's -D3 (zero-damping) Dispersion Correction
    Grimme S.; Antony J.; Ehrlich S.; Krieg H. (2010), J. Chem. Phys., 132: 154104

        S6 =   1.000000E+00
        S8 =   1.703000E+00
       SR6 =   1.261000E+00
       SR8 =   1.000000E+00
    ALPHA6 =   1.400000E+01

   => Loading Basis Set <=

    Name: (CC-PVDZ AUX)
    Role: JKFIT
    Keyword: DF_BASIS_SCF
    atoms 1-2 entry O          line   221 file /shared/joao/test_parameterize/miniconda3/share/psi4/basis/cc-pvdz-jkfit.gbs 
    atoms 3-4 entry H          line    51 file /shared/joao/test_parameterize/miniconda3/share/psi4/basis/cc-pvdz-jkfit.gbs 

  ==> Pre-Iterations <==

   -------------------------------------------------------
    Irrep   Nso     Nmo     Nalpha   Nbeta   Ndocc  Nsocc
   -------------------------------------------------------
     A         38      38       0       0       0       0
   -------------------------------------------------------
    Total      38      38       9       9       9       0
   -------------------------------------------------------

  ==> Integral Setup <==

  DFHelper Memory: AOs need 0.003 [GiB]; user supplied 3.486 [GiB]. Using in-core AOs.

  ==> MemDFJK: Density-Fitted J/K Matrices <==

    J tasked:                   Yes
    K tasked:                   Yes
    wK tasked:                   No
    OpenMP threads:               1
    Memory (MB):               3570
    Algorithm:                 Core
    Schwarz Cutoff:           1E-12
    Mask sparsity (%):       0.0000
    Fitting Condition:        1E-12

   => Auxiliary Basis Set <=

  Basis Set: (CC-PVDZ AUX)
    Blend: CC-PVDZ-JKFIT
    Number of shells: 66
    Number of basis function: 186
    Number of Cartesian functions: 212
    Spherical Harmonics?: true
    Max angular momentum: 3

  Minimum eigenvalue in the overlap matrix is 2.5208219136E-02.
  Using Symmetric Orthogonalization.

  SCF Guess: Superposition of Atomic Densities via on-the-fly atomic UHF.

  ==> Iterations <==

                           Total Energy        Delta E     RMS |[F,P]|

   @DF-RKS iter   0:  -151.58741538771341   -1.51587e+02   4.85075e-02 
   @DF-RKS iter   1:  -151.52076708014511    6.66483e-02   7.23381e-03 
   @DF-RKS iter   2:  -151.52237613868314   -1.60906e-03   7.23995e-03 DIIS
   @DF-RKS iter   3:  -151.54996589847056   -2.75898e-02   8.47196e-04 DIIS
   @DF-RKS iter   4:  -151.55031349401776   -3.47596e-04   1.68054e-04 DIIS
   @DF-RKS iter   5:  -151.55031385959774   -3.65580e-07   1.72029e-04 DIIS
   @DF-RKS iter   6:  -151.55032948594769   -1.56263e-05   9.88499e-06 DIIS
   @DF-RKS iter   7:  -151.55032955834483   -7.23971e-08   1.38501e-06 DIIS
   @DF-RKS iter   8:  -151.55032956022831   -1.88348e-09   1.65056e-07 DIIS

  ==> Post-Iterations <==

    Orbital Energies [Eh]
    ---------------------

    Doubly Occupied:                                                      

       1A    -19.187627     2A    -19.187586     3A     -1.111917  
       4A     -0.886412     5A     -0.510193     6A     -0.490444  
       7A     -0.411432     8A     -0.317208     9A     -0.265276  

    Virtual:                                                              

      10A      0.025119    11A      0.050217    12A      0.103934  
      13A      0.572895    14A      0.582462    15A      0.846610  
      16A      0.871099    17A      0.889231    18A      0.946008  
      19A      1.016125    20A      1.062164    21A      1.203261  
      22A      1.272311    23A      1.386575    24A      1.418867  
      25A      1.676956    26A      1.721932    27A      2.067406  
      28A      2.083633    29A      2.392703    30A      2.424841  
      31A      2.572135    32A      2.886399    33A      2.906240  
      34A      3.039496    35A      3.140014    36A      3.493926  
      37A      3.526285    38A      3.828234  

    Final Occupation by Irrep:
              A 
    DOCC [     9 ]

  Energy converged.

  @DF-RKS Final Energy:  -151.55032956022831

   => Energetics <=

    Nuclear Repulsion Energy =             36.7993592644000245
    One-Electron Energy =                -281.5787525660007873
    Two-Electron Energy =                 107.6917211907892948
    DFT Exchange-Correlation Energy =     -14.4623373494168828
    Empirical Dispersion Energy =          -0.0003201000000000
    VV10 Nonlocal Energy =                  0.0000000000000000
    Total Energy =                       -151.5503295602283629



Properties will be evaluated at   0.000000,   0.000000,   0.000000 [a0]

Properties computed using the SCF density matrix

  Nuclear Dipole Moment: [e a0]
     X:    59.0528      Y:    -1.8367      Z:    -0.8426

  Electronic Dipole Moment: [e a0]
     X:   -59.0805      Y:     1.8477      Z:     0.1871

  Dipole Moment: [e a0]
     X:    -0.0277      Y:     0.0110      Z:    -0.6554     Total:     0.6561

  Dipole Moment: [D]
     X:    -0.0703      Y:     0.0280      Z:    -1.6660     Total:     1.6677


*** tstop() called on loro.prib.upf.edu at Sat Sep 29 16:27:24 2018
Module time:
	user time   =       2.66 seconds =       0.04 minutes
	system time =       0.08 seconds =       0.00 minutes
	total time  =          4 seconds =       0.07 minutes
Total time:
	user time   =       2.66 seconds =       0.04 minutes
	system time =       0.08 seconds =       0.00 minutes
	total time  =          4 seconds =       0.07 minutes


Properties will be evaluated at   0.000000,   0.000000,   0.000000 [a0]
OEProp: No title given, name of density matrix used for the following properties is 'SCF density'
  Nuclear Dipole Moment: [e a0]
     X:    59.0528      Y:    -1.8367      Z:    -0.8426

  Electronic Dipole Moment: [e a0]
     X:   -59.0805      Y:     1.8477      Z:     0.1871

  Dipole Moment: [e a0]
     X:    -0.0277      Y:     0.0110      Z:    -0.6554     Total:     0.6561

  Dipole Moment: [D]
     X:    -0.0703      Y:     0.0280      Z:    -1.6660     Total:     1.6677

  Quadrupole Moment: [D A]
    XX:   -11.1888     YY:    -9.3798     ZZ:   -11.3297
    XY:     2.9184     XZ:    -2.8618     YZ:     0.0027

  Traceless Quadrupole Moment: [D A]
    XX:    -0.5561     YY:     1.2530     ZZ:    -0.6970
    XY:     2.9184     XZ:    -2.8618     YZ:     0.0027

  Mulliken Charges: (a.u.)
   Center  Symbol    Alpha    Beta     Spin     Total
       1     O     4.09082  4.09082  0.00000 -0.18165
       2     O     4.09080  4.09080  0.00000 -0.18161
       3     H     0.40918  0.40918  0.00000  0.18165
       4     H     0.40920  0.40920  0.00000  0.18161

   Total alpha =  9.00000, Total beta =  9.00000, Total charge = -0.00000


    Psi4 stopped on: Saturday, 29 September 2018 04:27PM
    Psi4 wall time for execution: 0:00:04.15

*** Psi4 exiting successfully. Buy a developer a beer!
