
    -----------------------------------------------------------------------
          Psi4: An Open-Source Ab Initio Electronic Structure Package
                               Psi4 1.2.1 release

                         Git: Rev {HEAD} 406f4de 


    R. M. Parrish, L. A. Burns, D. G. A. Smith, A. C. Simmonett,
    A. E. DePrince III, E. G. Hohenstein, U. Bozkaya, A. Yu. Sokolov,
    R. Di Remigio, R. M. Richard, J. F. Gonthier, A. M. James,
    H. R. McAlexander, A. Kumar, M. Saitow, X. Wang, B. P. Pritchard,
    P. Verma, H. F. Schaefer III, K. Patkowski, R. A. King, E. F. Valeev,
    F. A. Evangelista, J. M. Turney, T. D. Crawford, and C. D. Sherrill,
    J. Chem. Theory Comput. 13(7) pp 3185--3197 (2017).
    (doi: 10.1021/acs.jctc.7b00174)


                         Additional Contributions by
    P. Kraus, H. Kruse, M. H. Lechner, M. C. Schieber, and R. A. Shaw

    -----------------------------------------------------------------------


    Psi4 started on: Saturday, 29 September 2018 05:09PM

    Process ID: 13302
    Host:       loro.prib.upf.edu
    PSIDATADIR: /shared/joao/test_parameterize/miniconda3/share/psi4
    Memory:     500.0 MiB
    Threads:    1
    
  ==> Input File <==

--------------------------------------------------------------------------
set_num_threads(1)
set_memory('5348 MB')

set { scf_mem_safety_factor 0.7 }

set { reference rks }
set { basis cc-pVDZ }

molecule MOL {
    0 1
    noreorient
    nocom
    symmetry c1
    O    1.050400   0.042900  -0.048100
    C    2.474100   0.047400  -0.029000
    C    3.002600  -1.068900  -0.932000
    N    4.462700  -1.072400  -1.006800
    H    0.760400   0.728400   0.578000
    H    2.809900  -0.097900   1.003200
    H    2.817400   1.026800  -0.378600
    H    2.581000  -0.963300  -1.938400
    H    2.653800  -2.036400  -0.553400
    H    4.775758  -0.256295  -1.531632
    H    4.761490  -1.883511  -1.548163
}

set optking { frozen_dihedral = (" 2 3 4 10 ") }

energy, wfn = energy('B3LYP-D3', return_wfn=True)

import os
os.chdir(os.environ['HTMD_PSI4_WORKDIR'])

oeprop(wfn, 'DIPOLE', 'QUADRUPOLE', 'MULLIKEN_CHARGES')

with open('psi4out.xyz', 'w') as f:
    f.write('11 ' )
    f.write('%.12f\n' % energy)
    f.write(MOL.save_string_xyz())
--------------------------------------------------------------------------
  Threads set to 1 by Python driver.

  Memory set to   4.981 GiB by Python driver.

*** tstart() called on loro.prib.upf.edu
*** at Sat Sep 29 17:09:30 2018

   => Loading Basis Set <=

    Name: CC-PVDZ
    Role: ORBITAL
    Keyword: BASIS
    atoms 1    entry O          line   198 file /shared/joao/test_parameterize/miniconda3/share/psi4/basis/cc-pvdz.gbs 
    atoms 2-3  entry C          line   138 file /shared/joao/test_parameterize/miniconda3/share/psi4/basis/cc-pvdz.gbs 
    atoms 4    entry N          line   168 file /shared/joao/test_parameterize/miniconda3/share/psi4/basis/cc-pvdz.gbs 
    atoms 5-11 entry H          line    22 file /shared/joao/test_parameterize/miniconda3/share/psi4/basis/cc-pvdz.gbs 


         ---------------------------------------------------------
                                   SCF
            by Justin Turney, Rob Parrish, Andy Simmonett
                             and Daniel Smith
                              RKS Reference
                        1 Threads,   5100 MiB Core
         ---------------------------------------------------------

  ==> Geometry <==

    Molecular point group: c1
    Full point group: C1

    Geometry (in Angstrom), charge = 0, multiplicity = 1:

       Center              X                  Y                   Z               Mass       
    ------------   -----------------  -----------------  -----------------  -----------------
         O            1.050400000000     0.042900000000    -0.048100000000    15.994914619560
         C            2.474100000000     0.047400000000    -0.029000000000    12.000000000000
         C            3.002600000000    -1.068900000000    -0.932000000000    12.000000000000
         N            4.462700000000    -1.072400000000    -1.006800000000    14.003074004780
         H            0.760400000000     0.728400000000     0.578000000000     1.007825032070
         H            2.809900000000    -0.097900000000     1.003200000000     1.007825032070
         H            2.817400000000     1.026800000000    -0.378600000000     1.007825032070
         H            2.581000000000    -0.963300000000    -1.938400000000     1.007825032070
         H            2.653800000000    -2.036400000000    -0.553400000000     1.007825032070
         H            4.775758000000    -0.256295000000    -1.531632000000     1.007825032070
         H            4.761490000000    -1.883511000000    -1.548163000000     1.007825032070

  Running in c1 symmetry.

  Rotational constants: A =      0.72131  B =      0.02762  C =      0.02694 [cm^-1]
  Rotational constants: A =  21624.45800  B =    828.15923  C =    807.78090 [MHz]
  Nuclear repulsion =  130.388283508501445

  Charge       = 0
  Multiplicity = 1
  Electrons    = 34
  Nalpha       = 17
  Nbeta        = 17

  ==> Algorithm <==

  SCF Algorithm Type is DF.
  DIIS enabled.
  MOM disabled.
  Fractional occupation disabled.
  Guess Type is SAD.
  Energy threshold   = 1.00e-06
  Density threshold  = 1.00e-06
  Integral threshold = 0.00e+00

  ==> Primary Basis <==

  Basis Set: CC-PVDZ
    Blend: CC-PVDZ
    Number of shells: 45
    Number of basis function: 91
    Number of Cartesian functions: 95
    Spherical Harmonics?: true
    Max angular momentum: 2

  ==> DFT Potential <==

   => Composite Functional: B3LYP-D3ZERO <= 

    B3LYP-d3zero Hyb-GGA Exchange-Correlation Functional

    P. J. Stephens, F. J. Devlin, C. F. Chabalowski, and M. J. Frisch, J. Phys. Chem. 98, 11623 (1994)

    Deriv               =              1
    GGA                 =           TRUE
    Meta                =          FALSE

    Exchange Hybrid     =           TRUE
    MP2 Hybrid          =          FALSE

   => Exchange Functionals <=

    0.0800   Slater exchange
    0.7200         Becke 88

   => Exact (HF) Exchange <=

    0.2000               HF 

   => Correlation Functionals <=

    0.1900   Vosko, Wilk & Nusair (VWN5_RPA)
    0.8100   Lee, Yang & Parr

   => Molecular Quadrature <=

    Radial Scheme       =       TREUTLER
    Pruning Scheme      =           FLAT
    Nuclear Scheme      =       TREUTLER

    BS radius alpha     =              1
    Pruning alpha       =              1
    Radial Points       =             75
    Spherical Points    =            302
    Total Points        =         245087
    Total Blocks        =           1896
    Max Points          =            256
    Max Functions       =             91

   => -D3ZERO: Empirical Dispersion <=

    Grimme's -D3 (zero-damping) Dispersion Correction
    Grimme S.; Antony J.; Ehrlich S.; Krieg H. (2010), J. Chem. Phys., 132: 154104

        S6 =   1.000000E+00
        S8 =   1.703000E+00
       SR6 =   1.261000E+00
       SR8 =   1.000000E+00
    ALPHA6 =   1.400000E+01

   => Loading Basis Set <=

    Name: (CC-PVDZ AUX)
    Role: JKFIT
    Keyword: DF_BASIS_SCF
    atoms 1    entry O          line   221 file /shared/joao/test_parameterize/miniconda3/share/psi4/basis/cc-pvdz-jkfit.gbs 
    atoms 2-3  entry C          line   121 file /shared/joao/test_parameterize/miniconda3/share/psi4/basis/cc-pvdz-jkfit.gbs 
    atoms 4    entry N          line   171 file /shared/joao/test_parameterize/miniconda3/share/psi4/basis/cc-pvdz-jkfit.gbs 
    atoms 5-11 entry H          line    51 file /shared/joao/test_parameterize/miniconda3/share/psi4/basis/cc-pvdz-jkfit.gbs 

  ==> Pre-Iterations <==

   -------------------------------------------------------
    Irrep   Nso     Nmo     Nalpha   Nbeta   Ndocc  Nsocc
   -------------------------------------------------------
     A         91      91       0       0       0       0
   -------------------------------------------------------
    Total      91      91      17      17      17       0
   -------------------------------------------------------

  ==> Integral Setup <==

  DFHelper Memory: AOs need 0.036 [GiB]; user supplied 3.486 [GiB]. Using in-core AOs.

  ==> MemDFJK: Density-Fitted J/K Matrices <==

    J tasked:                   Yes
    K tasked:                   Yes
    wK tasked:                   No
    OpenMP threads:               1
    Memory (MB):               3570
    Algorithm:                 Core
    Schwarz Cutoff:           1E-12
    Mask sparsity (%):       0.5072
    Fitting Condition:        1E-12

   => Auxiliary Basis Set <=

  Basis Set: (CC-PVDZ AUX)
    Blend: CC-PVDZ-JKFIT
    Number of shells: 159
    Number of basis function: 441
    Number of Cartesian functions: 499
    Spherical Harmonics?: true
    Max angular momentum: 3

  Minimum eigenvalue in the overlap matrix is 4.4929591785E-03.
  Using Symmetric Orthogonalization.

  SCF Guess: Superposition of Atomic Densities via on-the-fly atomic UHF.

  ==> Iterations <==

                           Total Energy        Delta E     RMS |[F,P]|

   @DF-RKS iter   0:  -210.84434437029793   -2.10844e+02   3.67068e-02 
   @DF-RKS iter   1:  -210.21403395036398    6.30310e-01   7.07505e-03 
   @DF-RKS iter   2:  -210.07245291360869    1.41581e-01   9.63351e-03 DIIS
   @DF-RKS iter   3:  -210.39026396861968   -3.17811e-01   5.72885e-04 DIIS
   @DF-RKS iter   4:  -210.39093148935419   -6.67521e-04   3.65010e-04 DIIS
   @DF-RKS iter   5:  -210.39140321410915   -4.71725e-04   4.87892e-05 DIIS
   @DF-RKS iter   6:  -210.39140952570631   -6.31160e-06   2.32297e-05 DIIS
   @DF-RKS iter   7:  -210.39141149469734   -1.96899e-06   2.14620e-06 DIIS
   @DF-RKS iter   8:  -210.39141151136511   -1.66678e-08   6.67049e-07 DIIS

  ==> Post-Iterations <==

    Orbital Energies [Eh]
    ---------------------

    Doubly Occupied:                                                      

       1A    -19.126483     2A    -14.305060     3A    -10.222972  
       4A    -10.201790     5A     -1.008872     6A     -0.876749  
       7A     -0.711906     8A     -0.596370     9A     -0.505447  
      10A     -0.487179    11A     -0.452248    12A     -0.416888  
      13A     -0.389230    14A     -0.361423    15A     -0.323192  
      16A     -0.260127    17A     -0.231471  

    Virtual:                                                              

      18A      0.051353    19A      0.058605    20A      0.100759  
      21A      0.119186    22A      0.125722    23A      0.152499  
      24A      0.171128    25A      0.203774    26A      0.244099  
      27A      0.257807    28A      0.438105    29A      0.452922  
      30A      0.485282    31A      0.497834    32A      0.562445  
      33A      0.582439    34A      0.608415    35A      0.615669  
      36A      0.640512    37A      0.652943    38A      0.658711  
      39A      0.680478    40A      0.702663    41A      0.816502  
      42A      0.835671    43A      0.846535    44A      0.914243  
      45A      0.961602    46A      0.993594    47A      1.015898  
      48A      1.064007    49A      1.185896    50A      1.214066  
      51A      1.233704    52A      1.251720    53A      1.328440  
      54A      1.352910    55A      1.416283    56A      1.486666  
      57A      1.518396    58A      1.602131    59A      1.613709  
      60A      1.640532    61A      1.656020    62A      1.660984  
      63A      1.711959    64A      1.740536    65A      1.761386  
      66A      1.772080    67A      1.805052    68A      1.860534  
      69A      1.916008    70A      1.948082    71A      1.991790  
      72A      2.014787    73A      2.055544    74A      2.146358  
      75A      2.156700    76A      2.246542    77A      2.298228  
      78A      2.370917    79A      2.390853    80A      2.441684  
      81A      2.478256    82A      2.533704    83A      2.609452  
      84A      2.681451    85A      2.822372    86A      2.960856  
      87A      3.016940    88A      3.037973    89A      3.124478  
      90A      3.203363    91A      3.696754  

    Final Occupation by Irrep:
              A 
    DOCC [    17 ]

  Energy converged.

  @DF-RKS Final Energy:  -210.39141151136511

   => Energetics <=

    Nuclear Repulsion Energy =            130.3882835085014449
    One-Electron Energy =                -543.7225297410913072
    Two-Electron Energy =                 226.4341354004360483
    DFT Exchange-Correlation Energy =     -23.4864009592112666
    Empirical Dispersion Energy =          -0.0048997200000000
    VV10 Nonlocal Energy =                  0.0000000000000000
    Total Energy =                       -210.3914115113650780



Properties will be evaluated at   0.000000,   0.000000,   0.000000 [a0]

Properties computed using the SCF density matrix

  Nuclear Dipole Moment: [e a0]
     X:   176.9956      Y:   -31.6998      Z:   -33.1976

  Electronic Dipole Moment: [e a0]
     X:  -176.8086      Y:    32.0429      Z:    33.0542

  Dipole Moment: [e a0]
     X:     0.1870      Y:     0.3431      Z:    -0.1433     Total:     0.4162

  Dipole Moment: [D]
     X:     0.4753      Y:     0.8722      Z:    -0.3643     Total:     1.0580


*** tstop() called on loro.prib.upf.edu at Sat Sep 29 17:09:48 2018
Module time:
	user time   =      15.09 seconds =       0.25 minutes
	system time =       0.21 seconds =       0.00 minutes
	total time  =         18 seconds =       0.30 minutes
Total time:
	user time   =      15.09 seconds =       0.25 minutes
	system time =       0.21 seconds =       0.00 minutes
	total time  =         18 seconds =       0.30 minutes


Properties will be evaluated at   0.000000,   0.000000,   0.000000 [a0]
OEProp: No title given, name of density matrix used for the following properties is 'SCF density'
  Nuclear Dipole Moment: [e a0]
     X:   176.9956      Y:   -31.6998      Z:   -33.1976

  Electronic Dipole Moment: [e a0]
     X:  -176.8086      Y:    32.0429      Z:    33.0542

  Dipole Moment: [e a0]
     X:     0.1870      Y:     0.3431      Z:    -0.1433     Total:     0.4162

  Dipole Moment: [D]
     X:     0.4753      Y:     0.8722      Z:    -0.3643     Total:     1.0580

  Quadrupole Moment: [D A]
    XX:   -25.1482     YY:   -23.0863     ZZ:   -22.5446
    XY:     0.3817     XZ:    -6.1919     YZ:     2.3767

  Traceless Quadrupole Moment: [D A]
    XX:    -1.5552     YY:     0.5067     ZZ:     1.0484
    XY:     0.3817     XZ:    -6.1919     YZ:     2.3767

  Mulliken Charges: (a.u.)
   Center  Symbol    Alpha    Beta     Spin     Total
       1     O     4.13966  4.13966  0.00000 -0.27931
       2     C     2.92833  2.92833  0.00000  0.14335
       3     C     2.98612  2.98612  0.00000  0.02775
       4     N     3.59313  3.59313  0.00000 -0.18626
       5     H     0.42981  0.42981  0.00000  0.14037
       6     H     0.49842  0.49842  0.00000  0.00316
       7     H     0.50481  0.50481  0.00000 -0.00961
       8     H     0.50073  0.50073  0.00000 -0.00147
       9     H     0.49015  0.49015  0.00000  0.01971
      10     H     0.46554  0.46554  0.00000  0.06893
      11     H     0.46331  0.46331  0.00000  0.07338

   Total alpha = 17.00000, Total beta = 17.00000, Total charge = -0.00000


    Psi4 stopped on: Saturday, 29 September 2018 05:09PM
    Psi4 wall time for execution: 0:00:18.57

*** Psi4 exiting successfully. Buy a developer a beer!
