
    -----------------------------------------------------------------------
          Psi4: An Open-Source Ab Initio Electronic Structure Package
                               Psi4 1.2.1 release

                         Git: Rev {HEAD} 406f4de 


    R. M. Parrish, L. A. Burns, D. G. A. Smith, A. C. Simmonett,
    A. E. DePrince III, E. G. Hohenstein, U. Bozkaya, A. Yu. Sokolov,
    R. Di Remigio, R. M. Richard, J. F. Gonthier, A. M. James,
    H. R. McAlexander, A. Kumar, M. Saitow, X. Wang, B. P. Pritchard,
    P. Verma, H. F. Schaefer III, K. Patkowski, R. A. King, E. F. Valeev,
    F. A. Evangelista, J. M. Turney, T. D. Crawford, and C. D. Sherrill,
    J. Chem. Theory Comput. 13(7) pp 3185--3197 (2017).
    (doi: 10.1021/acs.jctc.7b00174)


                         Additional Contributions by
    P. Kraus, H. Kruse, M. H. Lechner, M. C. Schieber, and R. A. Shaw

    -----------------------------------------------------------------------


    Psi4 started on: Saturday, 29 September 2018 08:45PM

    Process ID: 18838
    Host:       green.prib.upf.edu
    PSIDATADIR: /shared/joao/test_parameterize/miniconda3/share/psi4
    Memory:     500.0 MiB
    Threads:    1
    
  ==> Input File <==

--------------------------------------------------------------------------
set_num_threads(4)
set_memory('3000 MB')

set { scf_mem_safety_factor 0.7 }

set { reference rks }
set { basis 6-31G* }

molecule MOL {
    1 1
    noreorient
    nocom
    symmetry c1
    C   -0.000000  -0.000000  -0.177864
    C    0.036678   1.219374   0.524165
    C    0.031765   1.213120   1.915444
    C    0.000000   0.000000   2.610107
    C   -0.031765  -1.213120   1.915444
    C   -0.036678  -1.219375   0.524165
    C   -0.000000   0.000000  -1.644734
    H    0.018170   2.164705  -0.010854
    H    0.042402   2.152895   2.457886
    H    0.000000   0.000000   3.695756
    H   -0.042402  -2.152895   2.457886
    H   -0.018170  -2.164705  -0.010853
    N   -0.546037   1.015073  -2.308460
    N    0.546037  -1.015073  -2.308461
    H    0.653831  -1.019311  -3.315997
    H    0.812421  -1.855998  -1.813317
    H   -0.812421   1.855999  -1.813316
    H   -0.653831   1.019312  -3.315996
}

set optking { frozen_dihedral = (" 2 1 7 13 ") }

set optking { dynamic_level = 1 
 geom_maxiter = 250
 print_trajectory_xyz_file = True }

energy, wfn = optimize('B3LYP-D3', return_wfn=True)

import os
os.chdir(os.environ['HTMD_PSI4_WORKDIR'])

oeprop(wfn, 'DIPOLE', 'QUADRUPOLE', 'MULLIKEN_CHARGES')

with open('psi4out.xyz', 'w') as f:
    f.write('18 ' )
    f.write('%.12f\n' % energy)
    f.write(MOL.save_string_xyz())
--------------------------------------------------------------------------
  Threads set to 4 by Python driver.

  Memory set to   2.794 GiB by Python driver.
gradient() will perform analytic gradient computation.

*** tstart() called on green.prib.upf.edu
*** at Sat Sep 29 20:45:39 2018

   => Loading Basis Set <=

    Name: 6-31G*
    Role: ORBITAL
    Keyword: BASIS
    atoms 1-7         entry C          line   111 file /shared/joao/test_parameterize/miniconda3/share/psi4/basis/6-31gs.gbs 
    atoms 8-12, 15-18 entry H          line    44 file /shared/joao/test_parameterize/miniconda3/share/psi4/basis/6-31gs.gbs 
    atoms 13-14       entry N          line   128 file /shared/joao/test_parameterize/miniconda3/share/psi4/basis/6-31gs.gbs 


         ---------------------------------------------------------
                                   SCF
            by Justin Turney, Rob Parrish, Andy Simmonett
                             and Daniel Smith
                              RKS Reference
                        4 Threads,   2861 MiB Core
         ---------------------------------------------------------

  ==> Geometry <==

    Molecular point group: c1
    Full point group: C1

    Geometry (in Angstrom), charge = 1, multiplicity = 1:

       Center              X                  Y                   Z               Mass       
    ------------   -----------------  -----------------  -----------------  -----------------
         C            0.000000000000     0.000000000000    -0.177864000000    12.000000000000
         C            0.036678000000     1.219374000000     0.524165000000    12.000000000000
         C            0.031765000000     1.213120000000     1.915444000000    12.000000000000
         C            0.000000000000     0.000000000000     2.610107000000    12.000000000000
         C           -0.031765000000    -1.213120000000     1.915444000000    12.000000000000
         C           -0.036678000000    -1.219375000000     0.524165000000    12.000000000000
         C            0.000000000000     0.000000000000    -1.644734000000    12.000000000000
         H            0.018170000000     2.164705000000    -0.010854000000     1.007825032070
         H            0.042402000000     2.152895000000     2.457886000000     1.007825032070
         H            0.000000000000     0.000000000000     3.695756000000     1.007825032070
         H           -0.042402000000    -2.152895000000     2.457886000000     1.007825032070
         H           -0.018170000000    -2.164705000000    -0.010853000000     1.007825032070
         N           -0.546037000000     1.015073000000    -2.308460000000    14.003074004780
         N            0.546037000000    -1.015073000000    -2.308461000000    14.003074004780
         H            0.653831000000    -1.019311000000    -3.315997000000     1.007825032070
         H            0.812421000000    -1.855998000000    -1.813317000000     1.007825032070
         H           -0.812421000000     1.855999000000    -1.813316000000     1.007825032070
         H           -0.653831000000     1.019312000000    -3.315996000000     1.007825032070

  Running in c1 symmetry.

  Rotational constants: A =      0.12190  B =      0.04002  C =      0.03102 [cm^-1]
  Rotational constants: A =   3654.48743  B =   1199.79224  C =    929.84625 [MHz]
  Nuclear repulsion =  417.249160077460374

  Charge       = 1
  Multiplicity = 1
  Electrons    = 64
  Nalpha       = 32
  Nbeta        = 32

  ==> Algorithm <==

  SCF Algorithm Type is DF.
  DIIS enabled.
  MOM disabled.
  Fractional occupation disabled.
  Guess Type is SAD.
  Energy threshold   = 1.00e-08
  Density threshold  = 1.00e-08
  Integral threshold = 0.00e+00

  ==> Primary Basis <==

  Basis Set: 6-31G*
    Blend: 6-31G*
    Number of shells: 72
    Number of basis function: 153
    Number of Cartesian functions: 153
    Spherical Harmonics?: false
    Max angular momentum: 2

  ==> DFT Potential <==

   => Composite Functional: B3LYP-D3ZERO <= 

    B3LYP-d3zero Hyb-GGA Exchange-Correlation Functional

    P. J. Stephens, F. J. Devlin, C. F. Chabalowski, and M. J. Frisch, J. Phys. Chem. 98, 11623 (1994)

    Deriv               =              1
    GGA                 =           TRUE
    Meta                =          FALSE

    Exchange Hybrid     =           TRUE
    MP2 Hybrid          =          FALSE

   => Exchange Functionals <=

    0.0800   Slater exchange
    0.7200         Becke 88

   => Exact (HF) Exchange <=

    0.2000               HF 

   => Correlation Functionals <=

    0.1900   Vosko, Wilk & Nusair (VWN5_RPA)
    0.8100   Lee, Yang & Parr

   => Molecular Quadrature <=

    Radial Scheme       =       TREUTLER
    Pruning Scheme      =           FLAT
    Nuclear Scheme      =       TREUTLER

    BS radius alpha     =              1
    Pruning alpha       =              1
    Radial Points       =             75
    Spherical Points    =            302
    Total Points        =         396706
    Total Blocks        =           2974
    Max Points          =            256
    Max Functions       =            149

   => -D3ZERO: Empirical Dispersion <=

    Grimme's -D3 (zero-damping) Dispersion Correction
    Grimme S.; Antony J.; Ehrlich S.; Krieg H. (2010), J. Chem. Phys., 132: 154104

        S6 =   1.000000E+00
        S8 =   1.703000E+00
       SR6 =   1.261000E+00
       SR8 =   1.000000E+00
    ALPHA6 =   1.400000E+01

   => Loading Basis Set <=

    Name: (6-31G* AUX)
    Role: JKFIT
    Keyword: DF_BASIS_SCF
    atoms 1-7         entry C          line   121 file /shared/joao/test_parameterize/miniconda3/share/psi4/basis/cc-pvdz-jkfit.gbs 
    atoms 8-12, 15-18 entry H          line    51 file /shared/joao/test_parameterize/miniconda3/share/psi4/basis/cc-pvdz-jkfit.gbs 
    atoms 13-14       entry N          line   171 file /shared/joao/test_parameterize/miniconda3/share/psi4/basis/cc-pvdz-jkfit.gbs 

  ==> Pre-Iterations <==

   -------------------------------------------------------
    Irrep   Nso     Nmo     Nalpha   Nbeta   Ndocc  Nsocc
   -------------------------------------------------------
     A        153     153       0       0       0       0
   -------------------------------------------------------
    Total     153     153      32      32      32       0
   -------------------------------------------------------

  ==> Integral Setup <==

  ==> DiskDFJK: Density-Fitted J/K Matrices <==

    J tasked:                  Yes
    K tasked:                  Yes
    wK tasked:                  No
    OpenMP threads:              4
    Integrals threads:           4
    Memory (MB):              2002
    Algorithm:                Core
    Integral Cache:           NONE
    Schwarz Cutoff:          1E-12
    Fitting Condition:       1E-12

   => Auxiliary Basis Set <=

  Basis Set: (6-31G* AUX)
    Blend: CC-PVDZ-JKFIT
    Number of shells: 297
    Number of basis function: 954
    Number of Cartesian functions: 954
    Spherical Harmonics?: false
    Max angular momentum: 3

  Minimum eigenvalue in the overlap matrix is 4.8099644363E-04.
  Using Symmetric Orthogonalization.

  SCF Guess: Superposition of Atomic Densities via on-the-fly atomic UHF.

  ==> Iterations <==

                           Total Energy        Delta E     RMS |[F,P]|

   @DF-RKS iter   0:  -379.46475671995989   -3.79465e+02   6.66502e-02 
   @DF-RKS iter   1:  -381.00136932718664   -1.53661e+00   1.25975e-02 
   @DF-RKS iter   2:  -380.88464259909205    1.16727e-01   1.39358e-02 DIIS
   @DF-RKS iter   3:  -381.45294242125254   -5.68300e-01   2.11404e-03 DIIS
   @DF-RKS iter   4:  -381.46246143045073   -9.51901e-03   9.11392e-04 DIIS
   @DF-RKS iter   5:  -381.46447841877540   -2.01699e-03   2.51539e-04 DIIS
   @DF-RKS iter   6:  -381.46463628170858   -1.57863e-04   8.48008e-05 DIIS
   @DF-RKS iter   7:  -381.46465522405083   -1.89423e-05   2.24428e-05 DIIS
   @DF-RKS iter   8:  -381.46465670085564   -1.47680e-06   6.92242e-06 DIIS
   @DF-RKS iter   9:  -381.46465685180027   -1.50945e-07   2.16886e-06 DIIS
   @DF-RKS iter  10:  -381.46465686504331   -1.32430e-08   6.31319e-07 DIIS
   @DF-RKS iter  11:  -381.46465686610253   -1.05922e-09   1.50977e-07 DIIS
   @DF-RKS iter  12:  -381.46465686615346   -5.09317e-11   8.87408e-08 DIIS
   @DF-RKS iter  13:  -381.46465686618092   -2.74554e-11   1.37471e-08 DIIS
   @DF-RKS iter  14:  -381.46465686618120   -2.84217e-13   7.08528e-09 DIIS

  ==> Post-Iterations <==

    Orbital Energies [Eh]
    ---------------------

    Doubly Occupied:                                                      

       1A    -14.568103     2A    -14.568096     3A    -10.498982  
       4A    -10.375342     5A    -10.359474     6A    -10.359465  
       7A    -10.343737     8A    -10.342208     9A    -10.342113  
      10A     -1.184892    11A     -1.093129    12A     -1.016048  
      13A     -0.928001    14A     -0.904806    15A     -0.847548  
      16A     -0.786535    17A     -0.777706    18A     -0.740408  
      19A     -0.736618    20A     -0.689999    21A     -0.669039  
      22A     -0.630891    23A     -0.616009    24A     -0.593423  
      25A     -0.579810    26A     -0.578907    27A     -0.517081  
      28A     -0.508987    29A     -0.500807    30A     -0.472219  
      31A     -0.410594    32A     -0.407083  

    Virtual:                                                              

      33A     -0.218298    34A     -0.157762    35A     -0.129461  
      36A     -0.112810    37A     -0.076534    38A     -0.068141  
      39A     -0.041134    40A     -0.031767    41A      0.011371  
      42A      0.024281    43A      0.028750    44A      0.063616  
      45A      0.077849    46A      0.082866    47A      0.118989  
      48A      0.145110    49A      0.154016    50A      0.174799  
      51A      0.218129    52A      0.242922    53A      0.299331  
      54A      0.348532    55A      0.350006    56A      0.375916  
      57A      0.390851    58A      0.396637    59A      0.421707  
      60A      0.423427    61A      0.441843    62A      0.447424  
      63A      0.450263    64A      0.470033    65A      0.470478  
      66A      0.473609    67A      0.483217    68A      0.496591  
      69A      0.501269    70A      0.541249    71A      0.557958  
      72A      0.589047    73A      0.615582    74A      0.645916  
      75A      0.665309    76A      0.685668    77A      0.692313  
      78A      0.704701    79A      0.716565    80A      0.742527  
      81A      0.777367    82A      0.781343    83A      0.786772  
      84A      0.804606    85A      0.827887    86A      0.853053  
      87A      0.854403    88A      0.931912    89A      0.970462  
      90A      1.004211    91A      1.006495    92A      1.030352  
      93A      1.036044    94A      1.057999    95A      1.137441  
      96A      1.178467    97A      1.222377    98A      1.273325  
      99A      1.280630   100A      1.308460   101A      1.320539  
     102A      1.343958   103A      1.355594   104A      1.370165  
     105A      1.377166   106A      1.456047   107A      1.515072  
     108A      1.609244   109A      1.623575   110A      1.647781  
     111A      1.680966   112A      1.736084   113A      1.752820  
     114A      1.799639   115A      1.817981   116A      1.862364  
     117A      1.899600   118A      1.901933   119A      1.939123  
     120A      1.978257   121A      1.992518   122A      2.023396  
     123A      2.036202   124A      2.068022   125A      2.124612  
     126A      2.125732   127A      2.155355   128A      2.208112  
     129A      2.225270   130A      2.267345   131A      2.338842  
     132A      2.364768   133A      2.446294   134A      2.456195  
     135A      2.490492   136A      2.517771   137A      2.537302  
     138A      2.589447   139A      2.601797   140A      2.636620  
     141A      2.738259   142A      2.884359   143A      2.993641  
     144A      3.257034   145A      3.637212   146A      3.674577  
     147A      3.910487   148A      3.946205   149A      3.961294  
     150A      4.047293   151A      4.169592   152A      4.257227  
     153A      4.545449  

    Final Occupation by Irrep:
              A 
    DOCC [    32 ]

  Energy converged.

  @DF-RKS Final Energy:  -381.46465686618120

   => Energetics <=

    Nuclear Repulsion Energy =            417.2491600774603739
    One-Electron Energy =               -1329.5828239258603389
    Two-Electron Energy =                 575.2885608424134034
    DFT Exchange-Correlation Energy =     -44.4079209401946287
    Empirical Dispersion Energy =          -0.0116329200000000
    VV10 Nonlocal Energy =                  0.0000000000000000
    Total Energy =                       -381.4646568661812012



Properties will be evaluated at   0.000000,   0.000000,   0.000000 [a0]

Properties computed using the SCF density matrix

  Nuclear Dipole Moment: [e a0]
     X:    -0.0000      Y:    -0.0000      Z:     0.0248

  Electronic Dipole Moment: [e a0]
     X:    -0.0000      Y:     0.0000      Z:    -2.2687

  Dipole Moment: [e a0]
     X:    -0.0000      Y:     0.0000      Z:    -2.2439     Total:     2.2439

  Dipole Moment: [D]
     X:    -0.0000      Y:     0.0000      Z:    -5.7034     Total:     5.7034


*** tstop() called on green.prib.upf.edu at Sat Sep 29 20:46:06 2018
Module time:
	user time   =      97.06 seconds =       1.62 minutes
	system time =       0.50 seconds =       0.01 minutes
	total time  =         27 seconds =       0.45 minutes
Total time:
	user time   =      97.06 seconds =       1.62 minutes
	system time =       0.50 seconds =       0.01 minutes
	total time  =         27 seconds =       0.45 minutes

*** tstart() called on green.prib.upf.edu
*** at Sat Sep 29 20:46:06 2018


         ------------------------------------------------------------
                                   SCF GRAD                          
                          Rob Parrish, Justin Turney,                
                       Andy Simmonett, and Alex Sokolov              
         ------------------------------------------------------------

  ==> Geometry <==

    Molecular point group: c1
    Full point group: C1

    Geometry (in Angstrom), charge = 1, multiplicity = 1:

       Center              X                  Y                   Z               Mass       
    ------------   -----------------  -----------------  -----------------  -----------------
         C            0.000000000000     0.000000000000    -0.177864000000    12.000000000000
         C            0.036678000000     1.219374000000     0.524165000000    12.000000000000
         C            0.031765000000     1.213120000000     1.915444000000    12.000000000000
         C            0.000000000000     0.000000000000     2.610107000000    12.000000000000
         C           -0.031765000000    -1.213120000000     1.915444000000    12.000000000000
         C           -0.036678000000    -1.219375000000     0.524165000000    12.000000000000
         C            0.000000000000     0.000000000000    -1.644734000000    12.000000000000
         H            0.018170000000     2.164705000000    -0.010854000000     1.007825032070
         H            0.042402000000     2.152895000000     2.457886000000     1.007825032070
         H            0.000000000000     0.000000000000     3.695756000000     1.007825032070
         H           -0.042402000000    -2.152895000000     2.457886000000     1.007825032070
         H           -0.018170000000    -2.164705000000    -0.010853000000     1.007825032070
         N           -0.546037000000     1.015073000000    -2.308460000000    14.003074004780
         N            0.546037000000    -1.015073000000    -2.308461000000    14.003074004780
         H            0.653831000000    -1.019311000000    -3.315997000000     1.007825032070
         H            0.812421000000    -1.855998000000    -1.813317000000     1.007825032070
         H           -0.812421000000     1.855999000000    -1.813316000000     1.007825032070
         H           -0.653831000000     1.019312000000    -3.315996000000     1.007825032070

  Nuclear repulsion =  417.249160077460374

  ==> Basis Set <==

  Basis Set: 6-31G*
    Blend: 6-31G*
    Number of shells: 72
    Number of basis function: 153
    Number of Cartesian functions: 153
    Spherical Harmonics?: false
    Max angular momentum: 2

  ==> DFJKGrad: Density-Fitted SCF Gradients <==

    Gradient:                    1
    J tasked:                  Yes
    K tasked:                  Yes
    wK tasked:                  No
    OpenMP threads:              4
    Integrals threads:           4
    Memory (MB):              2002
    Schwarz Cutoff:          0E+00
    Fitting Condition:       1E-12

   => Auxiliary Basis Set <=

  Basis Set: (6-31G* AUX)
    Blend: CC-PVDZ-JKFIT
    Number of shells: 297
    Number of basis function: 954
    Number of Cartesian functions: 954
    Spherical Harmonics?: false
    Max angular momentum: 3

  ==> DFT Potential <==

   => Composite Functional: B3LYP-D3ZERO <= 

    B3LYP-d3zero Hyb-GGA Exchange-Correlation Functional

    P. J. Stephens, F. J. Devlin, C. F. Chabalowski, and M. J. Frisch, J. Phys. Chem. 98, 11623 (1994)

    Deriv               =              1
    GGA                 =           TRUE
    Meta                =          FALSE

    Exchange Hybrid     =           TRUE
    MP2 Hybrid          =          FALSE

   => Exchange Functionals <=

    0.0800   Slater exchange
    0.7200         Becke 88

   => Exact (HF) Exchange <=

    0.2000               HF 

   => Correlation Functionals <=

    0.1900   Vosko, Wilk & Nusair (VWN5_RPA)
    0.8100   Lee, Yang & Parr

   => Molecular Quadrature <=

    Radial Scheme       =       TREUTLER
    Pruning Scheme      =           FLAT
    Nuclear Scheme      =       TREUTLER

    BS radius alpha     =              1
    Pruning alpha       =              1
    Radial Points       =             75
    Spherical Points    =            302
    Total Points        =         396706
    Total Blocks        =           2974
    Max Points          =            256
    Max Functions       =            149


  -Total Gradient:
     Atom            X                  Y                   Z
    ------   -----------------  -----------------  -----------------
       1       -0.000000018939     0.000000843910    -0.002314886528
       2        0.007800981613     0.003216497540    -0.000405994376
       3        0.000437700002    -0.000573735389     0.000191908740
       4        0.000000000022    -0.000000031544     0.000354207924
       5       -0.000437690499     0.000573956967     0.000192111595
       6       -0.007800998569    -0.003218007558    -0.000406402763
       7       -0.000000125117     0.000000073741     0.001597187797
       8       -0.004417180044    -0.001027191010    -0.002248498347
       9       -0.000865349460     0.000046728159    -0.000014006224
      10       -0.000000000552     0.000000004360     0.000094261086
      11        0.000865347959    -0.000046765356    -0.000014044677
      12        0.004417159954     0.001027890630    -0.002248039480
      13       -0.004102625370    -0.001238570404     0.001225681184
      14        0.004103034205     0.001237587003     0.001225567499
      15        0.003044878312     0.001296417363    -0.000131087128
      16       -0.004612199544    -0.002067680064     0.001508816756
      17        0.004611985595     0.002068334897     0.001509052598
      18       -0.003044899657    -0.001296353316    -0.000131057254


*** tstop() called on green.prib.upf.edu at Sat Sep 29 20:46:12 2018
Module time:
	user time   =      26.88 seconds =       0.45 minutes
	system time =       0.28 seconds =       0.00 minutes
	total time  =          6 seconds =       0.10 minutes
Total time:
	user time   =     124.00 seconds =       2.07 minutes
	system time =       0.79 seconds =       0.01 minutes
	total time  =         33 seconds =       0.55 minutes

			-----------------------------------------
			 OPTKING 2.0: for geometry optimizations 
			  - R.A. King,  Bethel University        
			-----------------------------------------
	At level 1: Red. Int., RFO, no backsteps, dynamic trust

	Internal coordinates to be generated automatically.
	Detected frag 1 with atoms:  1 2 3 4 5 6 7 8 9 10 11 12 13 14 15 16 17 18
	---Fragment 1 Bond Connectivity---
	 1 : 2 6 7
	 2 : 1 3 8
	 3 : 2 4 9
	 4 : 3 5 10
	 5 : 4 6 11
	 6 : 1 5 12
	 7 : 1 13 14
	 8 : 2
	 9 : 3
	 10 : 4
	 11 : 5
	 12 : 6
	 13 : 7 17 18
	 14 : 7 15 16
	 15 : 14
	 16 : 14
	 17 : 13
	 18 : 13

	Assuming in current code that numbering for constraints corresponds to unified fragment.
	Frozen dihedral atom list: 
	     2     1     7    13
	---Fragment 1 Geometry and Gradient---
	 C           0.0000000000        0.0000000000       -0.3361142489
	 C           0.0693113751        2.3042829136        0.9905282984
	 C           0.0600271506        2.2924645663        3.6196645829
	 C           0.0000000000        0.0000000000        4.9323874075
	 C          -0.0600271506       -2.2924645663        3.6196645829
	 C          -0.0693113751       -2.3042848033        0.9905282984
	 C           0.0000000000        0.0000000000       -3.1080968214
	 H           0.0343363238        4.0906996085       -0.0205110874
	 H           0.0801281675        4.0683819429        4.6447314059
	 H           0.0000000000        0.0000000000        6.9839666940
	 H          -0.0801281675       -4.0683819429        4.6447314059
	 H          -0.0343363238       -4.0906996085       -0.0205091977
	 N          -1.0318603884        1.9182099749       -4.3623571887
	 N           1.0318603884       -1.9182099749       -4.3623590784
	 H           1.2355615272       -1.9262186342       -6.2663261875
	 H           1.5352531946       -3.5073279232       -3.4266725221
	 H          -1.5352531946        3.5073298129       -3.4266706324
	 H          -1.2355615272        1.9262205240       -6.2663242977
	            -0.0000000189        0.0000008439       -0.0023148865
	             0.0078009816        0.0032164975       -0.0004059944
	             0.0004377000       -0.0005737354        0.0001919087
	             0.0000000000       -0.0000000315        0.0003542079
	            -0.0004376905        0.0005739570        0.0001921116
	            -0.0078009986       -0.0032180076       -0.0004064028
	            -0.0000001251        0.0000000737        0.0015971878
	            -0.0044171800       -0.0010271910       -0.0022484983
	            -0.0008653495        0.0000467282       -0.0000140062
	            -0.0000000006        0.0000000044        0.0000942611
	             0.0008653480       -0.0000467654       -0.0000140447
	             0.0044171600        0.0010278906       -0.0022480395
	            -0.0041026254       -0.0012385704        0.0012256812
	             0.0041030342        0.0012375870        0.0012255675
	             0.0030448783        0.0012964174       -0.0001310871
	            -0.0046121995       -0.0020676801        0.0015088168
	             0.0046119856        0.0020683349        0.0015090526
	            -0.0030448997       -0.0012963533       -0.0001310573

	Previous optimization step data not found.  Starting new optimization.

	---Fragment 1 Intrafragment Coordinates---
	 - Coordinate -           - BOHR/RAD -       - ANG/DEG -
	 R(1,2)           =         2.659794	       1.407502
	 R(1,6)           =         2.659796	       1.407503
	 R(1,7)           =         2.771983	       1.466870
	 R(2,3)           =         2.629179	       1.391302
	 R(2,8)           =         2.052976	       1.086388
	 R(3,4)           =         2.642393	       1.398294
	 R(3,9)           =         2.050622	       1.085142
	 R(4,5)           =         2.642393	       1.398294
	 R(4,10)          =         2.051579	       1.085649
	 R(5,6)           =         2.629179	       1.391302
	 R(5,11)          =         2.050622	       1.085142
	 R(6,12)          =         2.052973	       1.086386
	 R(7,13)          =         2.513451	       1.330061
	 R(7,14)          =         2.513452	       1.330061
	 R(13,17)         =         1.911600	       1.011575
	 R(13,18)         =         1.914850	       1.013295
	 R(14,15)         =         1.914850	       1.013295
	 R(14,16)         =         1.911599	       1.011574
	 B(1,2,3)         =         2.088380	     119.655376
	 B(1,2,8)         =         2.103396	     120.515689
	 B(1,6,5)         =         2.088379	     119.655315
	 B(1,6,12)        =         2.103396	     120.515729
	 B(1,7,13)        =         2.093263	     119.935137
	 B(1,7,14)        =         2.093264	     119.935175
	 B(2,1,6)         =         2.097220	     120.161857
	 B(2,1,7)         =         2.092983	     119.919082
	 B(2,3,4)         =         2.095279	     120.050636
	 B(2,3,9)         =         2.089719	     119.732108
	 B(3,2,8)         =         2.090149	     119.756722
	 B(3,4,5)         =         2.101793	     120.423859
	 B(3,4,10)        =         2.090696	     119.788070
	 B(4,3,9)         =         2.098135	     120.214297
	 B(4,5,6)         =         2.095280	     120.050677
	 B(4,5,11)        =         2.098135	     120.214297
	 B(5,4,10)        =         2.090696	     119.788070
	 B(5,6,12)        =         2.090149	     119.756743
	 B(6,1,7)         =         2.092982	     119.919061
	 B(6,5,11)        =         2.089719	     119.732067
	 B(7,13,17)       =         2.092412	     119.886404
	 B(7,13,18)       =         2.144860	     122.891408
	 B(7,14,15)       =         2.144859	     122.891394
	 B(7,14,16)       =         2.092411	     119.886344
	 B(13,7,14)       =         2.096659	     120.129688
	 B(15,14,16)      =         2.043400	     117.078208
	 B(17,13,18)      =         2.043399	     117.078131
	 D(1,2,3,4)       =         0.007799	       0.446825
	 D(1,2,3,9)       =        -3.122896	    -178.928735
	 D(1,6,5,4)       =         0.007799	       0.446822
	 D(1,6,5,11)      =        -3.122896	    -178.928737
	 D(1,7,13,17)     =         0.187844	      10.762656
	 D(1,7,13,18)     =        -3.032165	    -173.730258
	 D(1,7,14,15)     =        -3.032164	    -173.730227
	 D(1,7,14,16)     =         0.187843	      10.762627
	 D(2,1,6,5)       =        -0.003906	      -0.223802
	 D(2,1,6,12)      =        -3.091437	    -177.126283
	*D(2,1,7,13)      =        -0.523599	     -29.999989
	 D(2,1,7,14)      =         2.617994	     150.000011
	 D(2,3,4,5)       =        -0.003942	      -0.225875
	 D(2,3,4,10)      =         3.137650	     179.774125
	 D(3,2,1,6)       =        -0.003906	      -0.223806
	 D(3,2,1,7)       =         3.137687	     179.776196
	 D(3,4,5,6)       =        -0.003942	      -0.225874
	 D(3,4,5,11)      =         3.126699	     179.146646
	 D(4,3,2,8)       =         3.095744	     177.373058
	 D(4,5,6,12)      =         3.095744	     177.373055
	 D(5,4,3,9)       =         3.126699	     179.146646
	 D(5,6,1,7)       =         3.137687	     179.776197
	 D(6,1,2,8)       =        -3.091437	    -177.126287
	 D(6,1,7,13)      =         2.617994	     150.000012
	 D(6,1,7,14)      =        -0.523599	     -29.999988
	 D(6,5,4,10)      =         3.137650	     179.774126
	 D(7,1,2,8)       =         0.050156	       2.873714
	 D(7,1,6,12)      =         0.050156	       2.873716
	 D(8,2,3,9)       =        -0.034950	      -2.002503
	 D(9,3,4,10)      =        -0.014894	      -0.853354
	 D(10,4,5,11)     =        -0.014894	      -0.853354
	 D(11,5,6,12)     =        -0.034950	      -2.002504
	 D(13,7,14,15)    =         0.109428	       6.269773
	 D(13,7,14,16)    =        -2.953749	    -169.237373
	 D(14,7,13,17)    =        -2.953749	    -169.237344
	 D(14,7,13,18)    =         0.109428	       6.269742

	Current energy   :      -381.4646568662

	Generating empirical Hessian (Schlegel '84) for each fragment.
	Taking RFO optimization step.
	Going to follow RFO solution 1.
	Using RFO vector 1.
	Norm of target step-size    0.45326
	Projected energy change by RFO approximation:        -0.0083682587

	Back-transformation to cartesian coordinates...
	Could not converge backtransformation.
	Using first guess instead.

	Back-transformation to cartesian coordinates to adjust frozen coordinates...
	Successfully converged to displaced geometry.

	--- Internal Coordinate Step in ANG or DEG, aJ/ANG or AJ/DEG ---
	 ---------------------------------------------------------------------------
	   Coordinate                Previous        Force       Change         New 
	   ----------                --------       ------       ------       ------
	    1 R(1,2)          =      1.407502     0.006687     0.001011     1.408513
	    2 R(1,6)          =      1.407503     0.006684     0.001048     1.408551
	    3 R(1,7)          =      1.466870     0.056106     0.009915     1.476785
	    4 R(2,3)          =      1.391302    -0.003456    -0.000341     1.390961
	    5 R(2,8)          =      1.086388    -0.002375     0.002986     1.089374
	    6 R(3,4)          =      1.398294    -0.010851    -0.001365     1.396929
	    7 R(3,9)          =      1.085142    -0.000209     0.000890     1.086032
	    8 R(4,5)          =      1.398294    -0.010848    -0.001356     1.396938
	    9 R(4,10)         =      1.085649    -0.000784    -0.000136     1.085513
	   10 R(5,6)          =      1.391302    -0.003452    -0.000292     1.391010
	   11 R(5,11)         =      1.085142    -0.000209     0.001208     1.086350
	   12 R(6,12)         =      1.086386    -0.002368     0.003674     1.090061
	   13 R(7,13)         =      1.330061     0.005073     0.000804     1.330865
	   14 R(7,14)         =      1.330061     0.005069     0.001360     1.331421
	   15 R(13,17)        =      1.011575    -0.010250     0.009711     1.021287
	   16 R(13,18)        =      1.013295    -0.003690     0.003058     1.016353
	   17 R(14,15)        =      1.013295    -0.003690     0.003106     1.016401
	   18 R(14,16)        =      1.011574    -0.010244     0.011583     1.023157
	   19 B(1,2,3)        =    119.655376     0.000142     0.490338   120.145714
	   20 B(1,2,8)        =    120.515689     0.000132     0.662569   121.178258
	   21 B(1,6,5)        =    119.655315     0.000142     0.498488   120.153803
	   22 B(1,6,12)       =    120.515729     0.000132     0.704556   121.220285
	   23 B(1,7,13)       =    119.935137     0.000255     0.752856   120.687994
	   24 B(1,7,14)       =    119.935175     0.000255     0.710045   120.645220
	   25 B(2,1,6)        =    120.161857    -0.000274    -0.840535   119.321322
	   26 B(2,1,7)        =    119.919082     0.000137     0.409812   120.328893
	   27 B(2,3,4)        =    120.050636     0.000019     0.008578   120.059214
	   28 B(2,3,9)        =    119.732108    -0.000008     0.002290   119.734398
	   29 B(3,2,8)        =    119.756722    -0.000264    -1.163725   118.592997
	   30 B(3,4,5)        =    120.423859    -0.000046    -0.186336   120.237524
	   31 B(3,4,10)       =    119.788070     0.000023     0.095337   119.883408
	   32 B(4,3,9)        =    120.214297    -0.000011    -0.008744   120.205553
	   33 B(4,5,6)        =    120.050677     0.000019     0.003523   120.054201
	   34 B(4,5,11)       =    120.214297    -0.000010    -0.008462   120.205835
	   35 B(5,4,10)       =    119.788070     0.000023     0.090690   119.878761
	   36 B(5,6,12)       =    119.756743    -0.000264    -1.203271   118.553472
	   37 B(6,1,7)        =    119.919061     0.000137     0.411437   120.330498
	   38 B(6,5,11)       =    119.732067    -0.000008     0.005768   119.737835
	   39 B(7,13,17)      =    119.886404     0.000196     0.731991   120.618394
	   40 B(7,13,18)      =    122.891408    -0.000102    -0.628946   122.262462
	   41 B(7,14,15)      =    122.891394    -0.000102    -0.694619   122.196776
	   42 B(7,14,16)      =    119.886344     0.000196     0.798868   120.685212
	   43 B(13,7,14)      =    120.129688    -0.000509    -1.481622   118.648065
	   44 B(15,14,16)     =    117.078208    -0.000088     0.023077   117.101285
	   45 B(17,13,18)     =    117.078131    -0.000088     0.024443   117.102574
	   46 D(1,2,3,4)      =      0.446825    -0.000016    -2.195986    -1.749162
	   47 D(1,2,3,9)      =   -178.928735    -0.000023    -3.152179  -182.080915
	   48 D(1,6,5,4)      =      0.446822    -0.000013    -1.602475    -1.155653
	   49 D(1,6,5,11)     =   -178.928737    -0.000021    -2.756649  -181.685386
	   50 D(1,7,13,17)    =     10.762656    -0.000074    -9.250548     1.512108
	   51 D(1,7,13,18)    =   -173.730258    -0.000050    -6.281646  -180.011904
	   52 D(1,7,14,15)    =   -173.730227    -0.000040    -4.678186  -178.408412
	   53 D(1,7,14,16)    =     10.762627    -0.000064    -7.639812     3.122816
	   54 D(2,1,6,5)      =     -0.223802     0.000003     0.213514    -0.010288
	   55 D(2,1,6,12)     =   -177.126283    -0.000042    -6.023982  -183.150264
	   56 *D(2,1,7,13)    =    -29.999989     0.000000     0.000000   -29.999989
	   57 D(2,1,7,14)     =    150.000011    -0.000010    -1.595142   148.404869
	   58 D(2,3,4,5)      =     -0.225875     0.000006     0.802980     0.577105
	   59 D(2,3,4,10)     =    179.774125     0.000008     1.005056   180.779181
	   60 D(3,2,1,6)      =     -0.223806     0.000011     1.688211     1.464405
	   61 D(3,2,1,7)      =    179.776196     0.000002     0.096126   179.872321
	   62 D(3,4,5,6)      =     -0.225874     0.000008     1.106828     0.880954
	   63 D(3,4,5,11)     =    179.146646     0.000017     2.266542   181.413188
	   64 D(4,3,2,8)      =    177.373058     0.000033     4.151807   181.524864
	   65 D(4,5,6,12)     =    177.373055     0.000035     4.528287   181.901343
	   66 D(5,4,3,9)      =    179.146646     0.000014     1.763788   180.910435
	   67 D(5,6,1,7)      =    179.776197     0.000012     1.805625   181.581822
	   68 D(6,1,2,8)      =   -177.126287    -0.000035    -4.769460  -181.895747
	   69 D(6,1,7,13)     =    150.000012    -0.000009    -1.608248   148.391764
	   70 D(6,1,7,14)     =    -29.999988    -0.000019    -3.203390   -33.203377
	   71 D(6,5,4,10)     =    179.774126     0.000007     0.904762   180.678887
	   72 D(7,1,2,8)      =      2.873714    -0.000044    -6.361545    -3.487831
	   73 D(7,1,6,12)     =      2.873716    -0.000033    -4.431870    -1.558155
	   74 D(8,2,3,9)      =     -2.002503     0.000025     3.195614     1.193111
	   75 D(9,3,4,10)     =     -0.853354     0.000015     1.965864     1.112511
	   76 D(10,4,5,11)    =     -0.853354     0.000016     2.064475     1.211121
	   77 D(11,5,6,12)    =     -2.002504     0.000026     3.374114     1.371610
	   78 D(13,7,14,15)   =      6.269773    -0.000050    -6.241289     0.028485
	   79 D(13,7,14,16)   =   -169.237373    -0.000074    -9.202915  -178.440287
	   80 D(14,7,13,17)   =   -169.237344    -0.000064    -7.686753  -176.924096
	   81 D(14,7,13,18)   =      6.269742    -0.000040    -4.717851     1.551892
	 ---------------------------------------------------------------------------
	Successfully symmetrized geometry.

  ==> Convergence Check <==

  Measures of convergence in internal coordinates in au.
  Criteria marked as inactive (o), active & met (*), and active & unmet ( ).
  --------------------------------------------------------------------------------------------- ~
   Step     Total Energy     Delta E     MAX Force     RMS Force      MAX Disp      RMS Disp    ~
  --------------------------------------------------------------------------------------------- ~
    Convergence Criteria    1.00e-06 *    3.00e-04 *             o    1.20e-03 *             o  ~
  --------------------------------------------------------------------------------------------- ~
      1    -381.46465687   -3.81e+02      6.81e-03      2.03e-03 o    1.61e-01      5.02e-02 o  ~
  ---------------------------------------------------------------------------------------------

	Writing optimization data to binary file.
	Structure for next step:
	Cartesian Geometry (in Angstrom)
	    C     0.0103586169  -0.0038414395  -0.1743619964
	    C     0.0378577393   1.2128682841   0.5347015130
	    C     0.0511303290   1.2106548683   1.9255973454
	    C     0.0003217793   0.0018562027   2.6239056257
	    C    -0.0518307763  -1.2096016918   1.9303017908
	    C    -0.0348603634  -1.2173037952   0.5394168646
	    C    -0.0066532294  -0.0061654054  -1.6510474547
	    H     0.1037686710   2.1675831200   0.0142097726
	    H     0.1065607149   2.1514940688   2.4652412715
	    H    -0.0019486684   0.0040208179   3.7094145143
	    H    -0.1144572751  -2.1482224760   2.4736482747
	    H    -0.1082601496  -2.1743295070   0.0227483515
	    N    -0.5708726883   0.9928947425  -2.3253896886
	    N     0.5700494631  -0.9923329765  -2.3348377638
	    H     0.5930212563  -1.0055535402  -3.3508930114
	    H     0.9922257841  -1.7874820369  -1.8486736670
	    H    -0.9804150391   1.7876758807  -1.8318065888
	    H    -0.5959961645   1.0157858836  -3.3411741534
			--------------------------
			 OPTKING Finished Execution 
			--------------------------

    Structure for next step:
    Molecular point group: c1
    Full point group: C1

    Geometry (in Angstrom), charge = 1, multiplicity = 1:

    C            0.010358616946    -0.003841439458    -0.174361996407
    C            0.037857739293     1.212868284150     0.534701513043
    C            0.051130329033     1.210654868259     1.925597345388
    C            0.000321779341     0.001856202679     2.623905625657
    C           -0.051830776280    -1.209601691765     1.930301790825
    C           -0.034860363373    -1.217303795168     0.539416864605
    C           -0.006653229371    -0.006165405445    -1.651047454663
    H            0.103768670975     2.167583119963     0.014209772638
    H            0.106560714891     2.151494068844     2.465241271454
    H           -0.001948668367     0.004020817917     3.709414514336
    H           -0.114457275150    -2.148222476035     2.473648274687
    H           -0.108260149573    -2.174329507016     0.022748351453
    N           -0.570872688297     0.992894742499    -2.325389688595
    N            0.570049463091    -0.992332976545    -2.334837763811
    H            0.593021256320    -1.005553540181    -3.350893011361
    H            0.992225784113    -1.787482036935    -1.848673667041
    H           -0.980415039129     1.787675880677    -1.831806588766
    H           -0.595996164464     1.015785883561    -3.341174153442

gradient() will perform analytic gradient computation.

*** tstart() called on green.prib.upf.edu
*** at Sat Sep 29 20:46:13 2018

   => Loading Basis Set <=

    Name: 6-31G*
    Role: ORBITAL
    Keyword: BASIS
    atoms 1-7         entry C          line   111 file /shared/joao/test_parameterize/miniconda3/share/psi4/basis/6-31gs.gbs 
    atoms 8-12, 15-18 entry H          line    44 file /shared/joao/test_parameterize/miniconda3/share/psi4/basis/6-31gs.gbs 
    atoms 13-14       entry N          line   128 file /shared/joao/test_parameterize/miniconda3/share/psi4/basis/6-31gs.gbs 


         ---------------------------------------------------------
                                   SCF
            by Justin Turney, Rob Parrish, Andy Simmonett
                             and Daniel Smith
                              RKS Reference
                        4 Threads,   2861 MiB Core
         ---------------------------------------------------------

  ==> Geometry <==

    Molecular point group: c1
    Full point group: C1

    Geometry (in Angstrom), charge = 1, multiplicity = 1:

       Center              X                  Y                   Z               Mass       
    ------------   -----------------  -----------------  -----------------  -----------------
         C            0.010358616946    -0.003841439458    -0.174361996407    12.000000000000
         C            0.037857739293     1.212868284150     0.534701513043    12.000000000000
         C            0.051130329033     1.210654868259     1.925597345388    12.000000000000
         C            0.000321779341     0.001856202679     2.623905625657    12.000000000000
         C           -0.051830776280    -1.209601691765     1.930301790825    12.000000000000
         C           -0.034860363373    -1.217303795168     0.539416864605    12.000000000000
         C           -0.006653229371    -0.006165405445    -1.651047454663    12.000000000000
         H            0.103768670975     2.167583119963     0.014209772638     1.007825032070
         H            0.106560714891     2.151494068844     2.465241271454     1.007825032070
         H           -0.001948668367     0.004020817917     3.709414514336     1.007825032070
         H           -0.114457275150    -2.148222476035     2.473648274687     1.007825032070
         H           -0.108260149573    -2.174329507016     0.022748351453     1.007825032070
         N           -0.570872688297     0.992894742499    -2.325389688595    14.003074004780
         N            0.570049463091    -0.992332976545    -2.334837763811    14.003074004780
         H            0.593021256320    -1.005553540181    -3.350893011361     1.007825032070
         H            0.992225784113    -1.787482036935    -1.848673667041     1.007825032070
         H           -0.980415039129     1.787675880677    -1.831806588766     1.007825032070
         H           -0.595996164464     1.015785883561    -3.341174153442     1.007825032070

  Running in c1 symmetry.

  Rotational constants: A =      0.12267  B =      0.03931  C =      0.03079 [cm^-1]
  Rotational constants: A =   3677.55307  B =   1178.47348  C =    923.14464 [MHz]
  Nuclear repulsion =  415.984606689016118

  Charge       = 1
  Multiplicity = 1
  Electrons    = 64
  Nalpha       = 32
  Nbeta        = 32

  ==> Algorithm <==

  SCF Algorithm Type is DF.
  DIIS enabled.
  MOM disabled.
  Fractional occupation disabled.
  Guess Type is READ.
  Energy threshold   = 1.00e-08
  Density threshold  = 1.00e-08
  Integral threshold = 0.00e+00

  ==> Primary Basis <==

  Basis Set: 6-31G*
    Blend: 6-31G*
    Number of shells: 72
    Number of basis function: 153
    Number of Cartesian functions: 153
    Spherical Harmonics?: false
    Max angular momentum: 2

  ==> DFT Potential <==

   => Composite Functional: B3LYP-D3ZERO <= 

    B3LYP-d3zero Hyb-GGA Exchange-Correlation Functional

    P. J. Stephens, F. J. Devlin, C. F. Chabalowski, and M. J. Frisch, J. Phys. Chem. 98, 11623 (1994)

    Deriv               =              1
    GGA                 =           TRUE
    Meta                =          FALSE

    Exchange Hybrid     =           TRUE
    MP2 Hybrid          =          FALSE

   => Exchange Functionals <=

    0.0800   Slater exchange
    0.7200         Becke 88

   => Exact (HF) Exchange <=

    0.2000               HF 

   => Correlation Functionals <=

    0.1900   Vosko, Wilk & Nusair (VWN5_RPA)
    0.8100   Lee, Yang & Parr

   => Molecular Quadrature <=

    Radial Scheme       =       TREUTLER
    Pruning Scheme      =           FLAT
    Nuclear Scheme      =       TREUTLER

    BS radius alpha     =              1
    Pruning alpha       =              1
    Radial Points       =             75
    Spherical Points    =            302
    Total Points        =         396824
    Total Blocks        =           2981
    Max Points          =            256
    Max Functions       =            148

   => -D3ZERO: Empirical Dispersion <=

    Grimme's -D3 (zero-damping) Dispersion Correction
    Grimme S.; Antony J.; Ehrlich S.; Krieg H. (2010), J. Chem. Phys., 132: 154104

        S6 =   1.000000E+00
        S8 =   1.703000E+00
       SR6 =   1.261000E+00
       SR8 =   1.000000E+00
    ALPHA6 =   1.400000E+01

   => Loading Basis Set <=

    Name: (6-31G* AUX)
    Role: JKFIT
    Keyword: DF_BASIS_SCF
    atoms 1-7         entry C          line   121 file /shared/joao/test_parameterize/miniconda3/share/psi4/basis/cc-pvdz-jkfit.gbs 
    atoms 8-12, 15-18 entry H          line    51 file /shared/joao/test_parameterize/miniconda3/share/psi4/basis/cc-pvdz-jkfit.gbs 
    atoms 13-14       entry N          line   171 file /shared/joao/test_parameterize/miniconda3/share/psi4/basis/cc-pvdz-jkfit.gbs 

  Reading orbitals from file 180, no projection.

  ==> Pre-Iterations <==

   -------------------------------------------------------
    Irrep   Nso     Nmo     Nalpha   Nbeta   Ndocc  Nsocc
   -------------------------------------------------------
     A        153     153       0       0       0       0
   -------------------------------------------------------
    Total     153     153      32      32      32       0
   -------------------------------------------------------

  ==> Integral Setup <==

  ==> DiskDFJK: Density-Fitted J/K Matrices <==

    J tasked:                  Yes
    K tasked:                  Yes
    wK tasked:                  No
    OpenMP threads:              4
    Integrals threads:           4
    Memory (MB):              2002
    Algorithm:                Core
    Integral Cache:           NONE
    Schwarz Cutoff:          1E-12
    Fitting Condition:       1E-12

   => Auxiliary Basis Set <=

  Basis Set: (6-31G* AUX)
    Blend: CC-PVDZ-JKFIT
    Number of shells: 297
    Number of basis function: 954
    Number of Cartesian functions: 954
    Spherical Harmonics?: false
    Max angular momentum: 3

  Minimum eigenvalue in the overlap matrix is 4.8210888075E-04.
  Using Symmetric Orthogonalization.

  SCF Guess: Orbitals guess was supplied from a previous computation.

  ==> Iterations <==

                           Total Energy        Delta E     RMS |[F,P]|

   @DF-RKS iter   0:  -381.43170842252459   -3.81432e+02   1.52224e-03 
   @DF-RKS iter   1:  -381.46789372643633   -3.61853e-02   2.13669e-04 
   @DF-RKS iter   2:  -381.46788225887639    1.14676e-05   2.62889e-04 DIIS
   @DF-RKS iter   3:  -381.46810472875194   -2.22470e-04   7.53773e-05 DIIS
   @DF-RKS iter   4:  -381.46812068222170   -1.59535e-05   3.42426e-05 DIIS
   @DF-RKS iter   5:  -381.46812382563974   -3.14342e-06   8.30376e-06 DIIS
   @DF-RKS iter   6:  -381.46812401935807   -1.93718e-07   2.35190e-06 DIIS
   @DF-RKS iter   7:  -381.46812403438730   -1.50292e-08   4.64912e-07 DIIS
   @DF-RKS iter   8:  -381.46812403478276   -3.95460e-10   2.91006e-07 DIIS
   @DF-RKS iter   9:  -381.46812403501394   -2.31182e-10   6.58719e-08 DIIS
   @DF-RKS iter  10:  -381.46812403502457   -1.06297e-11   1.94941e-08 DIIS
   @DF-RKS iter  11:  -381.46812403502616   -1.59162e-12   5.57640e-09 DIIS

  ==> Post-Iterations <==

    Orbital Energies [Eh]
    ---------------------

    Doubly Occupied:                                                      

       1A    -14.568729     2A    -14.568587     3A    -10.499211  
       4A    -10.376730     5A    -10.358165     6A    -10.358094  
       7A    -10.342832     8A    -10.340942     9A    -10.340854  
      10A     -1.183410    11A     -1.088604    12A     -1.014820  
      13A     -0.926438    14A     -0.902892    15A     -0.845391  
      16A     -0.785377    17A     -0.773379    18A     -0.738884  
      19A     -0.735181    20A     -0.683356    21A     -0.668693  
      22A     -0.627190    23A     -0.617261    24A     -0.592261  
      25A     -0.579879    26A     -0.574913    27A     -0.517627  
      28A     -0.506968    29A     -0.498860    30A     -0.470512  
      31A     -0.411201    32A     -0.406068  

    Virtual:                                                              

      33A     -0.216825    34A     -0.157327    35A     -0.127608  
      36A     -0.113640    37A     -0.072900    38A     -0.068648  
      39A     -0.039175    40A     -0.037914    41A      0.008353  
      42A      0.020930    43A      0.024707    44A      0.063270  
      45A      0.064931    46A      0.079379    47A      0.120960  
      48A      0.142594    49A      0.157147    50A      0.169882  
      51A      0.206688    52A      0.242531    53A      0.298703  
      54A      0.349811    55A      0.351639    56A      0.377898  
      57A      0.389504    58A      0.397278    59A      0.420619  
      60A      0.420931    61A      0.441698    62A      0.450618  
      63A      0.453492    64A      0.469513    65A      0.471418  
      66A      0.473984    67A      0.484307    68A      0.502411  
      69A      0.512195    70A      0.538692    71A      0.546854  
      72A      0.592597    73A      0.608730    74A      0.650409  
      75A      0.661633    76A      0.677333    77A      0.687421  
      78A      0.704188    79A      0.715608    80A      0.723143  
      81A      0.760065    82A      0.775631    83A      0.786755  
      84A      0.800467    85A      0.821972    86A      0.841428  
      87A      0.849267    88A      0.937472    89A      0.967678  
      90A      0.994147    91A      1.012362    92A      1.028203  
      93A      1.059605    94A      1.067578    95A      1.137579  
      96A      1.183844    97A      1.225411    98A      1.270286  
      99A      1.283500   100A      1.307754   101A      1.317666  
     102A      1.342447   103A      1.359192   104A      1.365411  
     105A      1.404674   106A      1.458540   107A      1.495351  
     108A      1.602177   109A      1.614060   110A      1.650809  
     111A      1.669507   112A      1.735839   113A      1.748303  
     114A      1.797261   115A      1.820972   116A      1.848080  
     117A      1.899338   118A      1.916889   119A      1.950995  
     120A      1.975624   121A      1.993137   122A      2.023052  
     123A      2.031168   124A      2.083710   125A      2.105361  
     126A      2.124823   127A      2.152551   128A      2.210244  
     129A      2.218645   130A      2.256646   131A      2.331683  
     132A      2.358972   133A      2.446152   134A      2.451671  
     135A      2.486263   136A      2.514192   137A      2.543066  
     138A      2.590312   139A      2.609246   140A      2.628517  
     141A      2.735853   142A      2.883589   143A      2.983877  
     144A      3.256499   145A      3.633736   146A      3.660608  
     147A      3.906515   148A      3.948146   149A      3.961067  
     150A      4.051911   151A      4.170983   152A      4.256770  
     153A      4.543985  

    Final Occupation by Irrep:
              A 
    DOCC [    32 ]

  Energy converged.

  @DF-RKS Final Energy:  -381.46812403502616

   => Energetics <=

    Nuclear Repulsion Energy =            415.9846066890161183
    One-Electron Energy =               -1327.1620341083305448
    Two-Electron Energy =                 574.1113860465585503
    DFT Exchange-Correlation Energy =     -44.3903399122702211
    Empirical Dispersion Energy =          -0.0117427500000000
    VV10 Nonlocal Energy =                  0.0000000000000000
    Total Energy =                       -381.4681240350261078



Properties will be evaluated at   0.000000,   0.000000,   0.000000 [a0]

Properties computed using the SCF density matrix

  Nuclear Dipole Moment: [e a0]
     X:     0.0504      Y:    -0.1026      Z:     0.1175

  Electronic Dipole Moment: [e a0]
     X:    -0.0531      Y:     0.1018      Z:    -2.3765

  Dipole Moment: [e a0]
     X:    -0.0027      Y:    -0.0008      Z:    -2.2590     Total:     2.2590

  Dipole Moment: [D]
     X:    -0.0068      Y:    -0.0020      Z:    -5.7417     Total:     5.7417


*** tstop() called on green.prib.upf.edu at Sat Sep 29 20:46:35 2018
Module time:
	user time   =      78.69 seconds =       1.31 minutes
	system time =       0.55 seconds =       0.01 minutes
	total time  =         22 seconds =       0.37 minutes
Total time:
	user time   =     203.61 seconds =       3.39 minutes
	system time =       1.40 seconds =       0.02 minutes
	total time  =         56 seconds =       0.93 minutes

*** tstart() called on green.prib.upf.edu
*** at Sat Sep 29 20:46:35 2018


         ------------------------------------------------------------
                                   SCF GRAD                          
                          Rob Parrish, Justin Turney,                
                       Andy Simmonett, and Alex Sokolov              
         ------------------------------------------------------------

  ==> Geometry <==

    Molecular point group: c1
    Full point group: C1

    Geometry (in Angstrom), charge = 1, multiplicity = 1:

       Center              X                  Y                   Z               Mass       
    ------------   -----------------  -----------------  -----------------  -----------------
         C            0.010358616946    -0.003841439458    -0.174361996407    12.000000000000
         C            0.037857739293     1.212868284150     0.534701513043    12.000000000000
         C            0.051130329033     1.210654868259     1.925597345388    12.000000000000
         C            0.000321779341     0.001856202679     2.623905625657    12.000000000000
         C           -0.051830776280    -1.209601691765     1.930301790825    12.000000000000
         C           -0.034860363373    -1.217303795168     0.539416864605    12.000000000000
         C           -0.006653229371    -0.006165405445    -1.651047454663    12.000000000000
         H            0.103768670975     2.167583119963     0.014209772638     1.007825032070
         H            0.106560714891     2.151494068844     2.465241271454     1.007825032070
         H           -0.001948668367     0.004020817917     3.709414514336     1.007825032070
         H           -0.114457275150    -2.148222476035     2.473648274687     1.007825032070
         H           -0.108260149573    -2.174329507016     0.022748351453     1.007825032070
         N           -0.570872688297     0.992894742499    -2.325389688595    14.003074004780
         N            0.570049463091    -0.992332976545    -2.334837763811    14.003074004780
         H            0.593021256320    -1.005553540181    -3.350893011361     1.007825032070
         H            0.992225784113    -1.787482036935    -1.848673667041     1.007825032070
         H           -0.980415039129     1.787675880677    -1.831806588766     1.007825032070
         H           -0.595996164464     1.015785883561    -3.341174153442     1.007825032070

  Nuclear repulsion =  415.984606689016118

  ==> Basis Set <==

  Basis Set: 6-31G*
    Blend: 6-31G*
    Number of shells: 72
    Number of basis function: 153
    Number of Cartesian functions: 153
    Spherical Harmonics?: false
    Max angular momentum: 2

  ==> DFJKGrad: Density-Fitted SCF Gradients <==

    Gradient:                    1
    J tasked:                  Yes
    K tasked:                  Yes
    wK tasked:                  No
    OpenMP threads:              4
    Integrals threads:           4
    Memory (MB):              2002
    Schwarz Cutoff:          0E+00
    Fitting Condition:       1E-12

   => Auxiliary Basis Set <=

  Basis Set: (6-31G* AUX)
    Blend: CC-PVDZ-JKFIT
    Number of shells: 297
    Number of basis function: 954
    Number of Cartesian functions: 954
    Spherical Harmonics?: false
    Max angular momentum: 3

  ==> DFT Potential <==

   => Composite Functional: B3LYP-D3ZERO <= 

    B3LYP-d3zero Hyb-GGA Exchange-Correlation Functional

    P. J. Stephens, F. J. Devlin, C. F. Chabalowski, and M. J. Frisch, J. Phys. Chem. 98, 11623 (1994)

    Deriv               =              1
    GGA                 =           TRUE
    Meta                =          FALSE

    Exchange Hybrid     =           TRUE
    MP2 Hybrid          =          FALSE

   => Exchange Functionals <=

    0.0800   Slater exchange
    0.7200         Becke 88

   => Exact (HF) Exchange <=

    0.2000               HF 

   => Correlation Functionals <=

    0.1900   Vosko, Wilk & Nusair (VWN5_RPA)
    0.8100   Lee, Yang & Parr

   => Molecular Quadrature <=

    Radial Scheme       =       TREUTLER
    Pruning Scheme      =           FLAT
    Nuclear Scheme      =       TREUTLER

    BS radius alpha     =              1
    Pruning alpha       =              1
    Radial Points       =             75
    Spherical Points    =            302
    Total Points        =         396824
    Total Blocks        =           2981
    Max Points          =            256
    Max Functions       =            148


  -Total Gradient:
     Atom            X                  Y                   Z
    ------   -----------------  -----------------  -----------------
       1        0.003049784433     0.000344771557     0.001554679430
       2       -0.001429785153    -0.002295543652     0.002177065612
       3        0.000253172248    -0.000276492702    -0.000173460349
       4        0.000107555305     0.000106919439    -0.000729369362
       5       -0.000371609966     0.000334487586    -0.000389349326
       6        0.000252569651     0.002826471618     0.002536996251
       7       -0.003826635191    -0.001372008853    -0.000496629618
       8       -0.000577971119     0.001965949369    -0.000135783741
       9        0.000406446693     0.000448489191     0.000536385396
      10       -0.000022839000    -0.000008534198    -0.000074988023
      11       -0.000432684105    -0.000636549529     0.000646661266
      12        0.000268860289    -0.002421928571    -0.000105141194
      13        0.002028002583    -0.007494109869    -0.003891371442
      14       -0.000967611973     0.009254893660    -0.004682453401
      15        0.001156821241     0.002029652950    -0.003125598080
      16        0.001981179587    -0.009499527225     0.004978324581
      17       -0.000809508550     0.008481015922     0.004478034871
      18       -0.001065752471    -0.001785021200    -0.003106597290


*** tstop() called on green.prib.upf.edu at Sat Sep 29 20:46:42 2018
Module time:
	user time   =      27.12 seconds =       0.45 minutes
	system time =       0.28 seconds =       0.00 minutes
	total time  =          7 seconds =       0.12 minutes
Total time:
	user time   =     230.79 seconds =       3.85 minutes
	system time =       1.69 seconds =       0.03 minutes
	total time  =         63 seconds =       1.05 minutes

			-----------------------------------------
			 OPTKING 2.0: for geometry optimizations 
			  - R.A. King,  Bethel University        
			-----------------------------------------
	At level 1: Red. Int., RFO, no backsteps, dynamic trust

	Previous internal coordinate definitions found.
	---Fragment 1 Geometry and Gradient---
	 C           0.0195749491       -0.0072592685       -0.3294964212
	 C           0.0715407593        2.2919888923        1.0104394225
	 C           0.0966223190        2.2878061425        3.6388516250
	 C           0.0006080748        0.0035077147        4.9584630310
	 C          -0.0979459724       -2.2858159273        3.6477417385
	 C          -0.0658765397       -2.3003707934        1.0193501456
	 C          -0.0125727814       -0.0116509278       -3.1200275217
	 H           0.1960943693        4.0961384670        0.0268525787
	 H           0.2013705677        4.0657345666        4.6586308545
	 H          -0.0036824495        0.0075982447        7.0097775454
	 H          -0.2162929039       -4.0595521522        4.6745177882
	 H          -0.2045820338       -4.1088872909        0.0429881542
	 N          -1.0787930376        1.8762991421       -4.3943496637
	 N           1.0772373674       -1.8752375583       -4.4122039383
	 H           1.1206477654       -1.9002208029       -6.3322700921
	 H           1.8750349940       -3.3778515173       -3.4934869398
	 H          -1.8527159205        3.3782178288       -3.4616127812
	 H          -1.1262695271        1.9195571296       -6.3139041123
	             0.0030497844        0.0003447716        0.0015546794
	            -0.0014297852       -0.0022955437        0.0021770656
	             0.0002531722       -0.0002764927       -0.0001734603
	             0.0001075553        0.0001069194       -0.0007293694
	            -0.0003716100        0.0003344876       -0.0003893493
	             0.0002525697        0.0028264716        0.0025369963
	            -0.0038266352       -0.0013720089       -0.0004966296
	            -0.0005779711        0.0019659494       -0.0001357837
	             0.0004064467        0.0004484892        0.0005363854
	            -0.0000228390       -0.0000085342       -0.0000749880
	            -0.0004326841       -0.0006365495        0.0006466613
	             0.0002688603       -0.0024219286       -0.0001051412
	             0.0020280026       -0.0074941099       -0.0038913714
	            -0.0009676120        0.0092548937       -0.0046824534
	             0.0011568212        0.0020296529       -0.0031255981
	             0.0019811796       -0.0094995272        0.0049783246
	            -0.0008095086        0.0084810159        0.0044780349
	            -0.0010657525       -0.0017850212       -0.0031065973

	---Fragment 1 Intrafragment Coordinates---
	 - Coordinate -           - BOHR/RAD -       - ANG/DEG -
	 R(1,2)           =         2.661704	       1.408513
	 R(1,6)           =         2.661776	       1.408551
	 R(1,7)           =         2.790720	       1.476785
	 R(2,3)           =         2.628535	       1.390961
	 R(2,8)           =         2.058619	       1.089374
	 R(3,4)           =         2.639813	       1.396929
	 R(3,9)           =         2.052304	       1.086032
	 R(4,5)           =         2.639831	       1.396938
	 R(4,10)          =         2.051323	       1.085513
	 R(5,6)           =         2.628628	       1.391010
	 R(5,11)          =         2.052904	       1.086350
	 R(6,12)          =         2.059916	       1.090061
	 R(7,13)          =         2.514971	       1.330865
	 R(7,14)          =         2.516021	       1.331421
	 R(13,17)         =         1.929952	       1.021287
	 R(13,18)         =         1.920629	       1.016353
	 R(14,15)         =         1.920719	       1.016401
	 R(14,16)         =         1.933487	       1.023157
	 B(1,2,3)         =         2.096938	     120.145714
	 B(1,2,8)         =         2.114960	     121.178258
	 B(1,6,5)         =         2.097079	     120.153803
	 B(1,6,12)        =         2.115693	     121.220285
	 B(1,7,13)        =         2.106403	     120.687994
	 B(1,7,14)        =         2.105656	     120.645220
	 B(2,1,6)         =         2.082550	     119.321322
	 B(2,1,7)         =         2.100135	     120.328893
	 B(2,3,4)         =         2.095429	     120.059214
	 B(2,3,9)         =         2.089759	     119.734398
	 B(3,2,8)         =         2.069838	     118.592997
	 B(3,4,5)         =         2.098541	     120.237524
	 B(3,4,10)        =         2.092360	     119.883408
	 B(4,3,9)         =         2.097983	     120.205553
	 B(4,5,6)         =         2.095341	     120.054201
	 B(4,5,11)        =         2.097988	     120.205835
	 B(5,4,10)        =         2.092279	     119.878761
	 B(5,6,12)        =         2.069148	     118.553472
	 B(6,1,7)         =         2.100163	     120.330498
	 B(6,5,11)        =         2.089819	     119.737835
	 B(7,13,17)       =         2.105188	     120.618394
	 B(7,13,18)       =         2.133883	     122.262462
	 B(7,14,15)       =         2.132736	     122.196776
	 B(7,14,16)       =         2.106354	     120.685212
	 B(13,7,14)       =         2.070799	     118.648065
	 B(15,14,16)      =         2.043803	     117.101285
	 B(17,13,18)      =         2.043825	     117.102574
	 D(1,2,3,4)       =        -0.030529	      -1.749162
	 D(1,2,3,9)       =         3.105274	     177.919085
	 D(1,6,5,4)       =        -0.020170	      -1.155653
	 D(1,6,5,11)      =         3.112177	     178.314614
	 D(1,7,13,17)     =         0.026391	       1.512108
	 D(1,7,13,18)     =         3.141385	     179.988096
	 D(1,7,14,15)     =        -3.113814	    -178.408412
	 D(1,7,14,16)     =         0.054503	       3.122816
	 D(2,1,6,5)       =        -0.000180	      -0.010288
	 D(2,1,6,12)      =         3.086610	     176.849736
	*D(2,1,7,13)      =        -0.523599	     -29.999989
	 D(2,1,7,14)      =         2.590154	     148.404869
	 D(2,3,4,5)       =         0.010072	       0.577105
	 D(2,3,4,10)      =        -3.127993	    -179.220819
	 D(3,2,1,6)       =         0.025559	       1.464405
	 D(3,2,1,7)       =         3.139364	     179.872321
	 D(3,4,5,6)       =         0.015376	       0.880954
	 D(3,4,5,11)      =        -3.116928	    -178.586812
	 D(4,3,2,8)       =        -3.114979	    -178.475136
	 D(4,5,6,12)      =        -3.108408	    -178.098657
	 D(5,4,3,9)       =        -3.125703	    -179.089565
	 D(5,6,1,7)       =        -3.113985	    -178.418178
	 D(6,1,2,8)       =         3.108506	     178.104253
	 D(6,1,7,13)      =         2.589925	     148.391764
	 D(6,1,7,14)      =        -0.579508	     -33.203377
	 D(6,5,4,10)      =        -3.129744	    -179.321113
	 D(7,1,2,8)       =        -0.060874	      -3.487831
	 D(7,1,6,12)      =        -0.027195	      -1.558155
	 D(8,2,3,9)       =         0.020824	       1.193111
	 D(9,3,4,10)      =         0.019417	       1.112511
	 D(10,4,5,11)     =         0.021138	       1.211121
	 D(11,5,6,12)     =         0.023939	       1.371610
	 D(13,7,14,15)    =         0.000497	       0.028485
	 D(13,7,14,16)    =        -3.114371	    -178.440287
	 D(14,7,13,17)    =        -3.087908	    -176.924096
	 D(14,7,13,18)    =         0.027086	       1.551892

	Current energy   :      -381.4681240350

	Energy change for the previous step:
		Projected    :        -0.0083682587
		Actual       :        -0.0034671688

	Performing BFGS update.
	Previous computed or guess Hessian on step 1.
	Steps to be used in Hessian update: 1
	Taking RFO optimization step.
	Going to follow RFO solution 1.
	Using RFO vector 1.
	Norm of target step-size    0.37135
	Projected energy change by RFO approximation:        -0.0006414487

	Back-transformation to cartesian coordinates...
	Could not converge backtransformation.
	Using first guess instead.

	Back-transformation to cartesian coordinates to adjust frozen coordinates...
	Successfully converged to displaced geometry.

	--- Internal Coordinate Step in ANG or DEG, aJ/ANG or AJ/DEG ---
	 ---------------------------------------------------------------------------
	   Coordinate                Previous        Force       Change         New 
	   ----------                --------       ------       ------       ------
	    1 R(1,2)          =      1.408513    -0.012476    -0.001828     1.406685
	    2 R(1,6)          =      1.408551    -0.013948    -0.002016     1.406535
	    3 R(1,7)          =      1.476785    -0.048302    -0.006772     1.470013
	    4 R(2,3)          =      1.390961     0.000592     0.000093     1.391054
	    5 R(2,8)          =      1.089374    -0.014440    -0.000944     1.088430
	    6 R(3,4)          =      1.396929     0.007439     0.000917     1.397846
	    7 R(3,9)          =      1.086032    -0.005568    -0.000750     1.085282
	    8 R(4,5)          =      1.396938     0.006418     0.000747     1.397685
	    9 R(4,10)         =      1.085513     0.000616     0.000095     1.085609
	   10 R(5,6)          =      1.391010     0.000893     0.000065     1.391075
	   11 R(5,11)         =      1.086350    -0.007403    -0.000972     1.085378
	   12 R(6,12)         =      1.090061    -0.017780    -0.001568     1.088493
	   13 R(7,13)         =      1.330865    -0.005043    -0.000306     1.330559
	   14 R(7,14)         =      1.331421    -0.008829    -0.000310     1.331110
	   15 R(13,17)        =      1.021287    -0.074879     0.000965     1.022252
	   16 R(13,18)        =      1.016353    -0.025465    -0.000127     1.016226
	   17 R(14,15)        =      1.016401    -0.025738     0.001579     1.017979
	   18 R(14,16)        =      1.023157    -0.087050    -0.002059     1.021098
	   19 B(1,2,3)        =    120.145714    -0.000079    -0.175138   119.970577
	   20 B(1,2,8)        =    121.178258    -0.000024    -0.040802   121.137456
	   21 B(1,6,5)        =    120.153803    -0.000074    -0.150666   120.003137
	   22 B(1,6,12)       =    121.220285    -0.000045    -0.105405   121.114880
	   23 B(1,7,13)       =    120.687994    -0.000189    -0.412527   120.275467
	   24 B(1,7,14)       =    120.645220    -0.000250    -0.639203   120.006017
	   25 B(2,1,6)        =    119.321322     0.000178     0.337165   119.658487
	   26 B(2,1,7)        =    120.328893    -0.000043    -0.016509   120.312385
	   27 B(2,3,4)        =    120.059214    -0.000004     0.032717   120.091932
	   28 B(2,3,9)        =    119.734398    -0.000017    -0.115875   119.618523
	   29 B(3,2,8)        =    118.592997     0.000103     0.118957   118.711953
	   30 B(3,4,5)        =    120.237524    -0.000015    -0.041879   120.195645
	   31 B(3,4,10)       =    119.883408     0.000007     0.018488   119.901896
	   32 B(4,3,9)        =    120.205553     0.000020     0.077122   120.282675
	   33 B(4,5,6)        =    120.054201    -0.000005     0.015442   120.069643
	   34 B(4,5,11)       =    120.205835     0.000021     0.082581   120.288415
	   35 B(5,4,10)       =    119.878761     0.000008     0.023636   119.902397
	   36 B(5,6,12)       =    118.553472     0.000119     0.191619   118.745091
	   37 B(6,1,7)        =    120.330498    -0.000135    -0.330170   120.000328
	   38 B(6,5,11)       =    119.737835    -0.000016    -0.106282   119.631553
	   39 B(7,13,17)      =    120.618394    -0.000033    -0.279895   120.338499
	   40 B(7,13,18)      =    122.262462     0.000101     0.259919   122.522382
	   41 B(7,14,15)      =    122.196776     0.000119     0.343020   122.539796
	   42 B(7,14,16)      =    120.685212    -0.000055    -0.412223   120.272989
	   43 B(13,7,14)      =    118.648065     0.000439     1.066780   119.714845
	   44 B(15,14,16)     =    117.101285    -0.000064     0.079406   117.180691
	   45 B(17,13,18)     =    117.102574    -0.000066    -0.006087   117.096487
	   46 D(1,2,3,4)      =     -1.749162     0.000007     0.690334    -1.058828
	   47 D(1,2,3,9)      =    177.919085     0.000004     0.071342   177.990428
	   48 D(1,6,5,4)      =     -1.155653     0.000007     0.893468    -0.262185
	   49 D(1,6,5,11)     =    178.314614     0.000005     0.254201   178.568815
	   50 D(1,7,13,17)    =      1.512108    -0.000044    -8.722597    -7.210488
	   51 D(1,7,13,18)    =    179.988096    -0.000023    -4.753966   175.234131
	   52 D(1,7,14,15)    =   -178.408412    -0.000030    -6.041628  -184.450040
	   53 D(1,7,14,16)    =      3.122816    -0.000042    -8.528611    -5.405795
	   54 D(2,1,6,5)      =     -0.010288    -0.000004    -0.517126    -0.527414
	   55 D(2,1,6,12)     =    176.849736    -0.000002    -1.683777   175.165959
	   56 *D(2,1,7,13)    =    -29.999989    -0.000000    -0.000000   -29.999989
	   57 D(2,1,7,14)     =    148.404869     0.000007     0.896223   149.301092
	   58 D(2,3,4,5)      =      0.577105    -0.000003    -0.310804     0.266301
	   59 D(2,3,4,10)     =   -179.220819    -0.000004    -0.422197  -179.643016
	   60 D(3,2,1,6)      =      1.464405    -0.000003    -0.275891     1.188514
	   61 D(3,2,1,7)      =    179.872321    -0.000005    -0.635662   179.236660
	   62 D(3,4,5,6)      =      0.880954    -0.000004    -0.482892     0.398062
	   63 D(3,4,5,11)     =   -178.586812    -0.000002     0.161625  -178.425187
	   64 D(4,3,2,8)      =   -178.475136     0.000008     2.236102  -176.239034
	   65 D(4,5,6,12)     =   -178.098657     0.000007     2.041557  -176.057100
	   66 D(5,4,3,9)      =   -179.089565    -0.000000     0.312983  -178.776582
	   67 D(5,6,1,7)      =   -178.418178    -0.000003    -0.163550  -178.581728
	   68 D(6,1,2,8)      =    178.104253    -0.000003    -1.854734   176.249519
	   69 D(6,1,7,13)     =    148.391764    -0.000000    -0.350299   148.041465
	   70 D(6,1,7,14)     =    -33.203377     0.000007     0.545924   -32.657453
	   71 D(6,5,4,10)     =   -179.321113    -0.000003    -0.371509  -179.692622
	   72 D(7,1,2,8)      =     -3.487831    -0.000005    -2.214505    -5.702336
	   73 D(7,1,6,12)     =     -1.558155    -0.000001    -1.330201    -2.888356
	   74 D(8,2,3,9)      =      1.193111     0.000006     1.617110     2.810221
	   75 D(9,3,4,10)     =      1.112511    -0.000001     0.201590     1.314101
	   76 D(10,4,5,11)    =      1.211121    -0.000001     0.273008     1.484130
	   77 D(11,5,6,12)    =      1.371610     0.000004     1.402290     2.773900
	   78 D(13,7,14,15)   =      0.028485    -0.000025    -5.173506    -5.145022
	   79 D(13,7,14,16)   =   -178.440287    -0.000037    -7.660489  -186.100777
	   80 D(14,7,13,17)   =   -176.924096    -0.000048    -9.589510  -186.513606
	   81 D(14,7,13,18)   =      1.551892    -0.000027    -5.620879    -4.068987
	 ---------------------------------------------------------------------------
	Successfully symmetrized geometry.

  ==> Convergence Check <==

  Measures of convergence in internal coordinates in au.
  Criteria marked as inactive (o), active & met (*), and active & unmet ( ).
  ---------------------------------------------------------------------------------------------
   Step     Total Energy     Delta E     MAX Force     RMS Force      MAX Disp      RMS Disp   
  ---------------------------------------------------------------------------------------------
    Convergence Criteria    1.00e-06 *    3.00e-04 *             o    1.20e-03 *             o
  ---------------------------------------------------------------------------------------------
      2    -381.46812404   -3.47e-03      1.06e-02      2.15e-03 o    1.67e-01      4.12e-02 o  ~
  ---------------------------------------------------------------------------------------------

	Writing optimization data to binary file.
	Structure for next step:
	Cartesian Geometry (in Angstrom)
	    C     0.0184476017   0.0015332509  -0.1790051801
	    C     0.0495850712   1.2169395633   0.5285129955
	    C     0.0498213597   1.2114448584   1.9195561889
	    C    -0.0031819019   0.0004060643   2.6156513445
	    C    -0.0510088981  -1.2098399115   1.9181263237
	    C    -0.0376613605  -1.2136121936   0.5271209657
	    C     0.0010720453  -0.0010532105  -1.6489134081
	    H     0.1538907154   2.1678753125   0.0093586521
	    H     0.1069866172   2.1510648990   2.4596335220
	    H    -0.0086975763  -0.0000364742   3.7012459942
	    H    -0.1179207647  -2.1497940823   2.4566932810
	    H    -0.1411277058  -2.1631995498   0.0052063221
	    N    -0.5626197835   1.0035021594  -2.3148776449
	    N     0.5629812779  -1.0042518709  -2.3195142206
	    H     0.5159943009  -1.0791965177  -3.3336432322
	    H     1.0784963770  -1.7314518111  -1.8214520851
	    H    -1.0827784918   1.7273380246  -1.8143826245
	    H    -0.5322788838   1.0723324892  -3.3283161941
			--------------------------
			 OPTKING Finished Execution 
			--------------------------

    Structure for next step:
    Molecular point group: c1
    Full point group: C1

    Geometry (in Angstrom), charge = 1, multiplicity = 1:

    C            0.018447601687     0.001533250881    -0.179005180077
    C            0.049585071238     1.216939563263     0.528512995491
    C            0.049821359713     1.211444858438     1.919556188910
    C           -0.003181901854     0.000406064339     2.615651344462
    C           -0.051008898135    -1.209839911472     1.918126323727
    C           -0.037661360515    -1.213612193644     0.527120965674
    C            0.001072045335    -0.001053210459    -1.648913408109
    H            0.153890715413     2.167875312520     0.009358652081
    H            0.106986617176     2.151064899035     2.459633522021
    H           -0.008697576295    -0.000036474221     3.701245994204
    H           -0.117920764718    -2.149794082290     2.456693281024
    H           -0.141127705763    -2.163199549810     0.005206322054
    N           -0.562619783548     1.003502159406    -2.314877644872
    N            0.562981277898    -1.004251870915    -2.319514220637
    H            0.515994300857    -1.079196517701    -3.333643232235
    H            1.078496377043    -1.731451811124    -1.821452085136
    H           -1.082778491770     1.727338024602    -1.814382624481
    H           -0.532278883763     1.072332489153    -3.328316194100

gradient() will perform analytic gradient computation.

*** tstart() called on green.prib.upf.edu
*** at Sat Sep 29 20:46:42 2018

   => Loading Basis Set <=

    Name: 6-31G*
    Role: ORBITAL
    Keyword: BASIS
    atoms 1-7         entry C          line   111 file /shared/joao/test_parameterize/miniconda3/share/psi4/basis/6-31gs.gbs 
    atoms 8-12, 15-18 entry H          line    44 file /shared/joao/test_parameterize/miniconda3/share/psi4/basis/6-31gs.gbs 
    atoms 13-14       entry N          line   128 file /shared/joao/test_parameterize/miniconda3/share/psi4/basis/6-31gs.gbs 


         ---------------------------------------------------------
                                   SCF
            by Justin Turney, Rob Parrish, Andy Simmonett
                             and Daniel Smith
                              RKS Reference
                        4 Threads,   2861 MiB Core
         ---------------------------------------------------------

  ==> Geometry <==

    Molecular point group: c1
    Full point group: C1

    Geometry (in Angstrom), charge = 1, multiplicity = 1:

       Center              X                  Y                   Z               Mass       
[...]
	             0.0000021148       -0.0000049821       -0.0000054148
	            -0.0000035056       -0.0000034506        0.0000044058
	             0.0000032363        0.0000000831        0.0000003097
	             0.0000015210        0.0000040486        0.0000035180
	             0.0000032292        0.0000047031       -0.0000107090
	             0.0013907372        0.0007595352       -0.0000123249
	            -0.0000012614        0.0000216953       -0.0000053845
	            -0.0000073709        0.0000005015       -0.0000077157
	             0.0000116921       -0.0000144868        0.0000064920
	            -0.0000142408        0.0000118688        0.0000008970
	             0.0000076847       -0.0000007685       -0.0000110932

	---Fragment 1 Intrafragment Coordinates---
	 - Coordinate -           - BOHR/RAD -       - ANG/DEG -
	 R(1,2)           =         2.660990	       1.408135
	 R(1,6)           =         2.661027	       1.408155
	 R(1,7)           =         2.770831	       1.466261
	 R(2,3)           =         2.628348	       1.390862
	 R(2,8)           =         2.052803	       1.086297
	 R(3,4)           =         2.642481	       1.398341
	 R(3,9)           =         2.050586	       1.085123
	 R(4,5)           =         2.642121	       1.398150
	 R(4,10)          =         2.051586	       1.085653
	 R(5,6)           =         2.628602	       1.390996
	 R(5,11)          =         2.050578	       1.085119
	 R(6,12)          =         2.052842	       1.086317
	 R(7,13)          =         2.515094	       1.330930
	 R(7,14)          =         2.514917	       1.330837
	 R(13,17)         =         1.911232	       1.011380
	 R(13,18)         =         1.914595	       1.013160
	 R(14,15)         =         1.914537	       1.013129
	 R(14,16)         =         1.911230	       1.011380
	 B(1,2,3)         =         2.090578	     119.781270
	 B(1,2,8)         =         2.105195	     120.618790
	 B(1,6,5)         =         2.090900	     119.799736
	 B(1,6,12)        =         2.105386	     120.629724
	 B(1,7,13)        =         2.097365	     120.170154
	 B(1,7,14)        =         2.095649	     120.071844
	 B(2,1,6)         =         2.093208	     119.931991
	 B(2,1,7)         =         2.096477	     120.119258
	 B(2,3,4)         =         2.095492	     120.062870
	 B(2,3,9)         =         2.089540	     119.721813
	 B(3,2,8)         =         2.085703	     119.501953
	 B(3,4,5)         =         2.100969	     120.376631
	 B(3,4,10)        =         2.091060	     119.808920
	 B(4,3,9)         =         2.098101	     120.212352
	 B(4,5,6)         =         2.095149	     120.043194
	 B(4,5,11)        =         2.098249	     120.220817
	 B(5,4,10)        =         2.091155	     119.814371
	 B(5,6,12)        =         2.085570	     119.494358
	 B(6,1,7)         =         2.093129	     119.927475
	 B(6,5,11)        =         2.089696	     119.730779
	 B(7,13,17)       =         2.095522	     120.064566
	 B(7,13,18)       =         2.141270	     122.685732
	 B(7,14,15)       =         2.142545	     122.758795
	 B(7,14,16)       =         2.096026	     120.093440
	 B(13,7,14)       =         2.090013	     119.748940
	 B(15,14,16)      =         2.041219	     116.953227
	 B(17,13,18)      =         2.040510	     116.912618
	 D(1,2,3,4)       =        -0.009910	      -0.567829
	 D(1,2,3,9)       =         3.120775	     178.807218
	 D(1,6,5,4)       =         0.000942	       0.053978
	 D(1,6,5,11)      =         3.128075	     179.225486
	 D(1,7,13,17)     =        -0.227271	     -13.021687
	 D(1,7,13,18)     =         3.034320	     173.853753
	 D(1,7,14,15)     =         3.039497	     174.150357
	 D(1,7,14,16)     =        -0.193297	     -11.075113
	 D(2,1,6,5)       =        -0.009660	      -0.553454
	 D(2,1,6,12)      =         3.076261	     176.256751
	*D(2,1,7,13)      =        -0.523599	     -29.999989
	 D(2,1,7,14)      =         2.598834	     148.902246
	 D(2,3,4,5)       =         0.001192	       0.068324
	 D(2,3,4,10)      =        -3.138625	    -179.829940
	 D(3,2,1,6)       =         0.014150	       0.810755
	 D(3,2,1,7)       =         3.126441	     179.131886
	 D(3,4,5,6)       =         0.003334	       0.191015
	 D(3,4,5,11)      =        -3.123727	    -178.976396
	 D(4,3,2,8)       =        -3.089086	    -176.991571
	 D(4,5,6,12)      =        -3.085614	    -176.792641
	 D(5,4,3,9)       =        -3.129439	    -179.303630
	 D(5,6,1,7)       =        -3.122007	    -178.877830
	 D(6,1,2,8)       =         3.092616	     177.193869
	 D(6,1,7,13)      =         2.588694	     148.321218
	 D(6,1,7,14)      =        -0.572059	     -32.776547
	 D(6,5,4,10)      =        -3.140035	    -179.910727
	 D(7,1,2,8)       =        -0.078278	      -4.485000
	 D(7,1,6,12)      =        -0.036087	      -2.067625
	 D(8,2,3,9)       =         0.041599	       2.383476
	 D(9,3,4,10)      =         0.013930	       0.798106
	 D(10,4,5,11)     =         0.016090	       0.921862
	 D(11,5,6,12)     =         0.041519	       2.378867
	 D(13,7,14,15)    =        -0.121174	      -6.942765
	 D(13,7,14,16)    =         2.929217	     167.831765
	 D(14,7,13,17)    =         2.933419	     168.072524
	 D(14,7,13,18)    =        -0.088175	      -5.052035

	Current energy   :      -381.4703161856

	Energy change for the previous step:
		Projected    :        -0.0000006783
		Actual       :        -0.0000002113

	Performing BFGS update.
	Previous computed or guess Hessian on step 1.
	Steps to be used in Hessian update: 7 6
	Taking RFO optimization step.
	Going to follow RFO solution 1.
	Rejecting RFO root 1 because normalization gives large value.
	Using RFO vector 2.
	Norm of target step-size    0.00120
	Projected energy change by RFO approximation:        -0.0000000419

	Back-transformation to cartesian coordinates...
	Successfully converged to displaced geometry.

	Back-transformation to cartesian coordinates to adjust frozen coordinates...
	Successfully converged to displaced geometry.

	--- Internal Coordinate Step in ANG or DEG, aJ/ANG or AJ/DEG ---
	 ---------------------------------------------------------------------------
	   Coordinate                Previous        Force       Change         New 
	   ----------                --------       ------       ------       ------
	    1 R(1,2)          =      1.408135    -0.000149    -0.000020     1.408115
	    2 R(1,6)          =      1.408155    -0.000044    -0.000005     1.408150
	    3 R(1,7)          =      1.466261     0.000150     0.000034     1.466294
	    4 R(2,3)          =      1.390862     0.000037     0.000005     1.390866
	    5 R(2,8)          =      1.086297     0.000018     0.000003     1.086299
	    6 R(3,4)          =      1.398341    -0.000007    -0.000001     1.398339
	    7 R(3,9)          =      1.085123     0.000003     0.000000     1.085124
	    8 R(4,5)          =      1.398150    -0.000036    -0.000004     1.398146
	    9 R(4,10)         =      1.085653    -0.000013    -0.000002     1.085650
	   10 R(5,6)          =      1.390996     0.000028     0.000003     1.390999
	   11 R(5,11)         =      1.085119     0.000009     0.000001     1.085121
	   12 R(6,12)         =      1.086317    -0.000003    -0.000002     1.086315
	   13 R(7,13)         =      1.330930    -0.000097    -0.000008     1.330922
	   14 R(7,14)         =      1.330837     0.000021     0.000004     1.330841
	   15 R(13,17)        =      1.011380    -0.000139    -0.000014     1.011367
	   16 R(13,18)        =      1.013160    -0.000084    -0.000010     1.013150
	   17 R(14,15)        =      1.013129    -0.000056    -0.000006     1.013123
	   18 R(14,16)        =      1.011380    -0.000165    -0.000017     1.011363
	   19 B(1,2,3)        =    119.781270    -0.000000     0.000064   119.781334
	   20 B(1,2,8)        =    120.618790     0.000001     0.002700   120.621490
	   21 B(1,6,5)        =    119.799736    -0.000000    -0.000108   119.799629
	   22 B(1,6,12)       =    120.629724     0.000001     0.004490   120.634215
	   23 B(1,7,13)       =    120.170154    -0.000002    -0.006801   120.163353
	   24 B(1,7,14)       =    120.071844     0.000000     0.001152   120.072996
	   25 B(2,1,6)        =    119.931991     0.000000    -0.000094   119.931897
	   26 B(2,1,7)        =    120.119258    -0.000001    -0.002883   120.116375
	   27 B(2,3,4)        =    120.062870     0.000000     0.000809   120.063679
	   28 B(2,3,9)        =    119.721813    -0.000001    -0.002671   119.719143
	   29 B(3,2,8)        =    119.501953    -0.000000    -0.002723   119.499230
	   30 B(3,4,5)        =    120.376631    -0.000000    -0.001542   120.375089
	   31 B(3,4,10)       =    119.808920     0.000000     0.000874   119.809793
	   32 B(4,3,9)        =    120.212352     0.000000     0.001817   120.214170
	   33 B(4,5,6)        =    120.043194     0.000000     0.000763   120.043956
	   34 B(4,5,11)       =    120.220817     0.000000     0.001693   120.222510
	   35 B(5,4,10)       =    119.814371     0.000000     0.000655   119.815026
	   36 B(5,6,12)       =    119.494358    -0.000001    -0.004025   119.490333
	   37 B(6,1,7)        =    119.927475     0.000001     0.002828   119.930303
	   38 B(6,5,11)       =    119.730779    -0.000001    -0.002546   119.728232
	   39 B(7,13,17)      =    120.064566    -0.000001    -0.004364   120.060203
	   40 B(7,13,18)      =    122.685732     0.000001     0.003603   122.689335
	   41 B(7,14,15)      =    122.758795     0.000001     0.001955   122.760749
	   42 B(7,14,16)      =    120.093440    -0.000000    -0.002782   120.090658
	   43 B(13,7,14)      =    119.748940     0.000002     0.005769   119.754708
	   44 B(15,14,16)     =    116.953227    -0.000000    -0.001676   116.951550
	   45 B(17,13,18)     =    116.912618     0.000000    -0.000822   116.911796
	   46 D(1,2,3,4)      =     -0.567829     0.000000     0.001407    -0.566422
	   47 D(1,2,3,9)      =    178.807218    -0.000000    -0.003240   178.803978
	   48 D(1,6,5,4)      =      0.053978     0.000000     0.011705     0.065683
	   49 D(1,6,5,11)     =    179.225486     0.000000     0.004571   179.230058
	   50 D(1,7,13,17)    =    -13.021687     0.000000     0.012341   -13.009346
	   51 D(1,7,13,18)    =    173.853753     0.000000     0.028468   173.882221
	   52 D(1,7,14,15)    =    174.150357     0.000000     0.024671   174.175028
	   53 D(1,7,14,16)    =    -11.075113    -0.000000    -0.008863   -11.083976
	   54 D(2,1,6,5)      =     -0.553454    -0.000000    -0.016837    -0.570291
	   55 D(2,1,6,12)     =    176.256751    -0.000000    -0.009483   176.247268
	   56 *D(2,1,7,13)    =    -29.999989     0.000000     0.000000   -29.999989
	   57 D(2,1,7,14)     =    148.902246     0.000000     0.007324   148.909569
	   58 D(2,3,4,5)      =      0.068324    -0.000000    -0.006594     0.061729
	   59 D(2,3,4,10)     =   -179.829940     0.000000     0.001923  -179.828016
	   60 D(3,2,1,6)      =      0.810755     0.000000     0.010263     0.821018
	   61 D(3,2,1,7)      =    179.131886     0.000000     0.004438   179.136324
	   62 D(3,4,5,6)      =      0.191015    -0.000000    -0.000027     0.190989
	   63 D(3,4,5,11)     =   -178.976396     0.000000     0.007178  -178.969217
	   64 D(4,3,2,8)      =   -176.991571    -0.000000     0.000557  -176.991014
	   65 D(4,5,6,12)     =   -176.792641     0.000000     0.004164  -176.788477
	   66 D(5,4,3,9)      =   -179.303630    -0.000000    -0.001895  -179.305526
	   67 D(5,6,1,7)      =   -178.877830    -0.000000    -0.010927  -178.888757
	   68 D(6,1,2,8)      =    177.193869     0.000000     0.010924   177.204793
	   69 D(6,1,7,13)     =    148.321218    -0.000000    -0.005874   148.315344
	   70 D(6,1,7,14)     =    -32.776547    -0.000000     0.001449   -32.775098
	   71 D(6,5,4,10)     =   -179.910727    -0.000000    -0.008544  -179.919271
	   72 D(7,1,2,8)      =     -4.485000     0.000000     0.005099    -4.479901
	   73 D(7,1,6,12)     =     -2.067625     0.000000    -0.003572    -2.071198
	   74 D(8,2,3,9)      =      2.383476    -0.000000    -0.004090     2.379385
	   75 D(9,3,4,10)     =      0.798106     0.000000     0.006622     0.804729
	   76 D(10,4,5,11)    =      0.921862    -0.000000    -0.001340     0.920523
	   77 D(11,5,6,12)    =      2.378867    -0.000000    -0.002970     2.375897
	   78 D(13,7,14,15)   =     -6.942765     0.000000     0.031826    -6.910940
	   79 D(13,7,14,16)   =    167.831765    -0.000000    -0.001708   167.830057
	   80 D(14,7,13,17)   =    168.072524     0.000000     0.005091   168.077615
	   81 D(14,7,13,18)   =     -5.052035     0.000000     0.021218    -5.030817
	 ---------------------------------------------------------------------------
	Successfully symmetrized geometry.

  ==> Convergence Check <==

  Measures of convergence in internal coordinates in au.
  Criteria marked as inactive (o), active & met (*), and active & unmet ( ).
  ---------------------------------------------------------------------------------------------
   Step     Total Energy     Delta E     MAX Force     RMS Force      MAX Disp      RMS Disp   
  ---------------------------------------------------------------------------------------------
    Convergence Criteria    1.00e-06 *    3.00e-04 *             o    1.20e-03 *             o
  ---------------------------------------------------------------------------------------------
      8    -381.47031619   -2.11e-07 *    2.97e-05 *    7.71e-06 o    5.55e-04 *    1.33e-04 o  ~
  ---------------------------------------------------------------------------------------------


  **** Optimization is complete! (in 8 steps) ****

  ==> Optimization Summary <==

  Measures of convergence in internal coordinates in au.
  --------------------------------------------------------------------------------------------------------------- ~
   Step         Total Energy             Delta E       MAX Force       RMS Force        MAX Disp        RMS Disp  ~
  --------------------------------------------------------------------------------------------------------------- ~
      1    -381.464656866181   -381.464656866181      0.00681008      0.00202770      0.16145252      0.05021147  ~
      2    -381.468124035026     -0.003467168845      0.01056594      0.00214536      0.16736852      0.04119163  ~
      3    -381.469787699725     -0.001663664699      0.00967288      0.00165284      0.11189190      0.02436170  ~
      4    -381.470258748423     -0.000471048699      0.00235521      0.00047563      0.03338800      0.00825634  ~
      5    -381.470297760561     -0.000039012137      0.00083893      0.00020922      0.01382754      0.00337686  ~
      6    -381.470314848278     -0.000017087718      0.00026142      0.00005277      0.00483455      0.00107152  ~
      7    -381.470315974353     -0.000001126075      0.00008580      0.00001582      0.00278884      0.00068837  ~
      8    -381.470316185611     -0.000000211258      0.00002966      0.00000771      0.00055547      0.00013280  ~
  --------------------------------------------------------------------------------------------------------------- ~

	Writing optimization data to binary file.
	Final energy is   -381.4703161856111
	Final (previous) structure:
	Cartesian Geometry (in Angstrom)
	    C     0.0164301792  -0.0004199990  -0.1772887298
	    C     0.0383175294   1.2184659761   0.5274682187
	    C     0.0197678305   1.2127725280   1.9181944990
	    C    -0.0324724311   0.0004474900   2.6131015560
	    C    -0.0649437772  -1.2121629281   1.9178712148
	    C    -0.0413555452  -1.2183743551   0.5270890471
	    C     0.0165529594  -0.0026454676  -1.6435476428
	    H     0.1285023032   2.1624342908  -0.0024668105
	    H     0.0562651651   2.1519149759   2.4605710206
	    H    -0.0495749023   0.0009094603   3.6986193350
	    H    -0.1222015095  -2.1508036108   2.4593130061
	    H    -0.1197322255  -2.1622412930  -0.0049420942
	    N    -0.5406615381   1.0030244418  -2.3140066048
	    N     0.5935971921  -1.0004033898  -2.3088487548
	    H     0.5434384954  -1.0884644958  -3.3168965551
	    H     1.1744768456  -1.6676740744  -1.8187290327
	    H    -1.1329756692   1.6664494731  -1.8324244563
	    H    -0.4834309019   1.0867719773  -3.3220762160
	Saving final (previous) structure.
	Removing binary optimization data file.
			--------------------------
			 OPTKING Finished Execution 
			--------------------------

    Final optimized geometry and variables:
    Molecular point group: c1
    Full point group: C1

    Geometry (in Angstrom), charge = 1, multiplicity = 1:

    C            0.016430179227    -0.000419998959    -0.177288729753
    C            0.038317529431     1.218465976121     0.527468218669
    C            0.019767830488     1.212772528046     1.918194499017
    C           -0.032472431105     0.000447489956     2.613101555959
    C           -0.064943777180    -1.212162928071     1.917871214789
    C           -0.041355545247    -1.218374355056     0.527089047065
    C            0.016552959391    -0.002645467555    -1.643547642841
    H            0.128502303236     2.162434290780    -0.002466810516
    H            0.056265165082     2.151914975938     2.460571020576
    H           -0.049574902301     0.000909460326     3.698619335016
    H           -0.122201509452    -2.150803610754     2.459313006085
    H           -0.119732225530    -2.162241292971    -0.004942094236
    N           -0.540661538088     1.003024441839    -2.314006604842
    N            0.593597192100    -1.000403389815    -2.308848754839
    H            0.543438495436    -1.088464495811    -3.316896555133
    H            1.174476845588    -1.667674074398    -1.818729032727
    H           -1.132975669168     1.666449473077    -1.832424456287
    H           -0.483430901909     1.086771977307    -3.322076216003

	Removing binary optimization data file.
	Cleaning optimization helper files.


Properties will be evaluated at   0.000000,   0.000000,   0.000000 [a0]
OEProp: No title given, name of density matrix used for the following properties is 'SCF density'
  Nuclear Dipole Moment: [e a0]
     X:     0.1495      Y:     0.0116      Z:     0.1102

  Electronic Dipole Moment: [e a0]
     X:    -0.1407      Y:    -0.0188      Z:    -2.3389

  Dipole Moment: [e a0]
     X:     0.0088      Y:    -0.0072      Z:    -2.2287     Total:     2.2287

  Dipole Moment: [D]
     X:     0.0223      Y:    -0.0182      Z:    -5.6648     Total:     5.6649

  Quadrupole Moment: [D A]
    XX:   -51.1253     YY:   -36.3550     ZZ:   -13.1182
    XY:    -5.3827     XZ:    -0.3772     YZ:     0.0130

  Traceless Quadrupole Moment: [D A]
    XX:   -17.5925     YY:    -2.8222     ZZ:    20.4146
    XY:    -5.3827     XZ:    -0.3772     YZ:     0.0130

  Mulliken Charges: (a.u.)
   Center  Symbol    Alpha    Beta     Spin     Total
       1     C     2.95191  2.95191  0.00000  0.09618
       2     C     3.08373  3.08373  0.00000 -0.16745
       3     C     3.06247  3.06247  0.00000 -0.12494
       4     C     3.05134  3.05134  0.00000 -0.10268
       5     C     3.06216  3.06216  0.00000 -0.12431
       6     C     3.08329  3.08329  0.00000 -0.16659
       7     C     2.71800  2.71800  0.00000  0.56400
       8     H     0.41465  0.41465  0.00000  0.17070
       9     H     0.40529  0.40529  0.00000  0.18942
      10     H     0.40358  0.40358  0.00000  0.19284
      11     H     0.40529  0.40529  0.00000  0.18943
      12     H     0.41486  0.41486  0.00000  0.17027
      13     N     3.86617  3.86617  0.00000 -0.73234
      14     N     3.86541  3.86541  0.00000 -0.73083
      15     H     0.30577  0.30577  0.00000  0.38845
      16     H     0.30002  0.30002  0.00000  0.39997
      17     H     0.30029  0.30029  0.00000  0.39942
      18     H     0.30577  0.30577  0.00000  0.38846

   Total alpha = 32.00000, Total beta = 32.00000, Total charge =  1.00000


    Psi4 stopped on: Saturday, 29 September 2018 08:49PM
    Psi4 wall time for execution: 0:03:36.62

*** Psi4 exiting successfully. Buy a developer a beer!
