
    -----------------------------------------------------------------------
          Psi4: An Open-Source Ab Initio Electronic Structure Package
                               Psi4 1.2.1 release

                         Git: Rev {HEAD} 406f4de 


    R. M. Parrish, L. A. Burns, D. G. A. Smith, A. C. Simmonett,
    A. E. DePrince III, E. G. Hohenstein, U. Bozkaya, A. Yu. Sokolov,
    R. Di Remigio, R. M. Richard, J. F. Gonthier, A. M. James,
    H. R. McAlexander, A. Kumar, M. Saitow, X. Wang, B. P. Pritchard,
    P. Verma, H. F. Schaefer III, K. Patkowski, R. A. King, E. F. Valeev,
    F. A. Evangelista, J. M. Turney, T. D. Crawford, and C. D. Sherrill,
    J. Chem. Theory Comput. 13(7) pp 3185--3197 (2017).
    (doi: 10.1021/acs.jctc.7b00174)


                         Additional Contributions by
    P. Kraus, H. Kruse, M. H. Lechner, M. C. Schieber, and R. A. Shaw

    -----------------------------------------------------------------------


    Psi4 started on: Saturday, 29 September 2018 08:44PM

    Process ID: 28043
    Host:       oliva.prib.upf.edu
    PSIDATADIR: /shared/joao/test_parameterize/miniconda3/share/psi4
    Memory:     500.0 MiB
    Threads:    1
    
  ==> Input File <==

--------------------------------------------------------------------------
set_num_threads(4)
set_memory('3000 MB')

set { scf_mem_safety_factor 0.7 }

set { reference rks }
set { basis 6-31G* }

molecule MOL {
    1 1
    noreorient
    nocom
    symmetry c1
    C   -0.000000  -0.000000  -0.177864
    C    0.036678   1.219374   0.524165
    C    0.031765   1.213120   1.915444
    C    0.000000   0.000000   2.610107
    C   -0.031765  -1.213120   1.915444
    C   -0.036678  -1.219375   0.524165
    C   -0.000000   0.000000  -1.644734
    H    0.018170   2.164705  -0.010854
    H    0.042402   2.152895   2.457886
    H    0.000000   0.000000   3.695756
    H   -0.042402  -2.152895   2.457886
    H   -0.018170  -2.164705  -0.010853
    N   -0.980419   0.606060  -2.308460
    N    0.980419  -0.606060  -2.308461
    H    1.075890  -0.555834  -3.315997
    H    1.631576  -1.201131  -1.813317
    H   -1.631576   1.201132  -1.813316
    H   -1.075890   0.555834  -3.315997
}

set optking { frozen_dihedral = (" 2 1 7 13 ") }

set optking { dynamic_level = 1 
 geom_maxiter = 250
 print_trajectory_xyz_file = True }

energy, wfn = optimize('B3LYP-D3', return_wfn=True)

import os
os.chdir(os.environ['HTMD_PSI4_WORKDIR'])

oeprop(wfn, 'DIPOLE', 'QUADRUPOLE', 'MULLIKEN_CHARGES')

with open('psi4out.xyz', 'w') as f:
    f.write('18 ' )
    f.write('%.12f\n' % energy)
    f.write(MOL.save_string_xyz())
--------------------------------------------------------------------------
  Threads set to 4 by Python driver.

  Memory set to   2.794 GiB by Python driver.
gradient() will perform analytic gradient computation.

*** tstart() called on oliva.prib.upf.edu
*** at Sat Sep 29 20:44:14 2018

   => Loading Basis Set <=

    Name: 6-31G*
    Role: ORBITAL
    Keyword: BASIS
    atoms 1-7         entry C          line   111 file /shared/joao/test_parameterize/miniconda3/share/psi4/basis/6-31gs.gbs 
    atoms 8-12, 15-18 entry H          line    44 file /shared/joao/test_parameterize/miniconda3/share/psi4/basis/6-31gs.gbs 
    atoms 13-14       entry N          line   128 file /shared/joao/test_parameterize/miniconda3/share/psi4/basis/6-31gs.gbs 


         ---------------------------------------------------------
                                   SCF
            by Justin Turney, Rob Parrish, Andy Simmonett
                             and Daniel Smith
                              RKS Reference
                        4 Threads,   2861 MiB Core
         ---------------------------------------------------------

  ==> Geometry <==

    Molecular point group: c1
    Full point group: C1

    Geometry (in Angstrom), charge = 1, multiplicity = 1:

       Center              X                  Y                   Z               Mass       
    ------------   -----------------  -----------------  -----------------  -----------------
         C            0.000000000000     0.000000000000    -0.177864000000    12.000000000000
         C            0.036678000000     1.219374000000     0.524165000000    12.000000000000
         C            0.031765000000     1.213120000000     1.915444000000    12.000000000000
         C            0.000000000000     0.000000000000     2.610107000000    12.000000000000
         C           -0.031765000000    -1.213120000000     1.915444000000    12.000000000000
         C           -0.036678000000    -1.219375000000     0.524165000000    12.000000000000
         C            0.000000000000     0.000000000000    -1.644734000000    12.000000000000
         H            0.018170000000     2.164705000000    -0.010854000000     1.007825032070
         H            0.042402000000     2.152895000000     2.457886000000     1.007825032070
         H            0.000000000000     0.000000000000     3.695756000000     1.007825032070
         H           -0.042402000000    -2.152895000000     2.457886000000     1.007825032070
         H           -0.018170000000    -2.164705000000    -0.010853000000     1.007825032070
         N           -0.980419000000     0.606060000000    -2.308460000000    14.003074004780
         N            0.980419000000    -0.606060000000    -2.308461000000    14.003074004780
         H            1.075890000000    -0.555834000000    -3.315997000000     1.007825032070
         H            1.631576000000    -1.201131000000    -1.813317000000     1.007825032070
         H           -1.631576000000     1.201132000000    -1.813316000000     1.007825032070
         H           -1.075890000000     0.555834000000    -3.315997000000     1.007825032070

  Running in c1 symmetry.

  Rotational constants: A =      0.12190  B =      0.03807  C =      0.03230 [cm^-1]
  Rotational constants: A =   3654.48710  B =   1141.45808  C =    968.19309 [MHz]
  Nuclear repulsion =  416.269057132153648

  Charge       = 1
  Multiplicity = 1
  Electrons    = 64
  Nalpha       = 32
  Nbeta        = 32

  ==> Algorithm <==

  SCF Algorithm Type is DF.
  DIIS enabled.
  MOM disabled.
  Fractional occupation disabled.
  Guess Type is SAD.
  Energy threshold   = 1.00e-08
  Density threshold  = 1.00e-08
  Integral threshold = 0.00e+00

  ==> Primary Basis <==

  Basis Set: 6-31G*
    Blend: 6-31G*
    Number of shells: 72
    Number of basis function: 153
    Number of Cartesian functions: 153
    Spherical Harmonics?: false
    Max angular momentum: 2

  ==> DFT Potential <==

   => Composite Functional: B3LYP-D3ZERO <= 

    B3LYP-d3zero Hyb-GGA Exchange-Correlation Functional

    P. J. Stephens, F. J. Devlin, C. F. Chabalowski, and M. J. Frisch, J. Phys. Chem. 98, 11623 (1994)

    Deriv               =              1
    GGA                 =           TRUE
    Meta                =          FALSE

    Exchange Hybrid     =           TRUE
    MP2 Hybrid          =          FALSE

   => Exchange Functionals <=

    0.0800   Slater exchange
    0.7200         Becke 88

   => Exact (HF) Exchange <=

    0.2000               HF 

   => Correlation Functionals <=

    0.1900   Vosko, Wilk & Nusair (VWN5_RPA)
    0.8100   Lee, Yang & Parr

   => Molecular Quadrature <=

    Radial Scheme       =       TREUTLER
    Pruning Scheme      =           FLAT
    Nuclear Scheme      =       TREUTLER

    BS radius alpha     =              1
    Pruning alpha       =              1
    Radial Points       =             75
    Spherical Points    =            302
    Total Points        =         397094
    Total Blocks        =           2985
    Max Points          =            256
    Max Functions       =            149

   => -D3ZERO: Empirical Dispersion <=

    Grimme's -D3 (zero-damping) Dispersion Correction
    Grimme S.; Antony J.; Ehrlich S.; Krieg H. (2010), J. Chem. Phys., 132: 154104

        S6 =   1.000000E+00
        S8 =   1.703000E+00
       SR6 =   1.261000E+00
       SR8 =   1.000000E+00
    ALPHA6 =   1.400000E+01

   => Loading Basis Set <=

    Name: (6-31G* AUX)
    Role: JKFIT
    Keyword: DF_BASIS_SCF
    atoms 1-7         entry C          line   121 file /shared/joao/test_parameterize/miniconda3/share/psi4/basis/cc-pvdz-jkfit.gbs 
    atoms 8-12, 15-18 entry H          line    51 file /shared/joao/test_parameterize/miniconda3/share/psi4/basis/cc-pvdz-jkfit.gbs 
    atoms 13-14       entry N          line   171 file /shared/joao/test_parameterize/miniconda3/share/psi4/basis/cc-pvdz-jkfit.gbs 

  ==> Pre-Iterations <==

   -------------------------------------------------------
    Irrep   Nso     Nmo     Nalpha   Nbeta   Ndocc  Nsocc
   -------------------------------------------------------
     A        153     153       0       0       0       0
   -------------------------------------------------------
    Total     153     153      32      32      32       0
   -------------------------------------------------------

  ==> Integral Setup <==

  ==> DiskDFJK: Density-Fitted J/K Matrices <==

    J tasked:                  Yes
    K tasked:                  Yes
    wK tasked:                  No
    OpenMP threads:              4
    Integrals threads:           4
    Memory (MB):              2002
    Algorithm:                Core
    Integral Cache:           NONE
    Schwarz Cutoff:          1E-12
    Fitting Condition:       1E-12

   => Auxiliary Basis Set <=

  Basis Set: (6-31G* AUX)
    Blend: CC-PVDZ-JKFIT
    Number of shells: 297
    Number of basis function: 954
    Number of Cartesian functions: 954
    Spherical Harmonics?: false
    Max angular momentum: 3

  Minimum eigenvalue in the overlap matrix is 4.8802975080E-04.
  Using Symmetric Orthogonalization.

  SCF Guess: Superposition of Atomic Densities via on-the-fly atomic UHF.

  ==> Iterations <==

                           Total Energy        Delta E     RMS |[F,P]|

   @DF-RKS iter   0:  -379.55141536072773   -3.79551e+02   6.70402e-02 
   @DF-RKS iter   1:  -381.02533862096431   -1.47392e+00   1.19920e-02 
   @DF-RKS iter   2:  -380.93249517617068    9.28434e-02   1.34597e-02 DIIS
   @DF-RKS iter   3:  -381.45444548496306   -5.21950e-01   1.86729e-03 DIIS
   @DF-RKS iter   4:  -381.46168390872720   -7.23842e-03   9.04334e-04 DIIS
   @DF-RKS iter   5:  -381.46373534229258   -2.05143e-03   2.40345e-04 DIIS
   @DF-RKS iter   6:  -381.46387842367710   -1.43081e-04   7.33919e-05 DIIS
   @DF-RKS iter   7:  -381.46389287773411   -1.44541e-05   1.25957e-05 DIIS
   @DF-RKS iter   8:  -381.46389322504979   -3.47316e-07   5.55237e-06 DIIS
   @DF-RKS iter   9:  -381.46389331366572   -8.86159e-08   1.45062e-06 DIIS
   @DF-RKS iter  10:  -381.46389331919727   -5.53155e-09   7.57345e-07 DIIS
   @DF-RKS iter  11:  -381.46389332106105   -1.86378e-09   8.85507e-08 DIIS
   @DF-RKS iter  12:  -381.46389332107776   -1.67120e-11   5.16060e-08 DIIS
   @DF-RKS iter  13:  -381.46389332108538   -7.61702e-12   1.41215e-08 DIIS
   @DF-RKS iter  14:  -381.46389332108618   -7.95808e-13   7.42756e-09 DIIS

  ==> Post-Iterations <==

    Orbital Energies [Eh]
    ---------------------

    Doubly Occupied:                                                      

       1A    -14.573817     2A    -14.573809     3A    -10.503222  
       4A    -10.370948     5A    -10.352257     6A    -10.352249  
       7A    -10.336622     8A    -10.336231     9A    -10.335858  
      10A     -1.188595    11A     -1.096315    12A     -1.011106  
      13A     -0.925333    14A     -0.898201    15A     -0.846345  
      16A     -0.787993    17A     -0.770073    18A     -0.747969  
      19A     -0.731066    20A     -0.692046    21A     -0.668633  
      22A     -0.622240    23A     -0.620867    24A     -0.580733  
      25A     -0.575993    26A     -0.570994    27A     -0.515099  
      28A     -0.502418    29A     -0.493938    30A     -0.475745  
      31A     -0.405738    32A     -0.401491  

    Virtual:                                                              

      33A     -0.206900    34A     -0.154234    35A     -0.153056  
      36A     -0.111287    37A     -0.067993    38A     -0.064439  
      39A     -0.038588    40A     -0.033405    41A      0.009845  
      42A      0.017867    43A      0.023179    44A      0.058988  
      45A      0.061632    46A      0.073480    47A      0.133941  
      48A      0.148936    49A      0.162154    50A      0.172241  
      51A      0.203349    52A      0.224825    53A      0.295058  
      54A      0.345463    55A      0.356030    56A      0.377228  
      57A      0.389272    58A      0.397727    59A      0.407591  
      60A      0.424994    61A      0.447925    62A      0.450142  
      63A      0.450520    64A      0.470571    65A      0.472805  
      66A      0.478589    67A      0.483851    68A      0.512477  
      69A      0.515476    70A      0.535614    71A      0.542254  
      72A      0.566495    73A      0.598959    74A      0.653007  
      75A      0.659216    76A      0.680769    77A      0.681771  
      78A      0.702049    79A      0.708238    80A      0.709845  
      81A      0.732097    82A      0.758709    83A      0.777916  
      84A      0.792687    85A      0.813286    86A      0.833755  
      87A      0.852908    88A      0.937052    89A      0.970893  
      90A      1.008805    91A      1.010516    92A      1.021662  
      93A      1.026480    94A      1.062978    95A      1.134748  
      96A      1.196969    97A      1.207325    98A      1.277136  
      99A      1.282260   100A      1.326075   101A      1.327934  
     102A      1.345123   103A      1.363531   104A      1.379852  
     105A      1.419987   106A      1.445225   107A      1.497845  
     108A      1.609116   109A      1.643679   110A      1.648899  
     111A      1.665978   112A      1.739273   113A      1.757767  
     114A      1.804314   115A      1.822176   116A      1.850407  
     117A      1.892287   118A      1.906949   119A      1.956678  
     120A      1.981924   121A      1.998942   122A      2.012186  
     123A      2.037698   124A      2.083246   125A      2.132018  
     126A      2.148734   127A      2.158745   128A      2.168347  
     129A      2.217194   130A      2.262469   131A      2.372224  
     132A      2.372730   133A      2.417241   134A      2.449158  
     135A      2.499181   136A      2.563129   137A      2.575200  
     138A      2.591557   139A      2.604935   140A      2.629050  
     141A      2.725876   142A      2.882727   143A      2.944628  
     144A      3.258280   145A      3.633736   146A      3.638719  
     147A      3.934859   148A      3.965124   149A      3.969518  
     150A      4.091540   151A      4.181774   152A      4.259432  
     153A      4.548425  

    Final Occupation by Irrep:
              A 
    DOCC [    32 ]

  Energy converged.

  @DF-RKS Final Energy:  -381.46389332108618

   => Energetics <=

    Nuclear Repulsion Energy =            416.2690571321536481
    One-Electron Energy =               -1327.7922051183415988
    Two-Electron Energy =                 574.4740571428225167
    DFT Exchange-Correlation Energy =     -44.4029109777207580
    Empirical Dispersion Energy =          -0.0118915000000000
    VV10 Nonlocal Energy =                  0.0000000000000000
    Total Energy =                       -381.4638933210861751



Properties will be evaluated at   0.000000,   0.000000,   0.000000 [a0]

Properties computed using the SCF density matrix

  Nuclear Dipole Moment: [e a0]
     X:     0.0000      Y:    -0.0000      Z:     0.0248

  Electronic Dipole Moment: [e a0]
     X:    -0.0000      Y:     0.0000      Z:    -2.4928

  Dipole Moment: [e a0]
     X:    -0.0000      Y:     0.0000      Z:    -2.4680     Total:     2.4680

  Dipole Moment: [D]
     X:    -0.0000      Y:     0.0000      Z:    -6.2731     Total:     6.2731


*** tstop() called on oliva.prib.upf.edu at Sat Sep 29 20:44:43 2018
Module time:
	user time   =      99.47 seconds =       1.66 minutes
	system time =       0.83 seconds =       0.01 minutes
	total time  =         29 seconds =       0.48 minutes
Total time:
	user time   =      99.47 seconds =       1.66 minutes
	system time =       0.83 seconds =       0.01 minutes
	total time  =         29 seconds =       0.48 minutes

*** tstart() called on oliva.prib.upf.edu
*** at Sat Sep 29 20:44:43 2018


         ------------------------------------------------------------
                                   SCF GRAD                          
                          Rob Parrish, Justin Turney,                
                       Andy Simmonett, and Alex Sokolov              
         ------------------------------------------------------------

  ==> Geometry <==

    Molecular point group: c1
    Full point group: C1

    Geometry (in Angstrom), charge = 1, multiplicity = 1:

       Center              X                  Y                   Z               Mass       
    ------------   -----------------  -----------------  -----------------  -----------------
         C            0.000000000000     0.000000000000    -0.177864000000    12.000000000000
         C            0.036678000000     1.219374000000     0.524165000000    12.000000000000
         C            0.031765000000     1.213120000000     1.915444000000    12.000000000000
         C            0.000000000000     0.000000000000     2.610107000000    12.000000000000
         C           -0.031765000000    -1.213120000000     1.915444000000    12.000000000000
         C           -0.036678000000    -1.219375000000     0.524165000000    12.000000000000
         C            0.000000000000     0.000000000000    -1.644734000000    12.000000000000
         H            0.018170000000     2.164705000000    -0.010854000000     1.007825032070
         H            0.042402000000     2.152895000000     2.457886000000     1.007825032070
         H            0.000000000000     0.000000000000     3.695756000000     1.007825032070
         H           -0.042402000000    -2.152895000000     2.457886000000     1.007825032070
         H           -0.018170000000    -2.164705000000    -0.010853000000     1.007825032070
         N           -0.980419000000     0.606060000000    -2.308460000000    14.003074004780
         N            0.980419000000    -0.606060000000    -2.308461000000    14.003074004780
         H            1.075890000000    -0.555834000000    -3.315997000000     1.007825032070
         H            1.631576000000    -1.201131000000    -1.813317000000     1.007825032070
         H           -1.631576000000     1.201132000000    -1.813316000000     1.007825032070
         H           -1.075890000000     0.555834000000    -3.315997000000     1.007825032070

  Nuclear repulsion =  416.269057132153648

  ==> Basis Set <==

  Basis Set: 6-31G*
    Blend: 6-31G*
    Number of shells: 72
    Number of basis function: 153
    Number of Cartesian functions: 153
    Spherical Harmonics?: false
    Max angular momentum: 2

  ==> DFJKGrad: Density-Fitted SCF Gradients <==

    Gradient:                    1
    J tasked:                  Yes
    K tasked:                  Yes
    wK tasked:                  No
    OpenMP threads:              4
    Integrals threads:           4
    Memory (MB):              2002
    Schwarz Cutoff:          0E+00
    Fitting Condition:       1E-12

   => Auxiliary Basis Set <=

  Basis Set: (6-31G* AUX)
    Blend: CC-PVDZ-JKFIT
    Number of shells: 297
    Number of basis function: 954
    Number of Cartesian functions: 954
    Spherical Harmonics?: false
    Max angular momentum: 3

  ==> DFT Potential <==

   => Composite Functional: B3LYP-D3ZERO <= 

    B3LYP-d3zero Hyb-GGA Exchange-Correlation Functional

    P. J. Stephens, F. J. Devlin, C. F. Chabalowski, and M. J. Frisch, J. Phys. Chem. 98, 11623 (1994)

    Deriv               =              1
    GGA                 =           TRUE
    Meta                =          FALSE

    Exchange Hybrid     =           TRUE
    MP2 Hybrid          =          FALSE

   => Exchange Functionals <=

    0.0800   Slater exchange
    0.7200         Becke 88

   => Exact (HF) Exchange <=

    0.2000               HF 

   => Correlation Functionals <=

    0.1900   Vosko, Wilk & Nusair (VWN5_RPA)
    0.8100   Lee, Yang & Parr

   => Molecular Quadrature <=

    Radial Scheme       =       TREUTLER
    Pruning Scheme      =           FLAT
    Nuclear Scheme      =       TREUTLER

    BS radius alpha     =              1
    Pruning alpha       =              1
    Radial Points       =             75
    Spherical Points    =            302
    Total Points        =         397094
    Total Blocks        =           2985
    Max Points          =            256
    Max Functions       =            149


  -Total Gradient:
     Atom            X                  Y                   Z
    ------   -----------------  -----------------  -----------------
       1       -0.000000060315     0.000000383668    -0.011103067254
       2        0.008160150328     0.000619512787     0.003891675431
       3        0.000499331543     0.001898936863    -0.001649357708
       4       -0.000000001280    -0.000000084340     0.000076630127
       5       -0.000499323473    -0.001898710682    -0.001649292816
       6       -0.008160146912    -0.000620895378     0.003891320499
       7       -0.000000212653     0.000000192105     0.010566317570
       8       -0.003063961338    -0.000098296126     0.000735710699
       9       -0.000868189651    -0.000090772232     0.000121611182
      10       -0.000000000573     0.000000005708     0.000038718216
      11        0.000868188388     0.000090774738     0.000121551129
      12        0.003063942601     0.000099093975     0.000736204608
      13       -0.005225678562    -0.002939514505    -0.002281022942
      14        0.005226346180     0.002939120720    -0.002282038250
      15        0.001903988712     0.002965921798     0.001076686680
      16       -0.002862819509    -0.002998970579    -0.001686376074
      17        0.002862468059     0.002999311600    -0.001686153272
      18       -0.001904021394    -0.002966010337     0.001075826612


*** tstop() called on oliva.prib.upf.edu at Sat Sep 29 20:44:50 2018
Module time:
	user time   =      27.66 seconds =       0.46 minutes
	system time =       0.26 seconds =       0.00 minutes
	total time  =          7 seconds =       0.12 minutes
Total time:
	user time   =     127.19 seconds =       2.12 minutes
	system time =       1.10 seconds =       0.02 minutes
	total time  =         36 seconds =       0.60 minutes

			-----------------------------------------
			 OPTKING 2.0: for geometry optimizations 
			  - R.A. King,  Bethel University        
			-----------------------------------------
	At level 1: Red. Int., RFO, no backsteps, dynamic trust

	Internal coordinates to be generated automatically.
	Detected frag 1 with atoms:  1 2 3 4 5 6 7 8 9 10 11 12 13 14 15 16 17 18
	---Fragment 1 Bond Connectivity---
	 1 : 2 6 7
	 2 : 1 3 8
	 3 : 2 4 9
	 4 : 3 5 10
	 5 : 4 6 11
	 6 : 1 5 12
	 7 : 1 13 14
	 8 : 2
	 9 : 3
	 10 : 4
	 11 : 5
	 12 : 6
	 13 : 7 17 18
	 14 : 7 15 16
	 15 : 14
	 16 : 14
	 17 : 13
	 18 : 13

	Assuming in current code that numbering for constraints corresponds to unified fragment.
	Frozen dihedral atom list: 
	     2     1     7    13
	---Fragment 1 Geometry and Gradient---
	 C           0.0000000000        0.0000000000       -0.3361142489
	 C           0.0693113751        2.3042829136        0.9905282984
	 C           0.0600271506        2.2924645663        3.6196645829
	 C           0.0000000000        0.0000000000        4.9323874075
	 C          -0.0600271506       -2.2924645663        3.6196645829
	 C          -0.0693113751       -2.3042848033        0.9905282984
	 C           0.0000000000        0.0000000000       -3.1080968214
	 H           0.0343363238        4.0906996085       -0.0205110874
	 H           0.0801281675        4.0683819429        4.6447314059
	 H           0.0000000000        0.0000000000        6.9839666940
	 H          -0.0801281675       -4.0683819429        4.6447314059
	 H          -0.0343363238       -4.0906996085       -0.0205091977
	 N          -1.8527234055        1.1452874201       -4.3623571887
	 N           1.8527234055       -1.1452874201       -4.3623590784
	 H           2.0331374491       -1.0503740353       -6.2663261875
	 H           3.0832318050       -2.2698086397       -3.4266725221
	 H          -3.0832318050        2.2698105294       -3.4266706324
	 H          -2.0331374491        1.0503740353       -6.2663261875
	            -0.0000000603        0.0000003837       -0.0111030673
	             0.0081601503        0.0006195128        0.0038916754
	             0.0004993315        0.0018989369       -0.0016493577
	            -0.0000000013       -0.0000000843        0.0000766301
	            -0.0004993235       -0.0018987107       -0.0016492928
	            -0.0081601469       -0.0006208954        0.0038913205
	            -0.0000002127        0.0000001921        0.0105663176
	            -0.0030639613       -0.0000982961        0.0007357107
	            -0.0008681897       -0.0000907722        0.0001216112
	            -0.0000000006        0.0000000057        0.0000387182
	             0.0008681884        0.0000907747        0.0001215511
	             0.0030639426        0.0000990940        0.0007362046
	            -0.0052256786       -0.0029395145       -0.0022810229
	             0.0052263462        0.0029391207       -0.0022820382
	             0.0019039887        0.0029659218        0.0010766867
	            -0.0028628195       -0.0029989706       -0.0016863761
	             0.0028624681        0.0029993116       -0.0016861533
	            -0.0019040214       -0.0029660103        0.0010758266

	Previous optimization step data not found.  Starting new optimization.

	---Fragment 1 Intrafragment Coordinates---
	 - Coordinate -           - BOHR/RAD -       - ANG/DEG -
	 R(1,2)           =         2.659794	       1.407502
	 R(1,6)           =         2.659796	       1.407503
	 R(1,7)           =         2.771983	       1.466870
	 R(2,3)           =         2.629179	       1.391302
	 R(2,8)           =         2.052976	       1.086388
	 R(3,4)           =         2.642393	       1.398294
	 R(3,9)           =         2.050622	       1.085142
	 R(4,5)           =         2.642393	       1.398294
	 R(4,10)          =         2.051579	       1.085649
	 R(5,6)           =         2.629179	       1.391302
	 R(5,11)          =         2.050622	       1.085142
	 R(6,12)          =         2.052973	       1.086386
	 R(7,13)          =         2.513451	       1.330061
	 R(7,14)          =         2.513452	       1.330062
	 R(13,17)         =         1.911599	       1.011575
	 R(13,18)         =         1.914851	       1.013296
	 R(14,15)         =         1.914849	       1.013295
	 R(14,16)         =         1.911598	       1.011574
	 B(1,2,3)         =         2.088380	     119.655376
	 B(1,2,8)         =         2.103396	     120.515689
	 B(1,6,5)         =         2.088379	     119.655315
	 B(1,6,12)        =         2.103396	     120.515729
	 B(1,7,13)        =         2.093263	     119.935132
	 B(1,7,14)        =         2.093264	     119.935170
	 B(2,1,6)         =         2.097220	     120.161857
	 B(2,1,7)         =         2.092983	     119.919082
	 B(2,3,4)         =         2.095279	     120.050636
	 B(2,3,9)         =         2.089719	     119.732108
	 B(3,2,8)         =         2.090149	     119.756722
	 B(3,4,5)         =         2.101793	     120.423859
	 B(3,4,10)        =         2.090696	     119.788070
	 B(4,3,9)         =         2.098135	     120.214297
	 B(4,5,6)         =         2.095280	     120.050677
	 B(4,5,11)        =         2.098135	     120.214297
	 B(5,4,10)        =         2.090696	     119.788070
	 B(5,6,12)        =         2.090149	     119.756743
	 B(6,1,7)         =         2.092982	     119.919061
	 B(6,5,11)        =         2.089719	     119.732067
	 B(7,13,17)       =         2.092412	     119.886375
	 B(7,13,18)       =         2.144859	     122.891363
	 B(7,14,15)       =         2.144860	     122.891402
	 B(7,14,16)       =         2.092411	     119.886328
	 B(13,7,14)       =         2.096659	     120.129698
	 B(15,14,16)      =         2.043400	     117.078207
	 B(17,13,18)      =         2.043400	     117.078195
	 D(1,2,3,4)       =         0.007799	       0.446825
	 D(1,2,3,9)       =        -3.122896	    -178.928735
	 D(1,6,5,4)       =         0.007799	       0.446822
	 D(1,6,5,11)      =        -3.122896	    -178.928737
	 D(1,7,13,17)     =         0.187846	      10.762781
	 D(1,7,13,18)     =        -3.032166	    -173.730295
	 D(1,7,14,15)     =        -3.032165	    -173.730286
	 D(1,7,14,16)     =         0.187845	      10.762726
	 D(2,1,6,5)       =        -0.003906	      -0.223802
	 D(2,1,6,12)      =        -3.091437	    -177.126283
	*D(2,1,7,13)      =        -1.047198	     -60.000026
	 D(2,1,7,14)      =         2.094395	     119.999974
	 D(2,3,4,5)       =        -0.003942	      -0.225875
	 D(2,3,4,10)      =         3.137650	     179.774125
	 D(3,2,1,6)       =        -0.003906	      -0.223806
	 D(3,2,1,7)       =         3.137687	     179.776196
	 D(3,4,5,6)       =        -0.003942	      -0.225874
	 D(3,4,5,11)      =         3.126699	     179.146646
	 D(4,3,2,8)       =         3.095744	     177.373058
	 D(4,5,6,12)      =         3.095744	     177.373055
	 D(5,4,3,9)       =         3.126699	     179.146646
	 D(5,6,1,7)       =         3.137687	     179.776197
	 D(6,1,2,8)       =        -3.091437	    -177.126287
	 D(6,1,7,13)      =         2.094395	     119.999976
	 D(6,1,7,14)      =        -1.047198	     -60.000024
	 D(6,5,4,10)      =         3.137650	     179.774126
	 D(7,1,2,8)       =         0.050156	       2.873714
	 D(7,1,6,12)      =         0.050156	       2.873716
	 D(8,2,3,9)       =        -0.034950	      -2.002503
	 D(9,3,4,10)      =        -0.014894	      -0.853354
	 D(10,4,5,11)     =        -0.014894	      -0.853354
	 D(11,5,6,12)     =        -0.034950	      -2.002504
	 D(13,7,14,15)    =         0.109427	       6.269714
	 D(13,7,14,16)    =        -2.953748	    -169.237274
	 D(14,7,13,17)    =        -2.953747	    -169.237219
	 D(14,7,13,18)    =         0.109427	       6.269705

	Current energy   :      -381.4638933211

	Generating empirical Hessian (Schlegel '84) for each fragment.
	Taking RFO optimization step.
	Going to follow RFO solution 1.
	Using RFO vector 1.
	Norm of target step-size    0.43268
	Projected energy change by RFO approximation:        -0.0005203182

	Back-transformation to cartesian coordinates...
	Could not converge backtransformation.
	Using first guess instead.

	Back-transformation to cartesian coordinates to adjust frozen coordinates...
	Successfully converged to displaced geometry.

	--- Internal Coordinate Step in ANG or DEG, aJ/ANG or AJ/DEG ---
	 ---------------------------------------------------------------------------
	   Coordinate                Previous        Force       Change         New 
	   ----------                --------       ------       ------       ------
	    1 R(1,2)          =      1.407502    -0.025397    -0.003695     1.403807
	    2 R(1,6)          =      1.407503    -0.025404    -0.003044     1.404459
	    3 R(1,7)          =      1.466870     0.039424     0.007069     1.473939
	    4 R(2,3)          =      1.391302     0.012112     0.001870     1.393172
	    5 R(2,8)          =      1.086388     0.003261     0.001660     1.088048
	    6 R(3,4)          =      1.398294    -0.005440    -0.000576     1.397718
	    7 R(3,9)          =      1.085142     0.000216     0.000390     1.085532
	    8 R(4,5)          =      1.398294    -0.005443    -0.000586     1.397707
	    9 R(4,10)         =      1.085649    -0.000321    -0.000028     1.085621
	   10 R(5,6)          =      1.391302     0.012105     0.001686     1.392987
	   11 R(5,11)         =      1.085142     0.000216     0.000139     1.085281
	   12 R(6,12)         =      1.086386     0.003268     0.001408     1.087794
	   13 R(7,13)         =      1.330061    -0.026888    -0.002870     1.327191
	   14 R(7,14)         =      1.330062    -0.026892    -0.002230     1.327832
	   15 R(13,17)        =      1.011575     0.007444     0.007288     1.018862
	   16 R(13,18)        =      1.013296     0.006126     0.004888     1.018184
	   17 R(14,15)        =      1.013295     0.006133     0.006400     1.019694
	   18 R(14,16)        =      1.011574     0.007448     0.006716     1.018291
	   19 B(1,2,3)        =    119.655376    -0.000092    -0.306486   119.348890
	   20 B(1,2,8)        =    120.515689     0.000007    -0.001473   120.514216
	   21 B(1,6,5)        =    119.655315    -0.000091    -0.319245   119.336070
	   22 B(1,6,12)       =    120.515729     0.000008    -0.043475   120.472255
	   23 B(1,7,13)       =    119.935132    -0.000137    -0.401145   119.533987
	   24 B(1,7,14)       =    119.935170    -0.000137    -0.440162   119.495008
	   25 B(2,1,6)        =    120.161857     0.000191     0.516931   120.678788
	   26 B(2,1,7)        =    119.919082    -0.000095    -0.251852   119.667230
	   27 B(2,3,4)        =    120.050636     0.000014     0.076605   120.127241
	   28 B(2,3,9)        =    119.732108    -0.000020    -0.078019   119.654088
	   29 B(3,2,8)        =    119.756722     0.000091     0.359809   120.116530
	   30 B(3,4,5)        =    120.423859    -0.000036    -0.066718   120.357141
	   31 B(3,4,10)       =    119.788070     0.000018     0.035723   119.823793
	   32 B(4,3,9)        =    120.214297     0.000006     0.003018   120.217315
	   33 B(4,5,6)        =    120.050677     0.000014     0.075230   120.125907
	   34 B(4,5,11)       =    120.214297     0.000006     0.017377   120.231674
	   35 B(5,4,10)       =    119.788070     0.000018     0.030352   119.818422
	   36 B(5,6,12)       =    119.756743     0.000091     0.406707   120.163450
	   37 B(6,1,7)        =    119.919061    -0.000095    -0.305407   119.613654
	   38 B(6,5,11)       =    119.732067    -0.000020    -0.089786   119.642280
	   39 B(7,13,17)      =    119.886375    -0.000065    -0.493120   119.393255
	   40 B(7,13,18)      =    122.891363     0.000041     0.085112   122.976475
	   41 B(7,14,15)      =    122.891402     0.000041     0.176161   123.067563
	   42 B(7,14,16)      =    119.886328    -0.000065    -0.597826   119.288501
	   43 B(13,7,14)      =    120.129698     0.000274     0.802508   120.932206
	   44 B(15,14,16)     =    117.078207     0.000027     0.498178   117.576384
	   45 B(17,13,18)     =    117.078195     0.000027     0.484429   117.562625
	   46 D(1,2,3,4)      =      0.446825    -0.000009    -1.225855    -0.779030
	   47 D(1,2,3,9)      =   -178.928735    -0.000017    -2.272976  -181.201712
	   48 D(1,6,5,4)      =      0.446822    -0.000014    -2.083295    -1.636473
	   49 D(1,6,5,11)     =   -178.928737    -0.000020    -2.843112  -181.771849
	   50 D(1,7,13,17)    =     10.762781    -0.000056    -6.789648     3.973134
	   51 D(1,7,13,18)    =   -173.730295    -0.000044    -5.362698  -179.092992
	   52 D(1,7,14,15)    =   -173.730286    -0.000057    -7.593267  -181.323553
	   53 D(1,7,14,16)    =     10.762726    -0.000069    -9.022473     1.740253
	   54 D(2,1,6,5)      =     -0.223802     0.000012     1.914819     1.691017
	   55 D(2,1,6,12)     =   -177.126283    -0.000024    -3.111883  -180.238165
	   56 *D(2,1,7,13)    =    -60.000026     0.000000     0.000000   -60.000026
	   57 D(2,1,7,14)     =    119.999974     0.000013     2.243995   122.243969
	   58 D(2,3,4,5)      =     -0.225875     0.000007     1.057893     0.832017
	   59 D(2,3,4,10)     =    179.774125     0.000006     0.765641   180.539765
	   60 D(3,2,1,6)      =     -0.223806     0.000000    -0.259701    -0.483507
	   61 D(3,2,1,7)      =    179.776196     0.000012     2.058868   181.835064
	   62 D(3,4,5,6)      =     -0.225874     0.000005     0.618486     0.392612
	   63 D(3,4,5,11)     =    179.146646     0.000010     1.382146   180.528792
	   64 D(4,3,2,8)      =    177.373058     0.000024     3.480738   180.853796
	   65 D(4,5,6,12)     =    177.373055     0.000020     2.913581   180.286636
	   66 D(5,4,3,9)      =    179.146646     0.000014     2.110452   181.257098
	   67 D(5,6,1,7)      =    179.776197    -0.000001    -0.402516   179.373681
	   68 D(6,1,2,8)      =   -177.126287    -0.000034    -4.996688  -182.122975
	   69 D(6,1,7,13)     =    119.999976     0.000012     2.293657   122.293633
	   70 D(6,1,7,14)     =    -60.000024     0.000025     4.537652   -55.462372
	   71 D(6,5,4,10)     =    179.774126     0.000006     0.910723   180.684849
	   72 D(7,1,2,8)      =      2.873714    -0.000021    -2.678119     0.195596
	   73 D(7,1,6,12)     =      2.873716    -0.000036    -5.429218    -2.555502
	   74 D(8,2,3,9)      =     -2.002503     0.000016     2.433617     0.431114
	   75 D(9,3,4,10)     =     -0.853354     0.000013     1.818200     0.964846
	   76 D(10,4,5,11)    =     -0.853354     0.000012     1.674382     0.821029
	   77 D(11,5,6,12)    =     -2.002504     0.000015     2.153764     0.151260
	   78 D(13,7,14,15)   =      6.269714    -0.000044    -5.317111     0.952603
	   79 D(13,7,14,16)   =   -169.237274    -0.000056    -6.746316  -175.983590
	   80 D(14,7,13,17)   =   -169.237219    -0.000069    -9.066681  -178.303900
	   81 D(14,7,13,18)   =      6.269705    -0.000057    -7.639731    -1.370026
	 ---------------------------------------------------------------------------
	Successfully symmetrized geometry.

  ==> Convergence Check <==

  Measures of convergence in internal coordinates in au.
  Criteria marked as inactive (o), active & met (*), and active & unmet ( ).
  --------------------------------------------------------------------------------------------- ~
   Step     Total Energy     Delta E     MAX Force     RMS Force      MAX Disp      RMS Disp    ~
  --------------------------------------------------------------------------------------------- ~
    Convergence Criteria    1.00e-06 *    3.00e-04 *             o    1.20e-03 *             o  ~
  --------------------------------------------------------------------------------------------- ~
      1    -381.46389332   -3.81e+02      4.79e-03      1.65e-03 o    1.58e-01      4.79e-02 o  ~
  ---------------------------------------------------------------------------------------------

	Writing optimization data to binary file.
	Structure for next step:
	Cartesian Geometry (in Angstrom)
	    C    -0.0188006407   0.0093972127  -0.1764567578
	    C     0.0046570504   1.2260293227   0.5234938907
	    C     0.0241295833   1.2121365319   1.9164601208
	    C     0.0038283065  -0.0033322806   2.6062700179
	    C    -0.0185784560  -1.2127179746   1.9059342429
	    C    -0.0125643304  -1.2141921252   0.5129605115
	    C     0.0015153416   0.0151210308  -1.6502441696
	    H     0.0344815396   2.1718551826  -0.0135097215
	    H     0.0620858300   2.1496041800   2.4624389216
	    H     0.0102750928  -0.0082113344   3.6918612928
	    H    -0.0429699806  -2.1551420580   2.4435937254
	    H    -0.0346963974  -2.1549532678  -0.0327272470
	    N    -0.9734036846   0.6219537390  -2.3156189590
	    N     0.9708840611  -0.6252546144  -2.2931904882
	    H     1.0268219990  -0.6731136306  -3.3102238001
	    H     1.6720803959  -1.1340419457  -1.7580503070
	    H    -1.6911350248   1.1284611169  -1.7994866610
	    H    -1.0186106857   0.6464009149  -3.3325046125
			--------------------------
			 OPTKING Finished Execution 
			--------------------------

    Structure for next step:
    Molecular point group: c1
    Full point group: C1

    Geometry (in Angstrom), charge = 1, multiplicity = 1:

    C           -0.018800640736     0.009397212747    -0.176456757804
    C            0.004657050387     1.226029322704     0.523493890738
    C            0.024129583267     1.212136531864     1.916460120811
    C            0.003828306535    -0.003332280566     2.606270017890
    C           -0.018578456031    -1.212717974640     1.905934242948
    C           -0.012564330413    -1.214192125208     0.512960511526
    C            0.001515341646     0.015121030786    -1.650244169650
    H            0.034481539580     2.171855182615    -0.013509721480
    H            0.062085830011     2.149604179971     2.462438921612
    H            0.010275092827    -0.008211334394     3.691861292801
    H           -0.042969980587    -2.155142058048     2.443593725398
    H           -0.034696397405    -2.154953267787    -0.032727246983
    N           -0.973403684574     0.621953738999    -2.315618958991
    N            0.970884061119    -0.625254614407    -2.293190488190
    H            1.026821998953    -0.673113630615    -3.310223800127
    H            1.672080395907    -1.134041945742    -1.758050306972
    H           -1.691135024776     1.128461116864    -1.799486661017
    H           -1.018610685710     0.646400914858    -3.332504612511

gradient() will perform analytic gradient computation.

*** tstart() called on oliva.prib.upf.edu
*** at Sat Sep 29 20:44:51 2018

   => Loading Basis Set <=

    Name: 6-31G*
    Role: ORBITAL
    Keyword: BASIS
    atoms 1-7         entry C          line   111 file /shared/joao/test_parameterize/miniconda3/share/psi4/basis/6-31gs.gbs 
    atoms 8-12, 15-18 entry H          line    44 file /shared/joao/test_parameterize/miniconda3/share/psi4/basis/6-31gs.gbs 
    atoms 13-14       entry N          line   128 file /shared/joao/test_parameterize/miniconda3/share/psi4/basis/6-31gs.gbs 


         ---------------------------------------------------------
                                   SCF
            by Justin Turney, Rob Parrish, Andy Simmonett
                             and Daniel Smith
                              RKS Reference
                        4 Threads,   2861 MiB Core
         ---------------------------------------------------------

  ==> Geometry <==

    Molecular point group: c1
    Full point group: C1

    Geometry (in Angstrom), charge = 1, multiplicity = 1:

       Center              X                  Y                   Z               Mass       
    ------------   -----------------  -----------------  -----------------  -----------------
         C           -0.018800640736     0.009397212747    -0.176456757804    12.000000000000
         C            0.004657050387     1.226029322704     0.523493890738    12.000000000000
         C            0.024129583267     1.212136531864     1.916460120811    12.000000000000
         C            0.003828306535    -0.003332280566     2.606270017890    12.000000000000
         C           -0.018578456031    -1.212717974640     1.905934242948    12.000000000000
         C           -0.012564330413    -1.214192125208     0.512960511526    12.000000000000
         C            0.001515341646     0.015121030786    -1.650244169650    12.000000000000
         H            0.034481539580     2.171855182615    -0.013509721480     1.007825032070
         H            0.062085830011     2.149604179971     2.462438921612     1.007825032070
         H            0.010275092827    -0.008211334394     3.691861292801     1.007825032070
         H           -0.042969980587    -2.155142058048     2.443593725398     1.007825032070
         H           -0.034696397405    -2.154953267787    -0.032727246983     1.007825032070
         N           -0.973403684574     0.621953738999    -2.315618958991    14.003074004780
         N            0.970884061119    -0.625254614407    -2.293190488190    14.003074004780
         H            1.026821998953    -0.673113630615    -3.310223800127     1.007825032070
         H            1.672080395907    -1.134041945742    -1.758050306972     1.007825032070
         H           -1.691135024776     1.128461116864    -1.799486661017     1.007825032070
         H           -1.018610685710     0.646400914858    -3.332504612511     1.007825032070

  Running in c1 symmetry.

  Rotational constants: A =      0.12177  B =      0.03828  C =      0.03231 [cm^-1]
  Rotational constants: A =   3650.70879  B =   1147.56116  C =    968.52195 [MHz]
  Nuclear repulsion =  416.435269956162131

  Charge       = 1
  Multiplicity = 1
  Electrons    = 64
  Nalpha       = 32
  Nbeta        = 32

  ==> Algorithm <==

  SCF Algorithm Type is DF.
  DIIS enabled.
  MOM disabled.
  Fractional occupation disabled.
  Guess Type is READ.
  Energy threshold   = 1.00e-08
  Density threshold  = 1.00e-08
  Integral threshold = 0.00e+00

  ==> Primary Basis <==

  Basis Set: 6-31G*
    Blend: 6-31G*
    Number of shells: 72
    Number of basis function: 153
    Number of Cartesian functions: 153
    Spherical Harmonics?: false
    Max angular momentum: 2

  ==> DFT Potential <==

   => Composite Functional: B3LYP-D3ZERO <= 

    B3LYP-d3zero Hyb-GGA Exchange-Correlation Functional

    P. J. Stephens, F. J. Devlin, C. F. Chabalowski, and M. J. Frisch, J. Phys. Chem. 98, 11623 (1994)

    Deriv               =              1
    GGA                 =           TRUE
    Meta                =          FALSE

    Exchange Hybrid     =           TRUE
    MP2 Hybrid          =          FALSE

   => Exchange Functionals <=

    0.0800   Slater exchange
    0.7200         Becke 88

   => Exact (HF) Exchange <=

    0.2000               HF 

   => Correlation Functionals <=

    0.1900   Vosko, Wilk & Nusair (VWN5_RPA)
    0.8100   Lee, Yang & Parr

   => Molecular Quadrature <=

    Radial Scheme       =       TREUTLER
    Pruning Scheme      =           FLAT
    Nuclear Scheme      =       TREUTLER

    BS radius alpha     =              1
    Pruning alpha       =              1
    Radial Points       =             75
    Spherical Points    =            302
    Total Points        =         397114
    Total Blocks        =           2987
    Max Points          =            256
    Max Functions       =            149

   => -D3ZERO: Empirical Dispersion <=

    Grimme's -D3 (zero-damping) Dispersion Correction
    Grimme S.; Antony J.; Ehrlich S.; Krieg H. (2010), J. Chem. Phys., 132: 154104

        S6 =   1.000000E+00
        S8 =   1.703000E+00
       SR6 =   1.261000E+00
       SR8 =   1.000000E+00
    ALPHA6 =   1.400000E+01

   => Loading Basis Set <=

    Name: (6-31G* AUX)
    Role: JKFIT
    Keyword: DF_BASIS_SCF
    atoms 1-7         entry C          line   121 file /shared/joao/test_parameterize/miniconda3/share/psi4/basis/cc-pvdz-jkfit.gbs 
    atoms 8-12, 15-18 entry H          line    51 file /shared/joao/test_parameterize/miniconda3/share/psi4/basis/cc-pvdz-jkfit.gbs 
    atoms 13-14       entry N          line   171 file /shared/joao/test_parameterize/miniconda3/share/psi4/basis/cc-pvdz-jkfit.gbs 

  Reading orbitals from file 180, no projection.

  ==> Pre-Iterations <==

   -------------------------------------------------------
    Irrep   Nso     Nmo     Nalpha   Nbeta   Ndocc  Nsocc
   -------------------------------------------------------
     A        153     153       0       0       0       0
   -------------------------------------------------------
    Total     153     153      32      32      32       0
   -------------------------------------------------------

  ==> Integral Setup <==

  ==> DiskDFJK: Density-Fitted J/K Matrices <==

    J tasked:                  Yes
    K tasked:                  Yes
    wK tasked:                  No
    OpenMP threads:              4
    Integrals threads:           4
    Memory (MB):              2002
    Algorithm:                Core
    Integral Cache:           NONE
    Schwarz Cutoff:          1E-12
    Fitting Condition:       1E-12

   => Auxiliary Basis Set <=

  Basis Set: (6-31G* AUX)
    Blend: CC-PVDZ-JKFIT
    Number of shells: 297
    Number of basis function: 954
    Number of Cartesian functions: 954
    Spherical Harmonics?: false
    Max angular momentum: 3

  Minimum eigenvalue in the overlap matrix is 4.8660089306E-04.
  Using Symmetric Orthogonalization.

  SCF Guess: Orbitals guess was supplied from a previous computation.

  ==> Iterations <==

                           Total Energy        Delta E     RMS |[F,P]|

   @DF-RKS iter   0:  -381.45161970481081   -3.81452e+02   1.28330e-03 
   @DF-RKS iter   1:  -381.46699745671737   -1.53778e-02   1.49079e-04 
   @DF-RKS iter   2:  -381.46700491841079   -7.46169e-06   1.74052e-04 DIIS
   @DF-RKS iter   3:  -381.46709827812100   -9.33597e-05   5.83433e-05 DIIS
   @DF-RKS iter   4:  -381.46710782372725   -9.54561e-06   2.30980e-05 DIIS
   @DF-RKS iter   5:  -381.46710930546726   -1.48174e-06   5.08085e-06 DIIS
   @DF-RKS iter   6:  -381.46710938412627   -7.86590e-08   1.39670e-06 DIIS
   @DF-RKS iter   7:  -381.46710938901140   -4.88512e-09   3.97451e-07 DIIS
   @DF-RKS iter   8:  -381.46710938939145   -3.80055e-10   1.72566e-07 DIIS
   @DF-RKS iter   9:  -381.46710938947086   -7.94103e-11   3.44400e-08 DIIS
   @DF-RKS iter  10:  -381.46710938947359   -2.72848e-12   8.82115e-09 DIIS

  ==> Post-Iterations <==

    Orbital Energies [Eh]
    ---------------------

    Doubly Occupied:                                                      

       1A    -14.573597     2A    -14.573446     3A    -10.500651  
       4A    -10.370846     5A    -10.352295     6A    -10.352280  
       7A    -10.337344     8A    -10.336815     9A    -10.336528  
      10A     -1.186843    11A     -1.094688    12A     -1.011459  
      13A     -0.924152    14A     -0.898244    15A     -0.844235  
      16A     -0.786489    17A     -0.769132    18A     -0.747802  
      19A     -0.729910    20A     -0.687707    21A     -0.667838  
      22A     -0.622138    23A     -0.620424    24A     -0.581895  
      25A     -0.575751    26A     -0.570248    27A     -0.516613  
      28A     -0.501331    29A     -0.494548    30A     -0.475463  
      31A     -0.407335    32A     -0.401731  

    Virtual:                                                              

      33A     -0.205027    34A     -0.154118    35A     -0.148655  
      36A     -0.112538    37A     -0.067590    38A     -0.066633  
      39A     -0.038780    40A     -0.034621    41A      0.007557  
      42A      0.016744    43A      0.022405    44A      0.057235  
      45A      0.061305    46A      0.075409    47A      0.135793  
      48A      0.145906    49A      0.161390    50A      0.170530  
      51A      0.200360    52A      0.231347    53A      0.294795  
      54A      0.344355    55A      0.357189    56A      0.383273  
      57A      0.387126    58A      0.398719    59A      0.410807  
      60A      0.425642    61A      0.447416    62A      0.447692  
      63A      0.450453    64A      0.468033    65A      0.474324  
      66A      0.478810    67A      0.484360    68A      0.509104  
      69A      0.513220    70A      0.537987    71A      0.541134  
      72A      0.573184    73A      0.595374    74A      0.649894  
      75A      0.658709    76A      0.678876    77A      0.679406  
      78A      0.697383    79A      0.706744    80A      0.709346  
      81A      0.729630    82A      0.756525    83A      0.777681  
      84A      0.795590    85A      0.812417    86A      0.833911  
      87A      0.851428    88A      0.938347    89A      0.970598  
      90A      1.002532    91A      1.009005    92A      1.027155  
      93A      1.035709    94A      1.074557    95A      1.147101  
      96A      1.194600    97A      1.215398    98A      1.281064  
      99A      1.294859   100A      1.320755   101A      1.322752  
     102A      1.342520   103A      1.358824   104A      1.376023  
     105A      1.431711   106A      1.448489   107A      1.491483  
     108A      1.591356   109A      1.638089   110A      1.648664  
     111A      1.670074   112A      1.738555   113A      1.760981  
     114A      1.794806   115A      1.828747   116A      1.854054  
     117A      1.899216   118A      1.911507   119A      1.961838  
     120A      1.981643   121A      2.000221   122A      2.010401  
     123A      2.041832   124A      2.095958   125A      2.123816  
     126A      2.136693   127A      2.154671   128A      2.169023  
     129A      2.225126   130A      2.263292   131A      2.369901  
     132A      2.375809   133A      2.419630   134A      2.450970  
     135A      2.497581   136A      2.563620   137A      2.567219  
     138A      2.591621   139A      2.599928   140A      2.629376  
     141A      2.727455   142A      2.884042   143A      2.946950  
     144A      3.260172   145A      3.632873   146A      3.644961  
     147A      3.934073   148A      3.962816   149A      3.968782  
     150A      4.085552   151A      4.182975   152A      4.259528  
     153A      4.548979  

    Final Occupation by Irrep:
              A 
    DOCC [    32 ]

  Energy converged.

  @DF-RKS Final Energy:  -381.46710938947359

   => Energetics <=

    Nuclear Repulsion Energy =            416.4352699561621307
    One-Electron Energy =               -1328.1641417476250808
    Two-Electron Energy =                 574.6698123406413288
    DFT Exchange-Correlation Energy =     -44.3961424186518911
    Empirical Dispersion Energy =          -0.0119075200000000
    VV10 Nonlocal Energy =                  0.0000000000000000
    Total Energy =                       -381.4671093894735918



Properties will be evaluated at   0.000000,   0.000000,   0.000000 [a0]

Properties computed using the SCF density matrix

  Nuclear Dipole Moment: [e a0]
     X:    -0.1780      Y:     0.2691      Z:    -0.1507

  Electronic Dipole Moment: [e a0]
     X:     0.1804      Y:    -0.2716      Z:    -2.2791

  Dipole Moment: [e a0]
     X:     0.0024      Y:    -0.0025      Z:    -2.4298     Total:     2.4298

  Dipole Moment: [D]
     X:     0.0061      Y:    -0.0063      Z:    -6.1759     Total:     6.1759


*** tstop() called on oliva.prib.upf.edu at Sat Sep 29 20:45:12 2018
Module time:
	user time   =      74.00 seconds =       1.23 minutes
	system time =       0.55 seconds =       0.01 minutes
	total time  =         21 seconds =       0.35 minutes
Total time:
	user time   =     202.13 seconds =       3.37 minutes
	system time =       1.70 seconds =       0.03 minutes
	total time  =         58 seconds =       0.97 minutes

*** tstart() called on oliva.prib.upf.edu
*** at Sat Sep 29 20:45:12 2018


         ------------------------------------------------------------
                                   SCF GRAD                          
                          Rob Parrish, Justin Turney,                
                       Andy Simmonett, and Alex Sokolov              
         ------------------------------------------------------------

  ==> Geometry <==

    Molecular point group: c1
    Full point group: C1

    Geometry (in Angstrom), charge = 1, multiplicity = 1:

       Center              X                  Y                   Z               Mass       
    ------------   -----------------  -----------------  -----------------  -----------------
         C           -0.018800640736     0.009397212747    -0.176456757804    12.000000000000
         C            0.004657050387     1.226029322704     0.523493890738    12.000000000000
         C            0.024129583267     1.212136531864     1.916460120811    12.000000000000
         C            0.003828306535    -0.003332280566     2.606270017890    12.000000000000
         C           -0.018578456031    -1.212717974640     1.905934242948    12.000000000000
         C           -0.012564330413    -1.214192125208     0.512960511526    12.000000000000
         C            0.001515341646     0.015121030786    -1.650244169650    12.000000000000
         H            0.034481539580     2.171855182615    -0.013509721480     1.007825032070
         H            0.062085830011     2.149604179971     2.462438921612     1.007825032070
         H            0.010275092827    -0.008211334394     3.691861292801     1.007825032070
         H           -0.042969980587    -2.155142058048     2.443593725398     1.007825032070
         H           -0.034696397405    -2.154953267787    -0.032727246983     1.007825032070
         N           -0.973403684574     0.621953738999    -2.315618958991    14.003074004780
         N            0.970884061119    -0.625254614407    -2.293190488190    14.003074004780
         H            1.026821998953    -0.673113630615    -3.310223800127     1.007825032070
         H            1.672080395907    -1.134041945742    -1.758050306972     1.007825032070
         H           -1.691135024776     1.128461116864    -1.799486661017     1.007825032070
         H           -1.018610685710     0.646400914858    -3.332504612511     1.007825032070

  Nuclear repulsion =  416.435269956162131

  ==> Basis Set <==

  Basis Set: 6-31G*
    Blend: 6-31G*
    Number of shells: 72
    Number of basis function: 153
    Number of Cartesian functions: 153
    Spherical Harmonics?: false
    Max angular momentum: 2

  ==> DFJKGrad: Density-Fitted SCF Gradients <==

    Gradient:                    1
    J tasked:                  Yes
    K tasked:                  Yes
    wK tasked:                  No
    OpenMP threads:              4
    Integrals threads:           4
    Memory (MB):              2002
    Schwarz Cutoff:          0E+00
    Fitting Condition:       1E-12

   => Auxiliary Basis Set <=

  Basis Set: (6-31G* AUX)
    Blend: CC-PVDZ-JKFIT
    Number of shells: 297
    Number of basis function: 954
    Number of Cartesian functions: 954
    Spherical Harmonics?: false
    Max angular momentum: 3

  ==> DFT Potential <==

   => Composite Functional: B3LYP-D3ZERO <= 

    B3LYP-d3zero Hyb-GGA Exchange-Correlation Functional

    P. J. Stephens, F. J. Devlin, C. F. Chabalowski, and M. J. Frisch, J. Phys. Chem. 98, 11623 (1994)

    Deriv               =              1
    GGA                 =           TRUE
    Meta                =          FALSE

    Exchange Hybrid     =           TRUE
    MP2 Hybrid          =          FALSE

   => Exchange Functionals <=

    0.0800   Slater exchange
    0.7200         Becke 88

   => Exact (HF) Exchange <=

    0.2000               HF 

   => Correlation Functionals <=

    0.1900   Vosko, Wilk & Nusair (VWN5_RPA)
    0.8100   Lee, Yang & Parr

   => Molecular Quadrature <=

    Radial Scheme       =       TREUTLER
    Pruning Scheme      =           FLAT
    Nuclear Scheme      =       TREUTLER

    BS radius alpha     =              1
    Pruning alpha       =              1
    Radial Points       =             75
    Spherical Points    =            302
    Total Points        =         397114
    Total Blocks        =           2987
    Max Points          =            256
    Max Functions       =            149


  -Total Gradient:
     Atom            X                  Y                   Z
    ------   -----------------  -----------------  -----------------
       1       -0.003803070408    -0.000861908400    -0.001549097409
       2        0.002659910376    -0.001474840739     0.000703150251
       3        0.000108256008    -0.000124531488    -0.000402868451
       4       -0.000164424418    -0.000196927942     0.000340678278
       5        0.000032885948     0.000109411694    -0.000063646310
       6       -0.000845748442     0.000997079237     0.000762884877
       7        0.002952796908     0.004574914067     0.002854536823
       8        0.000009848372     0.000938985773    -0.000282563963
       9        0.000239643829     0.000145513768     0.000123584476
      10        0.000038726707    -0.000004879495     0.000040808461
      11       -0.000224689244     0.000002830140     0.000025570213
      12        0.000333317988    -0.000742659073    -0.000297225693
      13        0.000108924138    -0.006610934423    -0.000331948799
      14       -0.000725284038     0.003950024371     0.000535257225
      15        0.000515809028     0.001536505550    -0.004900581516
      16        0.002021244498    -0.004537744220     0.002991001583
      17       -0.002874264448     0.004316829314     0.003022344979
      18       -0.000389744087    -0.002012445578    -0.003568350244


*** tstop() called on oliva.prib.upf.edu at Sat Sep 29 20:45:19 2018
Module time:
	user time   =      27.78 seconds =       0.46 minutes
	system time =       0.31 seconds =       0.01 minutes
	total time  =          7 seconds =       0.12 minutes
Total time:
	user time   =     229.99 seconds =       3.83 minutes
	system time =       2.01 seconds =       0.03 minutes
	total time  =         65 seconds =       1.08 minutes

			-----------------------------------------
			 OPTKING 2.0: for geometry optimizations 
			  - R.A. King,  Bethel University        
			-----------------------------------------
	At level 1: Red. Int., RFO, no backsteps, dynamic trust

	Previous internal coordinate definitions found.
	---Fragment 1 Geometry and Gradient---
	 C          -0.0355280621        0.0177581585       -0.3334549465
	 C           0.0088005498        2.3168596508        0.9892600857
	 C           0.0455983041        2.2906060809        3.6215847729
	 C           0.0072344509       -0.0062970977        4.9251365622
	 C          -0.0351081939       -2.2917048485        3.6016937465
	 C          -0.0237431435       -2.2944905893        0.9693548838
	 C           0.0028635807        0.0285746070       -3.1185095330
	 H           0.0651606664        4.1042114954       -0.0255296737
	 H           0.1173252155        4.0621631943        4.6533351808
	 H           0.0194171114       -0.0155171732        6.9766067640
	 H          -0.0812014952       -4.0726282672        4.6177229210
	 H          -0.0655666889       -4.0722715053       -0.0618455339
	 N          -1.8394663806        1.1753222340       -4.3758856606
	 N           1.8347049823       -1.1815599846       -4.3335019932
	 H           1.9404123652       -1.2720004182       -6.2554164208
	 H           3.1597740204       -2.1430287007       -3.3222336080
	 H          -3.1957820506        2.1324824625       -3.4005369691
	 H          -1.9248952320        1.2215207011       -6.2975210542
	            -0.0038030704       -0.0008619084       -0.0015490974
	             0.0026599104       -0.0014748407        0.0007031503
	             0.0001082560       -0.0001245315       -0.0004028685
	            -0.0001644244       -0.0001969279        0.0003406783
	             0.0000328859        0.0001094117       -0.0000636463
	            -0.0008457484        0.0009970792        0.0007628849
	             0.0029527969        0.0045749141        0.0028545368
	             0.0000098484        0.0009389858       -0.0002825640
	             0.0002396438        0.0001455138        0.0001235845
	             0.0000387267       -0.0000048795        0.0000408085
	            -0.0002246892        0.0000028301        0.0000255702
	             0.0003333180       -0.0007426591       -0.0002972257
	             0.0001089241       -0.0066109344       -0.0003319488
	            -0.0007252840        0.0039500244        0.0005352572
	             0.0005158090        0.0015365055       -0.0049005815
	             0.0020212445       -0.0045377442        0.0029910016
	            -0.0028742644        0.0043168293        0.0030223450
	            -0.0003897441       -0.0020124456       -0.0035683502

	---Fragment 1 Intrafragment Coordinates---
	 - Coordinate -           - BOHR/RAD -       - ANG/DEG -
	 R(1,2)           =         2.652811	       1.403807
	 R(1,6)           =         2.654043	       1.404459
	 R(1,7)           =         2.785340	       1.473939
	 R(2,3)           =         2.632713	       1.393172
	 R(2,8)           =         2.056113	       1.088048
	 R(3,4)           =         2.641303	       1.397718
	 R(3,9)           =         2.051358	       1.085532
	 R(4,5)           =         2.641284	       1.397707
	 R(4,10)          =         2.051527	       1.085621
	 R(5,6)           =         2.632365	       1.392987
	 R(5,11)          =         2.050885	       1.085281
	 R(6,12)          =         2.055633	       1.087794
	 R(7,13)          =         2.508028	       1.327191
	 R(7,14)          =         2.509238	       1.327832
	 R(13,17)         =         1.925371	       1.018862
	 R(13,18)         =         1.924088	       1.018184
	 R(14,15)         =         1.926943	       1.019694
	 R(14,16)         =         1.924290	       1.018291
	 B(1,2,3)         =         2.083031	     119.348890
	 B(1,2,8)         =         2.103370	     120.514216
	 B(1,6,5)         =         2.082807	     119.336070
	 B(1,6,12)        =         2.102637	     120.472255
	 B(1,7,13)        =         2.086262	     119.533987
	 B(1,7,14)        =         2.085581	     119.495008
	 B(2,1,6)         =         2.106242	     120.678788
	 B(2,1,7)         =         2.088587	     119.667230
	 B(2,3,4)         =         2.096616	     120.127241
	 B(2,3,9)         =         2.088358	     119.654088
	 B(3,2,8)         =         2.096429	     120.116530
	 B(3,4,5)         =         2.100628	     120.357141
	 B(3,4,10)        =         2.091320	     119.823793
	 B(4,3,9)         =         2.098188	     120.217315
	 B(4,5,6)         =         2.096593	     120.125907
	 B(4,5,11)        =         2.098439	     120.231674
	 B(5,4,10)        =         2.091226	     119.818422
	 B(5,6,12)        =         2.097248	     120.163450
	 B(6,1,7)         =         2.087652	     119.613654
	 B(6,5,11)        =         2.088152	     119.642280
	 B(7,13,17)       =         2.083805	     119.393255
	 B(7,13,18)       =         2.146344	     122.976475
	 B(7,14,15)       =         2.147934	     123.067563
	 B(7,14,16)       =         2.081977	     119.288501
	 B(13,7,14)       =         2.110665	     120.932206
	 B(15,14,16)      =         2.052095	     117.576384
	 B(17,13,18)      =         2.051855	     117.562625
	 D(1,2,3,4)       =        -0.013597	      -0.779030
	 D(1,2,3,9)       =         3.120619	     178.798288
	 D(1,6,5,4)       =        -0.028562	      -1.636473
	 D(1,6,5,11)      =         3.110668	     178.228151
	 D(1,7,13,17)     =         0.069344	       3.973134
	 D(1,7,13,18)     =        -3.125762	    -179.092992
	 D(1,7,14,15)     =         3.118492	     178.676447
	 D(1,7,14,16)     =         0.030373	       1.740253
	 D(2,1,6,5)       =         0.029514	       1.691017
	 D(2,1,6,12)      =         3.137436	     179.761835
	*D(2,1,7,13)      =        -1.047198	     -60.000026
	 D(2,1,7,14)      =         2.133560	     122.243969
	 D(2,3,4,5)       =         0.014521	       0.832017
	 D(2,3,4,10)      =        -3.132172	    -179.460235
	 D(3,2,1,6)       =        -0.008439	      -0.483507
	 D(3,2,1,7)       =        -3.109565	    -178.164936
	 D(3,4,5,6)       =         0.006852	       0.392612
	 D(3,4,5,11)      =        -3.132363	    -179.471208
	 D(4,3,2,8)       =        -3.126691	    -179.146204
	 D(4,5,6,12)      =        -3.136590	    -179.713364
	 D(5,4,3,9)       =        -3.119652	    -178.742902
	 D(5,6,1,7)       =         3.130661	     179.373681
	 D(6,1,2,8)       =         3.104540	     177.877025
	 D(6,1,7,13)      =         2.134427	     122.293633
	 D(6,1,7,14)      =        -0.968001	     -55.462372
	 D(6,5,4,10)      =        -3.129640	    -179.315151
	 D(7,1,2,8)       =         0.003414	       0.195596
	 D(7,1,6,12)      =        -0.044602	      -2.555502
	 D(8,2,3,9)       =         0.007524	       0.431114
	 D(9,3,4,10)      =         0.016840	       0.964846
	 D(10,4,5,11)     =         0.014330	       0.821029
	 D(11,5,6,12)     =         0.002640	       0.151260
	 D(13,7,14,15)    =         0.016626	       0.952603
	 D(13,7,14,16)    =        -3.071493	    -175.983590
	 D(14,7,13,17)    =        -3.111990	    -178.303900
	 D(14,7,13,18)    =        -0.023911	      -1.370026

	Current energy   :      -381.4671093895

	Energy change for the previous step:
		Projected    :        -0.0005203182
		Actual       :        -0.0032160684
	Energy ratio indicates good step: Trust radius increased to 1.000e+00.


	Performing BFGS update.
	Previous computed or guess Hessian on step 1.
	Steps to be used in Hessian update: 1
	Taking RFO optimization step.
	Going to follow RFO solution 1.
	Using RFO vector 1.
	Norm of target step-size    0.32172
	Projected energy change by RFO approximation:        -0.0021183077

	Back-transformation to cartesian coordinates...
	Could not converge backtransformation.
	Using first guess instead.

	Back-transformation to cartesian coordinates to adjust frozen coordinates...
	Successfully converged to displaced geometry.

	--- Internal Coordinate Step in ANG or DEG, aJ/ANG or AJ/DEG ---
	 ---------------------------------------------------------------------------
	   Coordinate                Previous        Force       Change         New 
	   ----------                --------       ------       ------       ------
	    1 R(1,2)          =      1.403807     0.000624    -0.000304     1.403504
	    2 R(1,6)          =      1.404459    -0.001793    -0.000434     1.404025
	    3 R(1,7)          =      1.473939     0.004728     0.002374     1.476312
	    4 R(2,3)          =      1.393172    -0.000087     0.000360     1.393532
	    5 R(2,8)          =      1.088048    -0.007876    -0.001314     1.086734
	    6 R(3,4)          =      1.397718    -0.000293    -0.000050     1.397667
	    7 R(3,9)          =      1.085532    -0.001615    -0.000209     1.085322
	    8 R(4,5)          =      1.397707     0.001950     0.000332     1.398040
	    9 R(4,10)         =      1.085621    -0.000337    -0.000028     1.085593
	   10 R(5,6)          =      1.392987    -0.000448     0.000341     1.393328
	   11 R(5,11)         =      1.085281    -0.000125     0.000138     1.085419
	   12 R(6,12)         =      1.087794    -0.006465    -0.001057     1.086737
	   13 R(7,13)         =      1.327191    -0.006479    -0.001097     1.326094
	   14 R(7,14)         =      1.327832    -0.012634    -0.001668     1.326163
	   15 R(13,17)        =      1.018862    -0.046964    -0.002611     1.016252
	   16 R(13,18)        =      1.018184    -0.029110     0.000889     1.019072
	   17 R(14,15)        =      1.019694    -0.039907    -0.002138     1.017557
	   18 R(14,16)        =      1.018291    -0.043106    -0.000086     1.018204
	   19 B(1,2,3)        =    119.348890    -0.000022    -0.124276   119.224614
	   20 B(1,2,8)        =    120.514216    -0.000006    -0.063171   120.451045
	   21 B(1,6,5)        =    119.336070    -0.000028    -0.163457   119.172613
	   22 B(1,6,12)       =    120.472255     0.000005    -0.037547   120.434707
	   23 B(1,7,13)       =    119.533987    -0.000070    -0.340371   119.193616
	   24 B(1,7,14)       =    119.495008    -0.000065    -0.355058   119.139950
	   25 B(2,1,6)        =    120.678788     0.000047     0.242735   120.921523
	   26 B(2,1,7)        =    119.667230    -0.000033    -0.205527   119.461703
	   27 B(2,3,4)        =    120.127241    -0.000015    -0.054842   120.072399
	   28 B(2,3,9)        =    119.654088     0.000005     0.012327   119.666416
	   29 B(3,2,8)        =    120.116530     0.000028     0.195719   120.312249
	   30 B(3,4,5)        =    120.357141     0.000025     0.110663   120.467804
	   31 B(3,4,10)       =    119.823793    -0.000013    -0.053821   119.769973
	   32 B(4,3,9)        =    120.217315     0.000010     0.040221   120.257535
	   33 B(4,5,6)        =    120.125907    -0.000007    -0.020172   120.105735
	   34 B(4,5,11)       =    120.231674     0.000005     0.021284   120.252957
	   35 B(5,4,10)       =    119.818422    -0.000012    -0.056819   119.761603
	   36 B(5,6,12)       =    120.163450     0.000023     0.187619   120.351069
	   37 B(6,1,7)        =    119.613654    -0.000015    -0.160460   119.453194
	   38 B(6,5,11)       =    119.642280     0.000002    -0.001123   119.641157
	   39 B(7,13,17)      =    119.393255    -0.000019    -0.491414   118.901841
	   40 B(7,13,18)      =    122.976475     0.000077     0.429368   123.405842
	   41 B(7,14,15)      =    123.067563     0.000056     0.392056   123.459619
	   42 B(7,14,16)      =    119.288501     0.000002    -0.419534   118.868967
	   43 B(13,7,14)      =    120.932206     0.000134     0.694577   121.626783
	   44 B(15,14,16)     =    117.576384    -0.000055     0.094677   117.671061
	   45 B(17,13,18)     =    117.562625    -0.000058     0.071234   117.633858
	   46 D(1,2,3,4)      =     -0.779030     0.000005     1.119004     0.339973
	   47 D(1,2,3,9)      =    178.798288     0.000004     0.848559   179.646847
	   48 D(1,6,5,4)      =     -1.636473     0.000002     0.176007    -1.460466
	   49 D(1,6,5,11)     =    178.228151     0.000002     0.170637   178.398788
	   50 D(1,7,13,17)    =      3.973134    -0.000028    -5.964133    -1.991000
	   51 D(1,7,13,18)    =   -179.092992    -0.000027    -5.747587  -184.840579
	   52 D(1,7,14,15)    =    178.676447    -0.000022    -4.953495   173.722952
	   53 D(1,7,14,16)    =      1.740253    -0.000036    -7.796102    -6.055849
	   54 D(2,1,6,5)      =      1.691017     0.000002     0.632179     2.323196
	   55 D(2,1,6,12)     =    179.761835     0.000001     0.223600   179.985435
	   56 *D(2,1,7,13)    =    -60.000026     0.000000     0.000000   -60.000026
	   57 D(2,1,7,14)     =    122.243969    -0.000001     0.008474   122.252444
	   58 D(2,3,4,5)      =      0.832017    -0.000002    -0.331844     0.500173
	   59 D(2,3,4,10)     =   -179.460235    -0.000002    -0.326698  -179.786932
	   60 D(3,2,1,6)      =     -0.483507    -0.000005    -1.279795    -1.763302
	   61 D(3,2,1,7)      =   -178.164936     0.000003     1.075676  -177.089260
	   62 D(3,4,5,6)      =      0.392612    -0.000001    -0.323346     0.069266
	   63 D(3,4,5,11)     =   -179.471208    -0.000001    -0.317912  -179.789120
	   64 D(4,3,2,8)      =   -179.146204     0.000003     0.745320  -178.400885
	   65 D(4,5,6,12)     =   -179.713364     0.000002     0.588656  -179.124707
	   66 D(5,4,3,9)      =   -178.742902    -0.000001    -0.059664  -178.802566
	   67 D(5,6,1,7)      =    179.373681    -0.000007    -1.724134   177.649547
	   68 D(6,1,2,8)      =    177.877025    -0.000002    -0.901259   176.975766
	   69 D(6,1,7,13)     =    122.293633     0.000008     2.311065   124.604698
	   70 D(6,1,7,14)     =    -55.462372     0.000007     2.319539   -53.142833
	   71 D(6,5,4,10)     =   -179.315151    -0.000002    -0.328501  -179.643653
	   72 D(7,1,2,8)      =      0.195596     0.000006     1.454212     1.649808
	   73 D(7,1,6,12)     =     -2.555502    -0.000007    -2.132712    -4.688214
	   74 D(8,2,3,9)      =      0.431114     0.000002     0.474875     0.905989
	   75 D(9,3,4,10)     =      0.964846    -0.000001    -0.054517     0.910329
	   76 D(10,4,5,11)    =      0.821029    -0.000002    -0.323067     0.497962
	   77 D(11,5,6,12)    =      0.151260     0.000002     0.583286     0.734547
	   78 D(13,7,14,15)   =      0.952603    -0.000022    -4.920291    -3.967688
	   79 D(13,7,14,16)   =   -175.983590    -0.000036    -7.762898  -183.746488
	   80 D(14,7,13,17)   =   -178.303900    -0.000027    -5.997669  -184.301569
	   81 D(14,7,13,18)   =     -1.370026    -0.000026    -5.781122    -7.151148
	 ---------------------------------------------------------------------------
	Successfully symmetrized geometry.

  ==> Convergence Check <==

  Measures of convergence in internal coordinates in au.
  Criteria marked as inactive (o), active & met (*), and active & unmet ( ).
  ---------------------------------------------------------------------------------------------
   Step     Total Energy     Delta E     MAX Force     RMS Force      MAX Disp      RMS Disp   
  ---------------------------------------------------------------------------------------------
    Convergence Criteria    1.00e-06 *    3.00e-04 *             o    1.20e-03 *             o
  ---------------------------------------------------------------------------------------------
      2    -381.46710939   -3.22e-03      5.70e-03      1.28e-03 o    1.36e-01      3.57e-02 o  ~
  ---------------------------------------------------------------------------------------------

	Writing optimization data to binary file.
	Structure for next step:
	Cartesian Geometry (in Angstrom)
	    C    -0.0450480211   0.0071557301  -0.1778301344
	    C    -0.0044390351   1.2249279037   0.5187356836
	    C     0.0214737047   1.2112782530   1.9119597560
	    C     0.0141529114  -0.0048874497   2.6006981091
	    C    -0.0085899650  -1.2153527816   1.9015760575
	    C    -0.0227127444  -1.2175826857   0.5083209803
	    C    -0.0073855816   0.0132120723  -1.6536496564
	    H     0.0273077579   2.1674885710  -0.0212294351
	    H     0.0587281217   2.1486422240   2.4577487562
	    H     0.0309323310  -0.0097365596   3.6861508363
	    H    -0.0176613370  -2.1577619128   2.4400165106
	    H    -0.0547244623  -2.1558820248  -0.0390068256
	    N    -0.9643967379   0.6419082629  -2.3225273481
	    N     0.9578003294  -0.6483507485  -2.2777169070
	    H     0.9951767998  -0.7656176853  -3.2878024834
	    H     1.7033846315  -1.0672876426  -1.7251447581
	    H    -1.7200739474   1.0801175249  -1.8032086437
	    H    -0.9639247557   0.7477289489  -3.3360904979
			--------------------------
			 OPTKING Finished Execution 
			--------------------------

    Structure for next step:
    Molecular point group: c1
    Full point group: C1

    Geometry (in Angstrom), charge = 1, multiplicity = 1:

    C           -0.045048021070     0.007155730050    -0.177830134419
    C           -0.004439035149     1.224927903733     0.518735683572
    C            0.021473704747     1.211278253009     1.911959756020
    C            0.014152911447    -0.004887449725     2.600698109083
    C           -0.008589965009    -1.215352781586     1.901576057517
    C           -0.022712744392    -1.217582685741     0.508320980330
    C           -0.007385581615     0.013212072294    -1.653649656353
    H            0.027307757867     2.167488570996    -0.021229435140
    H            0.058728121707     2.148642223977     2.457748756196
    H            0.030932331035    -0.009736559613     3.686150836330
    H           -0.017661337035    -2.157761912821     2.440016510622
    H           -0.054724462331    -2.155882024800    -0.039006825635
    N           -0.964396737864     0.641908262876    -2.322527348094
    N            0.957800329432    -0.648350748532    -2.277716906979
    H            0.995176799793    -0.765617685344    -3.287802483360
    H            1.703384631463    -1.067287642556    -1.725144758114
    H           -1.720073947352     1.080117524856    -1.803208643686
    H           -0.963924755675     0.747728948927    -3.336090497890

gradient() will perform analytic gradient computation.

*** tstart() called on oliva.prib.upf.edu
*** at Sat Sep 29 20:45:19 2018

   => Loading Basis Set <=

    Name: 6-31G*
    Role: ORBITAL
    Keyword: BASIS
    atoms 1-7         entry C          line   111 file /shared/joao/test_parameterize/miniconda3/share/psi4/basis/6-31gs.gbs 
    atoms 8-12, 15-18 entry H          line    44 file /shared/joao/test_parameterize/miniconda3/share/psi4/basis/6-31gs.gbs 
    atoms 13-14       entry N          line   128 file /shared/joao/test_parameterize/miniconda3/share/psi4/basis/6-31gs.gbs 


         ---------------------------------------------------------
                                   SCF
            by Justin Turney, Rob Parrish, Andy Simmonett
                             and Daniel Smith
                              RKS Reference
                        4 Threads,   2861 MiB Core
         ---------------------------------------------------------

  ==> Geometry <==

    Molecular point group: c1
    Full point group: C1

    Geometry (in Angstrom), charge = 1, multiplicity = 1:

       Center              X                  Y                   Z               Mass       
[...]
	            -0.0000042359       -0.0000030179        0.0000006435
	            -0.0000029593       -0.0000012214        0.0000021511
	             0.0000003465        0.0000002395        0.0000003071
	             0.0000044494        0.0000003671        0.0000011767
	            -0.0000015423        0.0000017407        0.0000018223
	            -0.0025373757       -0.0039337325       -0.0000901350
	            -0.0000050588        0.0000386672        0.0000075428
	            -0.0000073639       -0.0000099562       -0.0000086920
	             0.0000085028       -0.0000088521       -0.0000021449
	            -0.0000058134        0.0000031278       -0.0000020827
	            -0.0000034925        0.0000068225       -0.0000148258

	---Fragment 1 Intrafragment Coordinates---
	 - Coordinate -           - BOHR/RAD -       - ANG/DEG -
	 R(1,2)           =         2.654622	       1.404765
	 R(1,6)           =         2.655213	       1.405078
	 R(1,7)           =         2.784367	       1.473424
	 R(2,3)           =         2.632370	       1.392990
	 R(2,8)           =         2.053137	       1.086474
	 R(3,4)           =         2.641310	       1.397721
	 R(3,9)           =         2.050772	       1.085222
	 R(4,5)           =         2.642517	       1.398360
	 R(4,10)          =         2.051573	       1.085646
	 R(5,6)           =         2.631458	       1.392508
	 R(5,11)          =         2.050820	       1.085247
	 R(6,12)          =         2.052993	       1.086397
	 R(7,13)          =         2.507347	       1.326831
	 R(7,14)          =         2.507075	       1.326687
	 R(13,17)         =         1.912920	       1.012274
	 R(13,18)         =         1.916527	       1.014182
	 R(14,15)         =         1.916481	       1.014158
	 R(14,16)         =         1.912827	       1.012225
	 B(1,2,3)         =         2.082274	     119.305520
	 B(1,2,8)         =         2.100603	     120.355659
	 B(1,6,5)         =         2.081261	     119.247484
	 B(1,6,12)        =         2.100259	     120.335984
	 B(1,7,13)        =         2.083554	     119.378856
	 B(1,7,14)        =         2.083069	     119.351058
	 B(2,1,6)         =         2.108027	     120.781047
	 B(2,1,7)         =         2.083950	     119.401562
	 B(2,3,4)         =         2.095006	     120.035003
	 B(2,3,9)         =         2.089598	     119.725159
	 B(3,2,8)         =         2.100150	     120.329710
	 B(3,4,5)         =         2.103252	     120.507458
	 B(3,4,10)        =         2.090129	     119.755553
	 B(4,3,9)         =         2.098546	     120.237839
	 B(4,5,6)         =         2.095804	     120.080746
	 B(4,5,11)        =         2.098070	     120.210576
	 B(5,4,10)        =         2.089793	     119.736292
	 B(5,6,12)        =         2.100960	     120.376115
	 B(6,1,7)         =         2.087754	     119.619484
	 B(6,5,11)        =         2.089309	     119.708591
	 B(7,13,17)       =         2.081852	     119.281361
	 B(7,13,18)       =         2.153607	     123.392566
	 B(7,14,15)       =         2.152248	     123.314734
	 B(7,14,16)       =         2.082295	     119.306724
	 B(13,7,14)       =         2.115273	     121.196220
	 B(15,14,16)      =         2.048068	     117.345656
	 B(17,13,18)      =         2.047175	     117.294475
	 D(1,2,3,4)       =         0.000624	       0.035739
	 D(1,2,3,9)       =         3.133262	     179.522704
	 D(1,6,5,4)       =        -0.032382	      -1.855361
	 D(1,6,5,11)      =         3.111084	     178.252004
	 D(1,7,13,17)     =        -0.054969	      -3.149507
	 D(1,7,13,18)     =         3.049936	     174.748482
	 D(1,7,14,15)     =         3.032762	     173.764475
	 D(1,7,14,16)     =        -0.146237	      -8.378738
	 D(2,1,6,5)       =         0.044499	       2.549596
	 D(2,1,6,12)      =        -3.137296	    -179.753805
	*D(2,1,7,13)      =        -1.047198	     -60.000026
	 D(2,1,7,14)      =         2.148278	     123.087276
	 D(2,3,4,5)       =         0.011199	       0.641672
	 D(2,3,4,10)      =        -3.135710	    -179.662933
	 D(3,2,1,6)       =        -0.028614	      -1.639487
	 D(3,2,1,7)       =        -3.080646	    -176.508011
	 D(3,4,5,6)       =         0.004927	       0.282291
	 D(3,4,5,11)      =        -3.138549	    -179.825618
	 D(4,3,2,8)       =        -3.121875	    -178.870267
	 D(4,5,6,12)      =        -3.133756	    -179.551014
	 D(5,4,3,9)       =        -3.121393	    -178.842638
	 D(5,6,1,7)       =         3.096337	     177.407031
	 D(6,1,2,8)       =         3.093879	     177.266229
	 D(6,1,7,13)      =         2.182902	     125.071097
	 D(6,1,7,14)      =        -0.904807	     -51.841602
	 D(6,5,4,10)      =        -3.131350	    -179.413163
	 D(7,1,2,8)       =         0.041848	       2.397705
	 D(7,1,6,12)      =        -0.085458	      -4.896371
	 D(8,2,3,9)       =         0.010763	       0.616698
	 D(9,3,4,10)      =         0.014883	       0.852757
	 D(10,4,5,11)     =         0.008359	       0.478928
	 D(11,5,6,12)     =         0.009710	       0.556351
	 D(13,7,14,15)    =        -0.053938	      -3.090431
	 D(13,7,14,16)    =         3.050248	     174.766355
	 D(14,7,13,17)    =         3.031716	     173.704541
	 D(14,7,13,18)    =        -0.146564	      -8.397470

	Current energy   :      -381.4681365370

	Energy change for the previous step:
		Projected    :        -0.0000002976
		Actual       :        -0.0000001713

	Performing BFGS update.
	Previous computed or guess Hessian on step 1.
	Steps to be used in Hessian update: 6 5
	Taking RFO optimization step.
	Going to follow RFO solution 1.
	Rejecting RFO root 1 because normalization gives large value.
	Rejecting RFO root 2 because normalization gives large value.
	Using RFO vector 3.
	Norm of target step-size    0.00196
	Projected energy change by RFO approximation:        -0.0000000332

	Back-transformation to cartesian coordinates...
	Successfully converged to displaced geometry.

	Back-transformation to cartesian coordinates to adjust frozen coordinates...
	Successfully converged to displaced geometry.

	--- Internal Coordinate Step in ANG or DEG, aJ/ANG or AJ/DEG ---
	 ---------------------------------------------------------------------------
	   Coordinate                Previous        Force       Change         New 
	   ----------                --------       ------       ------       ------
	    1 R(1,2)          =      1.404765    -0.000034     0.000002     1.404767
	    2 R(1,6)          =      1.405078    -0.000040     0.000000     1.405079
	    3 R(1,7)          =      1.473424     0.000129     0.000004     1.473427
	    4 R(2,3)          =      1.392990     0.000005    -0.000003     1.392987
	    5 R(2,8)          =      1.086474     0.000026     0.000006     1.086479
	    6 R(3,4)          =      1.397721    -0.000009    -0.000000     1.397721
	    7 R(3,9)          =      1.085222     0.000003     0.000000     1.085222
	    8 R(4,5)          =      1.398360    -0.000010     0.000004     1.398363
	    9 R(4,10)         =      1.085646    -0.000001    -0.000001     1.085645
	   10 R(5,6)          =      1.392508     0.000002    -0.000005     1.392503
	   11 R(5,11)         =      1.085247    -0.000003    -0.000000     1.085247
	   12 R(6,12)         =      1.086397     0.000018     0.000003     1.086400
	   13 R(7,13)         =      1.326831    -0.000067    -0.000002     1.326829
	   14 R(7,14)         =      1.326687     0.000056     0.000017     1.326704
	   15 R(13,17)        =      1.012274    -0.000021     0.000005     1.012279
	   16 R(13,18)        =      1.014182    -0.000133    -0.000008     1.014174
	   17 R(14,15)        =      1.014158    -0.000075    -0.000005     1.014153
	   18 R(14,16)        =      1.012225    -0.000088    -0.000002     1.012223
	   19 B(1,2,3)        =    119.305520    -0.000000     0.000095   119.305616
	   20 B(1,2,8)        =    120.355659     0.000000     0.000271   120.355930
	   21 B(1,6,5)        =    119.247484    -0.000000    -0.000482   119.247002
	   22 B(1,6,12)       =    120.335984    -0.000000    -0.001327   120.334656
	   23 B(1,7,13)       =    119.378856    -0.000000    -0.001019   119.377836
	   24 B(1,7,14)       =    119.351058    -0.000001    -0.003371   119.347686
	   25 B(2,1,6)        =    120.781047     0.000000     0.000135   120.781181
	   26 B(2,1,7)        =    119.401562    -0.000000    -0.000991   119.400570
	   27 B(2,3,4)        =    120.035003     0.000000    -0.000022   120.034981
	   28 B(2,3,9)        =    119.725159    -0.000000    -0.000454   119.724705
	   29 B(3,2,8)        =    120.329710    -0.000000    -0.000227   120.329483
	   30 B(3,4,5)        =    120.507458    -0.000000    -0.000423   120.507035
	   31 B(3,4,10)       =    119.755553     0.000000     0.000562   119.756115
	   32 B(4,3,9)        =    120.237839     0.000000     0.000488   120.238328
	   33 B(4,5,6)        =    120.080746     0.000000     0.000753   120.081499
	   34 B(4,5,11)       =    120.210576     0.000000    -0.000116   120.210460
	   35 B(5,4,10)       =    119.736292     0.000000    -0.000155   119.736137
	   36 B(5,6,12)       =    120.376115     0.000000     0.001575   120.377690
	   37 B(6,1,7)        =    119.619484     0.000000     0.001621   119.621105
	   38 B(6,5,11)       =    119.708591    -0.000000    -0.000606   119.707984
	   39 B(7,13,17)      =    119.281361    -0.000000    -0.001901   119.279460
	   40 B(7,13,18)      =    123.392566    -0.000000    -0.000215   123.392350
	   41 B(7,14,15)      =    123.314734     0.000000     0.000418   123.315152
	   42 B(7,14,16)      =    119.306724    -0.000001    -0.004526   119.302198
	   43 B(13,7,14)      =    121.196220     0.000001     0.002682   121.198901
	   44 B(15,14,16)     =    117.345656     0.000000     0.001637   117.347293
	   45 B(17,13,18)     =    117.294475     0.000000     0.001964   117.296439
	   46 D(1,2,3,4)      =      0.035739     0.000000     0.005944     0.041683
	   47 D(1,2,3,9)      =    179.522704     0.000000     0.007612   179.530317
	   48 D(1,6,5,4)      =     -1.855361     0.000000     0.009982    -1.845379
	   49 D(1,6,5,11)     =    178.252004     0.000000    -0.011404   178.240599
	   50 D(1,7,13,17)    =     -3.149507     0.000000     0.023128    -3.126379
	   51 D(1,7,13,18)    =    174.748482     0.000000     0.018121   174.766603
	   52 D(1,7,14,15)    =    173.764475     0.000000     0.023119   173.787595
	   53 D(1,7,14,16)    =     -8.378738    -0.000000    -0.055869    -8.434607
	   54 D(2,1,6,5)      =      2.549596    -0.000000    -0.001157     2.548440
	   55 D(2,1,6,12)     =   -179.753805     0.000000    -0.007781  -179.761586
	   56 *D(2,1,7,13)    =    -60.000026    -0.000000     0.000000   -60.000026
	   57 D(2,1,7,14)     =    123.087276     0.000000     0.035393   123.122669
	   58 D(2,3,4,5)      =      0.641672    -0.000000     0.002847     0.644519
	   59 D(2,3,4,10)     =   -179.662933    -0.000000    -0.000425  -179.663357
	   60 D(3,2,1,6)      =     -1.639487    -0.000000    -0.006829    -1.646316
	   61 D(3,2,1,7)      =   -176.508011    -0.000000    -0.016811  -176.524822
	   62 D(3,4,5,6)      =      0.282291    -0.000000    -0.010928     0.271362
	   63 D(3,4,5,11)     =   -179.825618     0.000000     0.010566  -179.815052
	   64 D(4,3,2,8)      =   -178.870267     0.000000    -0.002412  -178.872679
	   65 D(4,5,6,12)     =   -179.551014     0.000000     0.016677  -179.534337
	   66 D(5,4,3,9)      =   -178.842638     0.000000     0.001175  -178.841463
	   67 D(5,6,1,7)      =    177.407031    -0.000000     0.008714   177.415745
	   68 D(6,1,2,8)      =    177.266229    -0.000000     0.001524   177.267753
	   69 D(6,1,7,13)     =    125.071097    -0.000000    -0.009790   125.061307
	   70 D(6,1,7,14)     =    -51.841602     0.000000     0.025604   -51.815998
	   71 D(6,5,4,10)     =   -179.413163    -0.000000    -0.007659  -179.420822
	   72 D(7,1,2,8)      =      2.397705    -0.000000    -0.008458     2.389247
	   73 D(7,1,6,12)     =     -4.896371     0.000000     0.002090    -4.894280
	   74 D(8,2,3,9)      =      0.616698    -0.000000    -0.000744     0.615955
	   75 D(9,3,4,10)     =      0.852757     0.000000    -0.002097     0.850660
	   76 D(10,4,5,11)    =      0.478928     0.000000     0.013835     0.492763
	   77 D(11,5,6,12)    =      0.556351    -0.000000    -0.004709     0.551642
	   78 D(13,7,14,15)   =     -3.090431     0.000000     0.059299    -3.031133
	   79 D(13,7,14,16)   =    174.766355     0.000000    -0.019689   174.746666
	   80 D(14,7,13,17)   =    173.704541    -0.000000    -0.013135   173.691405
	   81 D(14,7,13,18)   =     -8.397470    -0.000000    -0.018142    -8.415613
	 ---------------------------------------------------------------------------
	Successfully symmetrized geometry.

  ==> Convergence Check <==

  Measures of convergence in internal coordinates in au.
  Criteria marked as inactive (o), active & met (*), and active & unmet ( ).
  ---------------------------------------------------------------------------------------------
   Step     Total Energy     Delta E     MAX Force     RMS Force      MAX Disp      RMS Disp   
  ---------------------------------------------------------------------------------------------
    Convergence Criteria    1.00e-06 *    3.00e-04 *             o    1.20e-03 *             o
  ---------------------------------------------------------------------------------------------
      7    -381.46813654   -1.71e-07 *    1.61e-05 *    4.98e-06 o    1.03e-03 *    2.18e-04 o  ~
  ---------------------------------------------------------------------------------------------


  **** Optimization is complete! (in 7 steps) ****

  ==> Optimization Summary <==

  Measures of convergence in internal coordinates in au.
  --------------------------------------------------------------------------------------------------------------- ~
   Step         Total Energy             Delta E       MAX Force       RMS Force        MAX Disp        RMS Disp  ~
  --------------------------------------------------------------------------------------------------------------- ~
      1    -381.463893321086   -381.463893321086      0.00478521      0.00165187      0.15824344      0.04791081  ~
      2    -381.467109389474     -0.003216068387      0.00570046      0.00127802      0.13606765      0.03567416  ~
      3    -381.468006497086     -0.000897107613      0.00522090      0.00096232      0.03421969      0.00770272  ~
      4    -381.468125473278     -0.000118976192      0.00083171      0.00015219      0.01772085      0.00344281  ~
      5    -381.468134229754     -0.000008756476      0.00037195      0.00008357      0.00557240      0.00141344  ~
      6    -381.468136365735     -0.000002135981      0.00004790      0.00001561      0.00179569      0.00041049  ~
      7    -381.468136537031     -0.000000171295      0.00001612      0.00000498      0.00103496      0.00021825  ~
  --------------------------------------------------------------------------------------------------------------- ~

	Writing optimization data to binary file.
	Final energy is   -381.4681365370307
	Final (previous) structure:
	Cartesian Geometry (in Angstrom)
	    C    -0.0493740778   0.0070020561  -0.1772877356
	    C    -0.0089505299   1.2250332881   0.5213761294
	    C     0.0229714586   1.2115514427   1.9139353328
	    C     0.0153923704  -0.0049724313   2.6021479876
	    C    -0.0106366812  -1.2158364200   1.9031913583
	    C    -0.0233246731  -1.2178163593   0.5107429253
	    C    -0.0050155693   0.0160493939  -1.6500157634
	    H     0.0152527510   2.1673577901  -0.0188678243
	    H     0.0621257980   2.1483449250   2.4603701391
	    H     0.0348316026  -0.0100868184   3.6876076605
	    H    -0.0192716649  -2.1575727320   2.4424684891
	    H    -0.0508880025  -2.1555860099  -0.0370587080
	    N    -0.9561037664   0.6476691863  -2.3260092823
	    N     0.9502138362  -0.6590765595  -2.2759869815
	    H     0.9852285332  -0.7700071307  -3.2834515795
	    H     1.7058536889  -1.0631591719  -1.7371693029
	    H    -1.7235446618   1.0726742617  -1.8209315411
	    H    -0.9447604120   0.7584312892  -3.3340613034
	Saving final (previous) structure.
	Removing binary optimization data file.
			--------------------------
			 OPTKING Finished Execution 
			--------------------------

    Final optimized geometry and variables:
    Molecular point group: c1
    Full point group: C1

    Geometry (in Angstrom), charge = 1, multiplicity = 1:

    C           -0.049374077846     0.007002056063    -0.177287735580
    C           -0.008950529868     1.225033288069     0.521376129381
    C            0.022971458627     1.211551442699     1.913935332816
    C            0.015392370363    -0.004972431275     2.602147987628
    C           -0.010636681244    -1.215836420045     1.903191358280
    C           -0.023324673126    -1.217816359290     0.510742925252
    C           -0.005015569277     0.016049393894    -1.650015763419
    H            0.015252751018     2.167357790058    -0.018867824313
    H            0.062125797963     2.148344924986     2.460370139052
    H            0.034831602606    -0.010086818382     3.687607660479
    H           -0.019271664873    -2.157572732027     2.442468489123
    H           -0.050888002467    -2.155586009878    -0.037058707958
    N           -0.956103766400     0.647669186324    -2.326009282344
    N            0.950213836214    -0.659076559485    -2.275986981516
    H            0.985228533157    -0.770007130724    -3.283451579492
    H            1.705853688939    -1.063159171882    -1.737169302886
    H           -1.723544661799     1.072674261694    -1.820931541117
    H           -0.944760411988     0.758431289201    -3.334061303386

	Removing binary optimization data file.
	Cleaning optimization helper files.


Properties will be evaluated at   0.000000,   0.000000,   0.000000 [a0]
OEProp: No title given, name of density matrix used for the following properties is 'SCF density'
  Nuclear Dipole Moment: [e a0]
     X:    -0.6237      Y:     0.0692      Z:    -0.2089

  Electronic Dipole Moment: [e a0]
     X:     0.6573      Y:    -0.0461      Z:    -2.1852

  Dipole Moment: [e a0]
     X:     0.0336      Y:     0.0231      Z:    -2.3941     Total:     2.3944

  Dipole Moment: [D]
     X:     0.0854      Y:     0.0588      Z:    -6.0851     Total:     6.0860

  Quadrupole Moment: [D A]
    XX:   -45.9547     YY:   -41.1990     ZZ:   -13.5664
    XY:    -5.7592     XZ:     0.1360     YZ:    -0.2239

  Traceless Quadrupole Moment: [D A]
    XX:   -12.3813     YY:    -7.6256     ZZ:    20.0070
    XY:    -5.7592     XZ:     0.1360     YZ:    -0.2239

  Mulliken Charges: (a.u.)
   Center  Symbol    Alpha    Beta     Spin     Total
       1     C     2.97728  2.97728  0.00000  0.04545
       2     C     3.07524  3.07524  0.00000 -0.15049
       3     C     3.06177  3.06177  0.00000 -0.12354
       4     C     3.05254  3.05254  0.00000 -0.10509
       5     C     3.06321  3.06321  0.00000 -0.12641
       6     C     3.07714  3.07714  0.00000 -0.15428
       7     C     2.73650  2.73650  0.00000  0.52701
       8     H     0.41341  0.41341  0.00000  0.17317
       9     H     0.40631  0.40631  0.00000  0.18738
      10     H     0.40525  0.40525  0.00000  0.18950
      11     H     0.40629  0.40629  0.00000  0.18741
      12     H     0.41332  0.41332  0.00000  0.17336
      13     N     3.85217  3.85217  0.00000 -0.70435
      14     N     3.85375  3.85375  0.00000 -0.70750
      15     H     0.30534  0.30534  0.00000  0.38931
      16     H     0.29767  0.29767  0.00000  0.40465
      17     H     0.29723  0.29723  0.00000  0.40554
      18     H     0.30556  0.30556  0.00000  0.38888

   Total alpha = 32.00000, Total beta = 32.00000, Total charge =  1.00000


    Psi4 stopped on: Saturday, 29 September 2018 08:47PM
    Psi4 wall time for execution: 0:03:16.90

*** Psi4 exiting successfully. Buy a developer a beer!
