
    -----------------------------------------------------------------------
          Psi4: An Open-Source Ab Initio Electronic Structure Package
                               Psi4 1.2.1 release

                         Git: Rev {HEAD} 406f4de 


    R. M. Parrish, L. A. Burns, D. G. A. Smith, A. C. Simmonett,
    A. E. DePrince III, E. G. Hohenstein, U. Bozkaya, A. Yu. Sokolov,
    R. Di Remigio, R. M. Richard, J. F. Gonthier, A. M. James,
    H. R. McAlexander, A. Kumar, M. Saitow, X. Wang, B. P. Pritchard,
    P. Verma, H. F. Schaefer III, K. Patkowski, R. A. King, E. F. Valeev,
    F. A. Evangelista, J. M. Turney, T. D. Crawford, and C. D. Sherrill,
    J. Chem. Theory Comput. 13(7) pp 3185--3197 (2017).
    (doi: 10.1021/acs.jctc.7b00174)


                         Additional Contributions by
    P. Kraus, H. Kruse, M. H. Lechner, M. C. Schieber, and R. A. Shaw

    -----------------------------------------------------------------------


    Psi4 started on: Saturday, 29 September 2018 04:49PM

    Process ID: 4531
    Host:       loro.prib.upf.edu
    PSIDATADIR: /shared/joao/test_parameterize/miniconda3/share/psi4
    Memory:     500.0 MiB
    Threads:    1
    
  ==> Input File <==

--------------------------------------------------------------------------
set_num_threads(1)
set_memory('5348 MB')

set { scf_mem_safety_factor 0.7 }

set { reference rks }
set { basis cc-pVDZ }

molecule MOL {
    0 1
    noreorient
    nocom
    symmetry c1
    O    1.141000   0.017000   0.083000
    C    2.558000   0.086000  -0.005000
    C    3.192000  -0.789000   1.067000
    O    2.613215  -2.088143   1.042397
    H    0.789000   0.590000  -0.620000
    H    2.874000   1.128000   0.115000
    H    2.871000  -0.243000  -1.001000
    H    3.042742  -0.348393   2.057719
    H    4.271657  -0.875457   0.900433
    H    3.052150  -2.601525   1.742869
}

set optking { frozen_dihedral = (" 1 2 3 4 ") }

energy, wfn = energy('B3LYP-D3', return_wfn=True)

import os
os.chdir(os.environ['HTMD_PSI4_WORKDIR'])

oeprop(wfn, 'DIPOLE', 'QUADRUPOLE', 'MULLIKEN_CHARGES')

with open('psi4out.xyz', 'w') as f:
    f.write('10 ' )
    f.write('%.12f\n' % energy)
    f.write(MOL.save_string_xyz())
--------------------------------------------------------------------------
  Threads set to 1 by Python driver.

  Memory set to   4.981 GiB by Python driver.

*** tstart() called on loro.prib.upf.edu
*** at Sat Sep 29 16:49:34 2018

   => Loading Basis Set <=

    Name: CC-PVDZ
    Role: ORBITAL
    Keyword: BASIS
    atoms 1, 4 entry O          line   198 file /shared/joao/test_parameterize/miniconda3/share/psi4/basis/cc-pvdz.gbs 
    atoms 2-3  entry C          line   138 file /shared/joao/test_parameterize/miniconda3/share/psi4/basis/cc-pvdz.gbs 
    atoms 5-10 entry H          line    22 file /shared/joao/test_parameterize/miniconda3/share/psi4/basis/cc-pvdz.gbs 


         ---------------------------------------------------------
                                   SCF
            by Justin Turney, Rob Parrish, Andy Simmonett
                             and Daniel Smith
                              RKS Reference
                        1 Threads,   5100 MiB Core
         ---------------------------------------------------------

  ==> Geometry <==

    Molecular point group: c1
    Full point group: C1

    Geometry (in Angstrom), charge = 0, multiplicity = 1:

       Center              X                  Y                   Z               Mass       
    ------------   -----------------  -----------------  -----------------  -----------------
         O            1.141000000000     0.017000000000     0.083000000000    15.994914619560
         C            2.558000000000     0.086000000000    -0.005000000000    12.000000000000
         C            3.192000000000    -0.789000000000     1.067000000000    12.000000000000
         O            2.613215000000    -2.088143000000     1.042397000000    15.994914619560
         H            0.789000000000     0.590000000000    -0.620000000000     1.007825032070
         H            2.874000000000     1.128000000000     0.115000000000     1.007825032070
         H            2.871000000000    -0.243000000000    -1.001000000000     1.007825032070
         H            3.042742000000    -0.348393000000     2.057719000000     1.007825032070
         H            4.271657000000    -0.875457000000     0.900433000000     1.007825032070
         H            3.052150000000    -2.601525000000     1.742869000000     1.007825032070

  Running in c1 symmetry.

  Rotational constants: A =      0.31472  B =      0.03622  C =      0.03330 [cm^-1]
  Rotational constants: A =   9435.16997  B =   1085.86543  C =    998.21950 [MHz]
  Nuclear repulsion =  132.183839905109124

  Charge       = 0
  Multiplicity = 1
  Electrons    = 34
  Nalpha       = 17
  Nbeta        = 17

  ==> Algorithm <==

  SCF Algorithm Type is DF.
  DIIS enabled.
  MOM disabled.
  Fractional occupation disabled.
  Guess Type is SAD.
  Energy threshold   = 1.00e-06
  Density threshold  = 1.00e-06
  Integral threshold = 0.00e+00

  ==> Primary Basis <==

  Basis Set: CC-PVDZ
    Blend: CC-PVDZ
    Number of shells: 42
    Number of basis function: 86
    Number of Cartesian functions: 90
    Spherical Harmonics?: true
    Max angular momentum: 2

  ==> DFT Potential <==

   => Composite Functional: B3LYP-D3ZERO <= 

    B3LYP-d3zero Hyb-GGA Exchange-Correlation Functional

    P. J. Stephens, F. J. Devlin, C. F. Chabalowski, and M. J. Frisch, J. Phys. Chem. 98, 11623 (1994)

    Deriv               =              1
    GGA                 =           TRUE
    Meta                =          FALSE

    Exchange Hybrid     =           TRUE
    MP2 Hybrid          =          FALSE

   => Exchange Functionals <=

    0.0800   Slater exchange
    0.7200         Becke 88

   => Exact (HF) Exchange <=

    0.2000               HF 

   => Correlation Functionals <=

    0.1900   Vosko, Wilk & Nusair (VWN5_RPA)
    0.8100   Lee, Yang & Parr

   => Molecular Quadrature <=

    Radial Scheme       =       TREUTLER
    Pruning Scheme      =           FLAT
    Nuclear Scheme      =       TREUTLER

    BS radius alpha     =              1
    Pruning alpha       =              1
    Radial Points       =             75
    Spherical Points    =            302
    Total Points        =         222573
    Total Blocks        =           1735
    Max Points          =            256
    Max Functions       =             86

   => -D3ZERO: Empirical Dispersion <=

    Grimme's -D3 (zero-damping) Dispersion Correction
    Grimme S.; Antony J.; Ehrlich S.; Krieg H. (2010), J. Chem. Phys., 132: 154104

        S6 =   1.000000E+00
        S8 =   1.703000E+00
       SR6 =   1.261000E+00
       SR8 =   1.000000E+00
    ALPHA6 =   1.400000E+01

   => Loading Basis Set <=

    Name: (CC-PVDZ AUX)
    Role: JKFIT
    Keyword: DF_BASIS_SCF
    atoms 1, 4 entry O          line   221 file /shared/joao/test_parameterize/miniconda3/share/psi4/basis/cc-pvdz-jkfit.gbs 
    atoms 2-3  entry C          line   121 file /shared/joao/test_parameterize/miniconda3/share/psi4/basis/cc-pvdz-jkfit.gbs 
    atoms 5-10 entry H          line    51 file /shared/joao/test_parameterize/miniconda3/share/psi4/basis/cc-pvdz-jkfit.gbs 

  ==> Pre-Iterations <==

   -------------------------------------------------------
    Irrep   Nso     Nmo     Nalpha   Nbeta   Ndocc  Nsocc
   -------------------------------------------------------
     A         86      86       0       0       0       0
   -------------------------------------------------------
    Total      86      86      17      17      17       0
   -------------------------------------------------------

  ==> Integral Setup <==

  DFHelper Memory: AOs need 0.030 [GiB]; user supplied 3.486 [GiB]. Using in-core AOs.

  ==> MemDFJK: Density-Fitted J/K Matrices <==

    J tasked:                   Yes
    K tasked:                   Yes
    wK tasked:                   No
    OpenMP threads:               1
    Memory (MB):               3570
    Algorithm:                 Core
    Schwarz Cutoff:           1E-12
    Mask sparsity (%):       0.0000
    Fitting Condition:        1E-12

   => Auxiliary Basis Set <=

  Basis Set: (CC-PVDZ AUX)
    Blend: CC-PVDZ-JKFIT
    Number of shells: 150
    Number of basis function: 418
    Number of Cartesian functions: 474
    Spherical Harmonics?: true
    Max angular momentum: 3

  Minimum eigenvalue in the overlap matrix is 5.1371172066E-03.
  Using Symmetric Orthogonalization.

  SCF Guess: Superposition of Atomic Densities via on-the-fly atomic UHF.

  ==> Iterations <==

                           Total Energy        Delta E     RMS |[F,P]|

   @DF-RKS iter   0:  -230.82596966320645   -2.30826e+02   3.92439e-02 
   @DF-RKS iter   1:  -230.12966857025421    6.96301e-01   6.39680e-03 
   @DF-RKS iter   2:  -230.00446581537841    1.25203e-01   9.38069e-03 DIIS
   @DF-RKS iter   3:  -230.25250509656576   -2.48039e-01   6.77212e-04 DIIS
   @DF-RKS iter   4:  -230.25363556134943   -1.13046e-03   3.42778e-04 DIIS
   @DF-RKS iter   5:  -230.25404273743405   -4.07176e-04   5.73062e-05 DIIS
   @DF-RKS iter   6:  -230.25405386782100   -1.11304e-05   6.21971e-06 DIIS
   @DF-RKS iter   7:  -230.25405397689067   -1.09070e-07   2.92781e-06 DIIS
   @DF-RKS iter   8:  -230.25405400196695   -2.50763e-08   9.19068e-07 DIIS

  ==> Post-Iterations <==

    Orbital Energies [Eh]
    ---------------------

    Doubly Occupied:                                                      

       1A    -19.124201     2A    -19.124164     3A    -10.227316  
       4A    -10.227125     5A     -1.016442     6A     -0.997678  
       7A     -0.733936     8A     -0.601437     9A     -0.522113  
      10A     -0.496235    11A     -0.443731    12A     -0.415004  
      13A     -0.401352    14A     -0.337970    15A     -0.319197  
      16A     -0.259049    17A     -0.257534  

    Virtual:                                                              

      18A      0.043946    19A      0.071516    20A      0.094367  
      21A      0.114883    22A      0.133638    23A      0.154390  
      24A      0.189164    25A      0.230314    26A      0.235728  
      27A      0.462734    28A      0.463320    29A      0.500490  
      30A      0.517998    31A      0.546806    32A      0.554902  
      33A      0.612037    34A      0.626602    35A      0.642580  
      36A      0.655947    37A      0.665243    38A      0.696520  
      39A      0.874507    40A      0.904605    41A      0.918453  
      42A      0.990409    43A      1.002159    44A      1.038561  
      45A      1.077145    46A      1.170826    47A      1.185576  
      48A      1.239151    49A      1.266413    50A      1.328537  
      51A      1.335378    52A      1.395169    53A      1.493635  
      54A      1.520459    55A      1.609009    56A      1.611494  
      57A      1.617974    58A      1.620831    59A      1.649978  
      60A      1.700628    61A      1.727915    62A      1.740639  
      63A      1.872437    64A      1.883896    65A      1.944029  
      66A      1.989471    67A      2.014107    68A      2.026359  
      69A      2.144780    70A      2.166454    71A      2.232507  
      72A      2.260498    73A      2.406189    74A      2.415410  
      75A      2.524084    76A      2.524677    77A      2.918089  
      78A      2.962813    79A      3.004605    80A      3.020164  
      81A      3.056965    82A      3.160946    83A      3.204667  
      84A      3.216503    85A      3.658286    86A      3.740865  

    Final Occupation by Irrep:
              A 
    DOCC [    17 ]

  Energy converged.

  @DF-RKS Final Energy:  -230.25405400196695

   => Energetics <=

    Nuclear Repulsion Energy =            132.1838399051091244
    One-Electron Energy =                -576.2362025242673553
    Two-Electron Energy =                 238.3388230561729415
    DFT Exchange-Correlation Energy =     -24.5362438989817058
    Empirical Dispersion Energy =          -0.0042705400000000
    VV10 Nonlocal Energy =                  0.0000000000000000
    Total Energy =                       -230.2540540019669493



Properties will be evaluated at   0.000000,   0.000000,   0.000000 [a0]

Properties computed using the SCF density matrix

  Nuclear Dipole Moment: [e a0]
     X:   153.8885      Y:   -43.7236      Z:    35.0926

  Electronic Dipole Moment: [e a0]
     X:  -153.2202      Y:    44.1826      Z:   -35.1140

  Dipole Moment: [e a0]
     X:     0.6683      Y:     0.4590      Z:    -0.0214     Total:     0.8110

  Dipole Moment: [D]
     X:     1.6986      Y:     1.1667      Z:    -0.0543     Total:     2.0614


*** tstop() called on loro.prib.upf.edu at Sat Sep 29 16:49:51 2018
Module time:
	user time   =      12.89 seconds =       0.21 minutes
	system time =       0.21 seconds =       0.00 minutes
	total time  =         17 seconds =       0.28 minutes
Total time:
	user time   =      12.89 seconds =       0.21 minutes
	system time =       0.21 seconds =       0.00 minutes
	total time  =         17 seconds =       0.28 minutes


Properties will be evaluated at   0.000000,   0.000000,   0.000000 [a0]
OEProp: No title given, name of density matrix used for the following properties is 'SCF density'
  Nuclear Dipole Moment: [e a0]
     X:   153.8885      Y:   -43.7236      Z:    35.0926

  Electronic Dipole Moment: [e a0]
     X:  -153.2202      Y:    44.1826      Z:   -35.1140

  Dipole Moment: [e a0]
     X:     0.6683      Y:     0.4590      Z:    -0.0214     Total:     0.8110

  Dipole Moment: [D]
     X:     1.6986      Y:     1.1667      Z:    -0.0543     Total:     2.0614

  Quadrupole Moment: [D A]
    XX:   -16.0526     YY:   -23.8650     ZZ:   -21.0187
    XY:    -1.2337     XZ:     3.9362     YZ:    -3.6520

  Traceless Quadrupole Moment: [D A]
    XX:     4.2595     YY:    -3.5529     ZZ:    -0.7066
    XY:    -1.2337     XZ:     3.9362     YZ:    -3.6520

  Mulliken Charges: (a.u.)
   Center  Symbol    Alpha    Beta     Spin     Total
       1     O     4.13327  4.13327  0.00000 -0.26654
       2     C     2.93334  2.93334  0.00000  0.13331
       3     C     2.93350  2.93350  0.00000  0.13300
       4     O     4.13349  4.13349  0.00000 -0.26697
       5     H     0.43064  0.43064  0.00000  0.13873
       6     H     0.50330  0.50330  0.00000 -0.00660
       7     H     0.49940  0.49940  0.00000  0.00120
       8     H     0.49928  0.49928  0.00000  0.00143
       9     H     0.50320  0.50320  0.00000 -0.00640
      10     H     0.43058  0.43058  0.00000  0.13884

   Total alpha = 17.00000, Total beta = 17.00000, Total charge =  0.00000


    Psi4 stopped on: Saturday, 29 September 2018 04:49PM
    Psi4 wall time for execution: 0:00:16.19

*** Psi4 exiting successfully. Buy a developer a beer!
