
    -----------------------------------------------------------------------
          Psi4: An Open-Source Ab Initio Electronic Structure Package
                               Psi4 1.2.1 release

                         Git: Rev {HEAD} 406f4de 


    R. M. Parrish, L. A. Burns, D. G. A. Smith, A. C. Simmonett,
    A. E. DePrince III, E. G. Hohenstein, U. Bozkaya, A. Yu. Sokolov,
    R. Di Remigio, R. M. Richard, J. F. Gonthier, A. M. James,
    H. R. McAlexander, A. Kumar, M. Saitow, X. Wang, B. P. Pritchard,
    P. Verma, H. F. Schaefer III, K. Patkowski, R. A. King, E. F. Valeev,
    F. A. Evangelista, J. M. Turney, T. D. Crawford, and C. D. Sherrill,
    J. Chem. Theory Comput. 13(7) pp 3185--3197 (2017).
    (doi: 10.1021/acs.jctc.7b00174)


                         Additional Contributions by
    P. Kraus, H. Kruse, M. H. Lechner, M. C. Schieber, and R. A. Shaw

    -----------------------------------------------------------------------


    Psi4 started on: Saturday, 29 September 2018 05:09PM

    Process ID: 13234
    Host:       loro.prib.upf.edu
    PSIDATADIR: /shared/joao/test_parameterize/miniconda3/share/psi4
    Memory:     500.0 MiB
    Threads:    1
    
  ==> Input File <==

--------------------------------------------------------------------------
set_num_threads(1)
set_memory('5348 MB')

set { scf_mem_safety_factor 0.7 }

set { reference rks }
set { basis cc-pVDZ }

molecule MOL {
    0 1
    noreorient
    nocom
    symmetry c1
    O    1.050400   0.042900  -0.048100
    C    2.474100   0.047400  -0.029000
    C    3.002600  -1.068900  -0.932000
    N    4.462700  -1.072400  -1.006800
    H    0.760400   0.728400   0.578000
    H    2.809900  -0.097900   1.003200
    H    2.817400   1.026800  -0.378600
    H    2.581000  -0.963300  -1.938400
    H    2.653800  -2.036400  -0.553400
    H    4.753736  -0.774034  -1.937261
    H    4.794074  -2.031629  -0.905206
}

set optking { frozen_dihedral = (" 2 3 4 10 ") }

energy, wfn = energy('B3LYP-D3', return_wfn=True)

import os
os.chdir(os.environ['HTMD_PSI4_WORKDIR'])

oeprop(wfn, 'DIPOLE', 'QUADRUPOLE', 'MULLIKEN_CHARGES')

with open('psi4out.xyz', 'w') as f:
    f.write('11 ' )
    f.write('%.12f\n' % energy)
    f.write(MOL.save_string_xyz())
--------------------------------------------------------------------------
  Threads set to 1 by Python driver.

  Memory set to   4.981 GiB by Python driver.

*** tstart() called on loro.prib.upf.edu
*** at Sat Sep 29 17:09:28 2018

   => Loading Basis Set <=

    Name: CC-PVDZ
    Role: ORBITAL
    Keyword: BASIS
    atoms 1    entry O          line   198 file /shared/joao/test_parameterize/miniconda3/share/psi4/basis/cc-pvdz.gbs 
    atoms 2-3  entry C          line   138 file /shared/joao/test_parameterize/miniconda3/share/psi4/basis/cc-pvdz.gbs 
    atoms 4    entry N          line   168 file /shared/joao/test_parameterize/miniconda3/share/psi4/basis/cc-pvdz.gbs 
    atoms 5-11 entry H          line    22 file /shared/joao/test_parameterize/miniconda3/share/psi4/basis/cc-pvdz.gbs 


         ---------------------------------------------------------
                                   SCF
            by Justin Turney, Rob Parrish, Andy Simmonett
                             and Daniel Smith
                              RKS Reference
                        1 Threads,   5100 MiB Core
         ---------------------------------------------------------

  ==> Geometry <==

    Molecular point group: c1
    Full point group: C1

    Geometry (in Angstrom), charge = 0, multiplicity = 1:

       Center              X                  Y                   Z               Mass       
    ------------   -----------------  -----------------  -----------------  -----------------
         O            1.050400000000     0.042900000000    -0.048100000000    15.994914619560
         C            2.474100000000     0.047400000000    -0.029000000000    12.000000000000
         C            3.002600000000    -1.068900000000    -0.932000000000    12.000000000000
         N            4.462700000000    -1.072400000000    -1.006800000000    14.003074004780
         H            0.760400000000     0.728400000000     0.578000000000     1.007825032070
         H            2.809900000000    -0.097900000000     1.003200000000     1.007825032070
         H            2.817400000000     1.026800000000    -0.378600000000     1.007825032070
         H            2.581000000000    -0.963300000000    -1.938400000000     1.007825032070
         H            2.653800000000    -2.036400000000    -0.553400000000     1.007825032070
         H            4.753736000000    -0.774034000000    -1.937261000000     1.007825032070
         H            4.794074000000    -2.031629000000    -0.905206000000     1.007825032070

  Running in c1 symmetry.

  Rotational constants: A =      0.72028  B =      0.02756  C =      0.02692 [cm^-1]
  Rotational constants: A =  21593.54863  B =    826.12292  C =    807.04854 [MHz]
  Nuclear repulsion =  130.249221053432649

  Charge       = 0
  Multiplicity = 1
  Electrons    = 34
  Nalpha       = 17
  Nbeta        = 17

  ==> Algorithm <==

  SCF Algorithm Type is DF.
  DIIS enabled.
  MOM disabled.
  Fractional occupation disabled.
  Guess Type is SAD.
  Energy threshold   = 1.00e-06
  Density threshold  = 1.00e-06
  Integral threshold = 0.00e+00

  ==> Primary Basis <==

  Basis Set: CC-PVDZ
    Blend: CC-PVDZ
    Number of shells: 45
    Number of basis function: 91
    Number of Cartesian functions: 95
    Spherical Harmonics?: true
    Max angular momentum: 2

  ==> DFT Potential <==

   => Composite Functional: B3LYP-D3ZERO <= 

    B3LYP-d3zero Hyb-GGA Exchange-Correlation Functional

    P. J. Stephens, F. J. Devlin, C. F. Chabalowski, and M. J. Frisch, J. Phys. Chem. 98, 11623 (1994)

    Deriv               =              1
    GGA                 =           TRUE
    Meta                =          FALSE

    Exchange Hybrid     =           TRUE
    MP2 Hybrid          =          FALSE

   => Exchange Functionals <=

    0.0800   Slater exchange
    0.7200         Becke 88

   => Exact (HF) Exchange <=

    0.2000               HF 

   => Correlation Functionals <=

    0.1900   Vosko, Wilk & Nusair (VWN5_RPA)
    0.8100   Lee, Yang & Parr

   => Molecular Quadrature <=

    Radial Scheme       =       TREUTLER
    Pruning Scheme      =           FLAT
    Nuclear Scheme      =       TREUTLER

    BS radius alpha     =              1
    Pruning alpha       =              1
    Radial Points       =             75
    Spherical Points    =            302
    Total Points        =         245096
    Total Blocks        =           1897
    Max Points          =            256
    Max Functions       =             91

   => -D3ZERO: Empirical Dispersion <=

    Grimme's -D3 (zero-damping) Dispersion Correction
    Grimme S.; Antony J.; Ehrlich S.; Krieg H. (2010), J. Chem. Phys., 132: 154104

        S6 =   1.000000E+00
        S8 =   1.703000E+00
       SR6 =   1.261000E+00
       SR8 =   1.000000E+00
    ALPHA6 =   1.400000E+01

   => Loading Basis Set <=

    Name: (CC-PVDZ AUX)
    Role: JKFIT
    Keyword: DF_BASIS_SCF
    atoms 1    entry O          line   221 file /shared/joao/test_parameterize/miniconda3/share/psi4/basis/cc-pvdz-jkfit.gbs 
    atoms 2-3  entry C          line   121 file /shared/joao/test_parameterize/miniconda3/share/psi4/basis/cc-pvdz-jkfit.gbs 
    atoms 4    entry N          line   171 file /shared/joao/test_parameterize/miniconda3/share/psi4/basis/cc-pvdz-jkfit.gbs 
    atoms 5-11 entry H          line    51 file /shared/joao/test_parameterize/miniconda3/share/psi4/basis/cc-pvdz-jkfit.gbs 

  ==> Pre-Iterations <==

   -------------------------------------------------------
    Irrep   Nso     Nmo     Nalpha   Nbeta   Ndocc  Nsocc
   -------------------------------------------------------
     A         91      91       0       0       0       0
   -------------------------------------------------------
    Total      91      91      17      17      17       0
   -------------------------------------------------------

  ==> Integral Setup <==

  DFHelper Memory: AOs need 0.035 [GiB]; user supplied 3.486 [GiB]. Using in-core AOs.

  ==> MemDFJK: Density-Fitted J/K Matrices <==

    J tasked:                   Yes
    K tasked:                   Yes
    wK tasked:                   No
    OpenMP threads:               1
    Memory (MB):               3570
    Algorithm:                 Core
    Schwarz Cutoff:           1E-12
    Mask sparsity (%):       0.7004
    Fitting Condition:        1E-12

   => Auxiliary Basis Set <=

  Basis Set: (CC-PVDZ AUX)
    Blend: CC-PVDZ-JKFIT
    Number of shells: 159
    Number of basis function: 441
    Number of Cartesian functions: 499
    Spherical Harmonics?: true
    Max angular momentum: 3

  Minimum eigenvalue in the overlap matrix is 4.6616484270E-03.
  Using Symmetric Orthogonalization.

  SCF Guess: Superposition of Atomic Densities via on-the-fly atomic UHF.

  ==> Iterations <==

                           Total Energy        Delta E     RMS |[F,P]|

   @DF-RKS iter   0:  -210.84288098486525   -2.10843e+02   3.66825e-02 
   @DF-RKS iter   1:  -210.21330650568174    6.29574e-01   7.06384e-03 
   @DF-RKS iter   2:  -210.07113405678970    1.42172e-01   9.62707e-03 DIIS
   @DF-RKS iter   3:  -210.38893573841759   -3.17802e-01   5.57890e-04 DIIS
   @DF-RKS iter   4:  -210.38957415663353   -6.38418e-04   3.56503e-04 DIIS
   @DF-RKS iter   5:  -210.39002976772122   -4.55611e-04   4.84185e-05 DIIS
   @DF-RKS iter   6:  -210.39003592085965   -6.15314e-06   2.35798e-05 DIIS
   @DF-RKS iter   7:  -210.39003792123486   -2.00038e-06   2.18011e-06 DIIS
   @DF-RKS iter   8:  -210.39003793813831   -1.69034e-08   7.50518e-07 DIIS

  ==> Post-Iterations <==

    Orbital Energies [Eh]
    ---------------------

    Doubly Occupied:                                                      

       1A    -19.122609     2A    -14.306060     3A    -10.216513  
       4A    -10.201621     5A     -1.005049     6A     -0.876992  
       7A     -0.709996     8A     -0.591730     9A     -0.501854  
      10A     -0.496327    11A     -0.435701    12A     -0.425758  
      13A     -0.392915    14A     -0.346131    15A     -0.324133  
      16A     -0.256182    17A     -0.235311  

    Virtual:                                                              

      18A      0.051305    19A      0.059402    20A      0.092674  
      21A      0.123690    22A      0.127162    23A      0.145683  
      24A      0.190336    25A      0.204515    26A      0.250486  
      27A      0.266071    28A      0.426976    29A      0.452249  
      30A      0.497256    31A      0.523765    32A      0.553356  
      33A      0.569932    34A      0.612141    35A      0.617882  
      36A      0.636199    37A      0.657107    38A      0.662804  
      39A      0.682757    40A      0.698381    41A      0.812665  
      42A      0.844142    43A      0.882407    44A      0.912745  
      45A      0.930155    46A      0.956845    47A      0.996614  
      48A      1.067460    49A      1.200635    50A      1.215464  
      51A      1.262565    52A      1.280972    53A      1.299695  
      54A      1.341939    55A      1.363250    56A      1.501848  
      57A      1.550711    58A      1.603673    59A      1.615149  
      60A      1.624300    61A      1.657241    62A      1.689220  
      63A      1.711386    64A      1.726051    65A      1.747049  
      66A      1.774097    67A      1.792882    68A      1.851002  
      69A      1.906309    70A      1.973211    71A      2.021499  
      72A      2.049026    73A      2.059240    74A      2.137148  
      75A      2.144755    76A      2.243446    77A      2.294753  
      78A      2.397810    79A      2.422585    80A      2.447279  
      81A      2.487957    82A      2.517467    83A      2.600267  
      84A      2.648982    85A      2.816678    86A      2.964647  
      87A      2.986238    88A      3.072767    89A      3.106933  
      90A      3.205670    91A      3.699183  

    Final Occupation by Irrep:
              A 
    DOCC [    17 ]

  Energy converged.

  @DF-RKS Final Energy:  -210.39003793813831

   => Energetics <=

    Nuclear Repulsion Energy =            130.2492210534326489
    One-Electron Energy =                -543.5066891338386768
    Two-Electron Energy =                 226.3591994806757270
    DFT Exchange-Correlation Energy =     -23.4870835584079529
    Empirical Dispersion Energy =          -0.0046857800000000
    VV10 Nonlocal Energy =                  0.0000000000000000
    Total Energy =                       -210.3900379381382777



Properties will be evaluated at   0.000000,   0.000000,   0.000000 [a0]

Properties computed using the SCF density matrix

  Nuclear Dipole Moment: [e a0]
     X:   177.0156      Y:   -32.9581      Z:   -32.7491

  Electronic Dipole Moment: [e a0]
     X:  -176.7816      Y:    32.9635      Z:    32.6861

  Dipole Moment: [e a0]
     X:     0.2340      Y:     0.0054      Z:    -0.0629     Total:     0.2423

  Dipole Moment: [D]
     X:     0.5946      Y:     0.0138      Z:    -0.1600     Total:     0.6159


*** tstop() called on loro.prib.upf.edu at Sat Sep 29 17:09:47 2018
Module time:
	user time   =      15.14 seconds =       0.25 minutes
	system time =       0.26 seconds =       0.00 minutes
	total time  =         19 seconds =       0.32 minutes
Total time:
	user time   =      15.14 seconds =       0.25 minutes
	system time =       0.26 seconds =       0.00 minutes
	total time  =         19 seconds =       0.32 minutes


Properties will be evaluated at   0.000000,   0.000000,   0.000000 [a0]
OEProp: No title given, name of density matrix used for the following properties is 'SCF density'
  Nuclear Dipole Moment: [e a0]
     X:   177.0156      Y:   -32.9581      Z:   -32.7491

  Electronic Dipole Moment: [e a0]
     X:  -176.7816      Y:    32.9635      Z:    32.6861

  Dipole Moment: [e a0]
     X:     0.2340      Y:     0.0054      Z:    -0.0629     Total:     0.2423

  Dipole Moment: [D]
     X:     0.5946      Y:     0.0138      Z:    -0.1600     Total:     0.6159

  Quadrupole Moment: [D A]
    XX:   -24.4464     YY:   -21.9053     ZZ:   -22.3531
    XY:    -4.1078     XZ:    -4.8880     YZ:     2.1346

  Traceless Quadrupole Moment: [D A]
    XX:    -1.5448     YY:     0.9963     ZZ:     0.5485
    XY:    -4.1078     XZ:    -4.8880     YZ:     2.1346

  Mulliken Charges: (a.u.)
   Center  Symbol    Alpha    Beta     Spin     Total
       1     O     4.14136  4.14136  0.00000 -0.28271
       2     C     2.92058  2.92058  0.00000  0.15883
       3     C     2.99779  2.99779  0.00000  0.00443
       4     N     3.58773  3.58773  0.00000 -0.17545
       5     H     0.43026  0.43026  0.00000  0.13948
       6     H     0.50215  0.50215  0.00000 -0.00431
       7     H     0.50385  0.50385  0.00000 -0.00770
       8     H     0.49608  0.49608  0.00000  0.00784
       9     H     0.49326  0.49326  0.00000  0.01348
      10     H     0.46362  0.46362  0.00000  0.07275
      11     H     0.46332  0.46332  0.00000  0.07336

   Total alpha = 17.00000, Total beta = 17.00000, Total charge = -0.00000


    Psi4 stopped on: Saturday, 29 September 2018 05:09PM
    Psi4 wall time for execution: 0:00:18.48

*** Psi4 exiting successfully. Buy a developer a beer!
