
    -----------------------------------------------------------------------
          Psi4: An Open-Source Ab Initio Electronic Structure Package
                               Psi4 1.2.1 release

                         Git: Rev {HEAD} 406f4de 


    R. M. Parrish, L. A. Burns, D. G. A. Smith, A. C. Simmonett,
    A. E. DePrince III, E. G. Hohenstein, U. Bozkaya, A. Yu. Sokolov,
    R. Di Remigio, R. M. Richard, J. F. Gonthier, A. M. James,
    H. R. McAlexander, A. Kumar, M. Saitow, X. Wang, B. P. Pritchard,
    P. Verma, H. F. Schaefer III, K. Patkowski, R. A. King, E. F. Valeev,
    F. A. Evangelista, J. M. Turney, T. D. Crawford, and C. D. Sherrill,
    J. Chem. Theory Comput. 13(7) pp 3185--3197 (2017).
    (doi: 10.1021/acs.jctc.7b00174)


                         Additional Contributions by
    P. Kraus, H. Kruse, M. H. Lechner, M. C. Schieber, and R. A. Shaw

    -----------------------------------------------------------------------


    Psi4 started on: Saturday, 29 September 2018 05:08PM

    Process ID: 12299
    Host:       loro.prib.upf.edu
    PSIDATADIR: /shared/joao/test_parameterize/miniconda3/share/psi4
    Memory:     500.0 MiB
    Threads:    1
    
  ==> Input File <==

--------------------------------------------------------------------------
set_num_threads(1)
set_memory('5348 MB')

set { scf_mem_safety_factor 0.7 }

set { reference rks }
set { basis cc-pVDZ }

molecule MOL {
    0 1
    noreorient
    nocom
    symmetry c1
    O    1.050400   0.042900  -0.048100
    C    2.474100   0.047400  -0.029000
    C    3.002600  -1.068900  -0.932000
    N    3.181566  -2.325859  -0.207069
    H    0.760400   0.728400   0.578000
    H    2.809900  -0.097900   1.003200
    H    2.817400   1.026800  -0.378600
    H    3.954103  -0.763019  -1.382353
    H    2.305271  -1.222649  -1.763354
    H    3.918514  -2.212501   0.488301
    H    3.519084  -3.034788  -0.858031
}

set optking { frozen_dihedral = (" 1 2 3 4 ") }

energy, wfn = energy('B3LYP-D3', return_wfn=True)

import os
os.chdir(os.environ['HTMD_PSI4_WORKDIR'])

oeprop(wfn, 'DIPOLE', 'QUADRUPOLE', 'MULLIKEN_CHARGES')

with open('psi4out.xyz', 'w') as f:
    f.write('11 ' )
    f.write('%.12f\n' % energy)
    f.write(MOL.save_string_xyz())
--------------------------------------------------------------------------
  Threads set to 1 by Python driver.

  Memory set to   4.981 GiB by Python driver.

*** tstart() called on loro.prib.upf.edu
*** at Sat Sep 29 17:08:29 2018

   => Loading Basis Set <=

    Name: CC-PVDZ
    Role: ORBITAL
    Keyword: BASIS
    atoms 1    entry O          line   198 file /shared/joao/test_parameterize/miniconda3/share/psi4/basis/cc-pvdz.gbs 
    atoms 2-3  entry C          line   138 file /shared/joao/test_parameterize/miniconda3/share/psi4/basis/cc-pvdz.gbs 
    atoms 4    entry N          line   168 file /shared/joao/test_parameterize/miniconda3/share/psi4/basis/cc-pvdz.gbs 
    atoms 5-11 entry H          line    22 file /shared/joao/test_parameterize/miniconda3/share/psi4/basis/cc-pvdz.gbs 


         ---------------------------------------------------------
                                   SCF
            by Justin Turney, Rob Parrish, Andy Simmonett
                             and Daniel Smith
                              RKS Reference
                        1 Threads,   5100 MiB Core
         ---------------------------------------------------------

  ==> Geometry <==

    Molecular point group: c1
    Full point group: C1

    Geometry (in Angstrom), charge = 0, multiplicity = 1:

       Center              X                  Y                   Z               Mass       
    ------------   -----------------  -----------------  -----------------  -----------------
         O            1.050400000000     0.042900000000    -0.048100000000    15.994914619560
         C            2.474100000000     0.047400000000    -0.029000000000    12.000000000000
         C            3.002600000000    -1.068900000000    -0.932000000000    12.000000000000
         N            3.181566000000    -2.325859000000    -0.207069000000    14.003074004780
         H            0.760400000000     0.728400000000     0.578000000000     1.007825032070
         H            2.809900000000    -0.097900000000     1.003200000000     1.007825032070
         H            2.817400000000     1.026800000000    -0.378600000000     1.007825032070
         H            3.954103000000    -0.763019000000    -1.382353000000     1.007825032070
         H            2.305271000000    -1.222649000000    -1.763354000000     1.007825032070
         H            3.918514000000    -2.212501000000     0.488301000000     1.007825032070
         H            3.519084000000    -3.034788000000    -0.858031000000     1.007825032070

  Running in c1 symmetry.

  Rotational constants: A =      0.35265  B =      0.03397  C =      0.03234 [cm^-1]
  Rotational constants: A =  10572.23915  B =   1018.29618  C =    969.51875 [MHz]
  Nuclear repulsion =  131.676948905953168

  Charge       = 0
  Multiplicity = 1
  Electrons    = 34
  Nalpha       = 17
  Nbeta        = 17

  ==> Algorithm <==

  SCF Algorithm Type is DF.
  DIIS enabled.
  MOM disabled.
  Fractional occupation disabled.
  Guess Type is SAD.
  Energy threshold   = 1.00e-06
  Density threshold  = 1.00e-06
  Integral threshold = 0.00e+00

  ==> Primary Basis <==

  Basis Set: CC-PVDZ
    Blend: CC-PVDZ
    Number of shells: 45
    Number of basis function: 91
    Number of Cartesian functions: 95
    Spherical Harmonics?: true
    Max angular momentum: 2

  ==> DFT Potential <==

   => Composite Functional: B3LYP-D3ZERO <= 

    B3LYP-d3zero Hyb-GGA Exchange-Correlation Functional

    P. J. Stephens, F. J. Devlin, C. F. Chabalowski, and M. J. Frisch, J. Phys. Chem. 98, 11623 (1994)

    Deriv               =              1
    GGA                 =           TRUE
    Meta                =          FALSE

    Exchange Hybrid     =           TRUE
    MP2 Hybrid          =          FALSE

   => Exchange Functionals <=

    0.0800   Slater exchange
    0.7200         Becke 88

   => Exact (HF) Exchange <=

    0.2000               HF 

   => Correlation Functionals <=

    0.1900   Vosko, Wilk & Nusair (VWN5_RPA)
    0.8100   Lee, Yang & Parr

   => Molecular Quadrature <=

    Radial Scheme       =       TREUTLER
    Pruning Scheme      =           FLAT
    Nuclear Scheme      =       TREUTLER

    BS radius alpha     =              1
    Pruning alpha       =              1
    Radial Points       =             75
    Spherical Points    =            302
    Total Points        =         245096
    Total Blocks        =           1891
    Max Points          =            256
    Max Functions       =             91

   => -D3ZERO: Empirical Dispersion <=

    Grimme's -D3 (zero-damping) Dispersion Correction
    Grimme S.; Antony J.; Ehrlich S.; Krieg H. (2010), J. Chem. Phys., 132: 154104

        S6 =   1.000000E+00
        S8 =   1.703000E+00
       SR6 =   1.261000E+00
       SR8 =   1.000000E+00
    ALPHA6 =   1.400000E+01

   => Loading Basis Set <=

    Name: (CC-PVDZ AUX)
    Role: JKFIT
    Keyword: DF_BASIS_SCF
    atoms 1    entry O          line   221 file /shared/joao/test_parameterize/miniconda3/share/psi4/basis/cc-pvdz-jkfit.gbs 
    atoms 2-3  entry C          line   121 file /shared/joao/test_parameterize/miniconda3/share/psi4/basis/cc-pvdz-jkfit.gbs 
    atoms 4    entry N          line   171 file /shared/joao/test_parameterize/miniconda3/share/psi4/basis/cc-pvdz-jkfit.gbs 
    atoms 5-11 entry H          line    51 file /shared/joao/test_parameterize/miniconda3/share/psi4/basis/cc-pvdz-jkfit.gbs 

  ==> Pre-Iterations <==

   -------------------------------------------------------
    Irrep   Nso     Nmo     Nalpha   Nbeta   Ndocc  Nsocc
   -------------------------------------------------------
     A         91      91       0       0       0       0
   -------------------------------------------------------
    Total      91      91      17      17      17       0
   -------------------------------------------------------

  ==> Integral Setup <==

  DFHelper Memory: AOs need 0.036 [GiB]; user supplied 3.486 [GiB]. Using in-core AOs.

  ==> MemDFJK: Density-Fitted J/K Matrices <==

    J tasked:                   Yes
    K tasked:                   Yes
    wK tasked:                   No
    OpenMP threads:               1
    Memory (MB):               3570
    Algorithm:                 Core
    Schwarz Cutoff:           1E-12
    Mask sparsity (%):       0.0725
    Fitting Condition:        1E-12

   => Auxiliary Basis Set <=

  Basis Set: (CC-PVDZ AUX)
    Blend: CC-PVDZ-JKFIT
    Number of shells: 159
    Number of basis function: 441
    Number of Cartesian functions: 499
    Spherical Harmonics?: true
    Max angular momentum: 3

  Minimum eigenvalue in the overlap matrix is 4.7790326961E-03.
  Using Symmetric Orthogonalization.

  SCF Guess: Superposition of Atomic Densities via on-the-fly atomic UHF.

  ==> Iterations <==

                           Total Energy        Delta E     RMS |[F,P]|

   @DF-RKS iter   0:  -210.93574389880089   -2.10936e+02   3.74924e-02 
   @DF-RKS iter   1:  -210.25395477020635    6.81789e-01   6.14234e-03 
   @DF-RKS iter   2:  -210.12406765600511    1.29887e-01   8.87933e-03 DIIS
   @DF-RKS iter   3:  -210.38644298765948   -2.62375e-01   5.72331e-04 DIIS
   @DF-RKS iter   4:  -210.38722640932673   -7.83422e-04   3.39473e-04 DIIS
   @DF-RKS iter   5:  -210.38765332788500   -4.26919e-04   4.65736e-05 DIIS
   @DF-RKS iter   6:  -210.38766063329007   -7.30541e-06   1.45118e-05 DIIS
   @DF-RKS iter   7:  -210.38766135429285   -7.21003e-07   3.77646e-06 DIIS
   @DF-RKS iter   8:  -210.38766140576706   -5.14742e-08   5.59755e-07 DIIS

  ==> Post-Iterations <==

    Orbital Energies [Eh]
    ---------------------

    Doubly Occupied:                                                      

       1A    -19.122346     2A    -14.300144     3A    -10.224143  
       4A    -10.202181     5A     -1.005703     6A     -0.873421  
       7A     -0.713320     8A     -0.596587     9A     -0.507234  
      10A     -0.482531    11A     -0.455680    12A     -0.400901  
      13A     -0.388520    14A     -0.372550    15A     -0.320682  
      16A     -0.257730    17A     -0.226352  

    Virtual:                                                              

      18A      0.052248    19A      0.068006    20A      0.101613  
      21A      0.112316    22A      0.131173    23A      0.142683  
      24A      0.157720    25A      0.210731    26A      0.227612  
      27A      0.258922    28A      0.447186    29A      0.476518  
      30A      0.497842    31A      0.500230    32A      0.549096  
      33A      0.560810    34A      0.609931    35A      0.622347  
      36A      0.639395    37A      0.651487    38A      0.657787  
      39A      0.690952    40A      0.698495    41A      0.806673  
      42A      0.839990    43A      0.853909    44A      0.910630  
      45A      0.961505    46A      0.996623    47A      1.012061  
      48A      1.063887    49A      1.175603    50A      1.208904  
      51A      1.233876    52A      1.288995    53A      1.337083  
      54A      1.348319    55A      1.443899    56A      1.493315  
      57A      1.544536    58A      1.569131    59A      1.594582  
      60A      1.613853    61A      1.641370    62A      1.659421  
      63A      1.671520    64A      1.734467    65A      1.762360  
      66A      1.798257    67A      1.860762    68A      1.901784  
      69A      1.915964    70A      1.958607    71A      1.984042  
      72A      2.001506    73A      2.034689    74A      2.130051  
      75A      2.187047    76A      2.201680    77A      2.315749  
      78A      2.369985    79A      2.391550    80A      2.461565  
      81A      2.470630    82A      2.526336    83A      2.607548  
      84A      2.676223    85A      2.823054    86A      2.971483  
      87A      3.034224    88A      3.053485    89A      3.104500  
      90A      3.201610    91A      3.699143  

    Final Occupation by Irrep:
              A 
    DOCC [    17 ]

  Energy converged.

  @DF-RKS Final Energy:  -210.38766140576706

   => Energetics <=

    Nuclear Repulsion Energy =            131.6769489059531679
    One-Electron Energy =                -546.3466862714876697
    Two-Electron Energy =                 227.7741695892444795
    DFT Exchange-Correlation Energy =     -23.4872638194770431
    Empirical Dispersion Energy =          -0.0048298100000000
    VV10 Nonlocal Energy =                  0.0000000000000000
    Total Energy =                       -210.3876614057670622



Properties will be evaluated at   0.000000,   0.000000,   0.000000 [a0]

Properties computed using the SCF density matrix

  Nuclear Dipole Moment: [e a0]
     X:   158.0171      Y:   -52.2367      Z:   -18.7331

  Electronic Dipole Moment: [e a0]
     X:  -157.2797      Y:    52.6591      Z:    18.8788

  Dipole Moment: [e a0]
     X:     0.7373      Y:     0.4224      Z:     0.1458     Total:     0.8622

  Dipole Moment: [D]
     X:     1.8741      Y:     1.0736      Z:     0.3705     Total:     2.1914


*** tstop() called on loro.prib.upf.edu at Sat Sep 29 17:08:49 2018
Module time:
	user time   =      15.37 seconds =       0.26 minutes
	system time =       0.23 seconds =       0.00 minutes
	total time  =         20 seconds =       0.33 minutes
Total time:
	user time   =      15.37 seconds =       0.26 minutes
	system time =       0.23 seconds =       0.00 minutes
	total time  =         20 seconds =       0.33 minutes


Properties will be evaluated at   0.000000,   0.000000,   0.000000 [a0]
OEProp: No title given, name of density matrix used for the following properties is 'SCF density'
  Nuclear Dipole Moment: [e a0]
     X:   158.0171      Y:   -52.2367      Z:   -18.7331

  Electronic Dipole Moment: [e a0]
     X:  -157.2797      Y:    52.6591      Z:    18.8788

  Dipole Moment: [e a0]
     X:     0.7373      Y:     0.4224      Z:     0.1458     Total:     0.8622

  Dipole Moment: [D]
     X:     1.8741      Y:     1.0736      Z:     0.3705     Total:     2.1914

  Quadrupole Moment: [D A]
    XX:   -15.6192     YY:   -24.8553     ZZ:   -23.9099
    XY:    -2.6188     XZ:    -0.6785     YZ:     2.7870

  Traceless Quadrupole Moment: [D A]
    XX:     5.8423     YY:    -3.3938     ZZ:    -2.4484
    XY:    -2.6188     XZ:    -0.6785     YZ:     2.7870

  Mulliken Charges: (a.u.)
   Center  Symbol    Alpha    Beta     Spin     Total
       1     O     4.13739  4.13739  0.00000 -0.27478
       2     C     2.92289  2.92289  0.00000  0.15423
       3     C     2.97898  2.97898  0.00000  0.04203
       4     N     3.59003  3.59003  0.00000 -0.18006
       5     H     0.43266  0.43266  0.00000  0.13469
       6     H     0.50433  0.50433  0.00000 -0.00867
       7     H     0.50516  0.50516  0.00000 -0.01031
       8     H     0.50799  0.50799  0.00000 -0.01599
       9     H     0.48700  0.48700  0.00000  0.02601
      10     H     0.46725  0.46725  0.00000  0.06550
      11     H     0.46632  0.46632  0.00000  0.06735

   Total alpha = 17.00000, Total beta = 17.00000, Total charge = -0.00000


    Psi4 stopped on: Saturday, 29 September 2018 05:08PM
    Psi4 wall time for execution: 0:00:20.03

*** Psi4 exiting successfully. Buy a developer a beer!
