
    -----------------------------------------------------------------------
          Psi4: An Open-Source Ab Initio Electronic Structure Package
                               Psi4 1.2.1 release

                         Git: Rev {HEAD} 406f4de 


    R. M. Parrish, L. A. Burns, D. G. A. Smith, A. C. Simmonett,
    A. E. DePrince III, E. G. Hohenstein, U. Bozkaya, A. Yu. Sokolov,
    R. Di Remigio, R. M. Richard, J. F. Gonthier, A. M. James,
    H. R. McAlexander, A. Kumar, M. Saitow, X. Wang, B. P. Pritchard,
    P. Verma, H. F. Schaefer III, K. Patkowski, R. A. King, E. F. Valeev,
    F. A. Evangelista, J. M. Turney, T. D. Crawford, and C. D. Sherrill,
    J. Chem. Theory Comput. 13(7) pp 3185--3197 (2017).
    (doi: 10.1021/acs.jctc.7b00174)


                         Additional Contributions by
    P. Kraus, H. Kruse, M. H. Lechner, M. C. Schieber, and R. A. Shaw

    -----------------------------------------------------------------------


    Psi4 started on: Saturday, 29 September 2018 04:27PM

    Process ID: 26686
    Host:       loro.prib.upf.edu
    PSIDATADIR: /shared/joao/test_parameterize/miniconda3/share/psi4
    Memory:     500.0 MiB
    Threads:    1
    
  ==> Input File <==

--------------------------------------------------------------------------
set_num_threads(1)
set_memory('5348 MB')

set { scf_mem_safety_factor 0.7 }

set { reference rks }
set { basis cc-pVDZ }

molecule MOL {
    0 1
    noreorient
    nocom
    symmetry c1
    O    1.014300  -0.002300   0.060500
    O    2.462400  -0.107500  -0.002400
    H    0.821200  -0.823600  -0.430600
    H    2.496860  -0.724675  -0.757876
}

set optking { frozen_dihedral = (" 3 1 2 4 ") }

energy, wfn = energy('B3LYP-D3', return_wfn=True)

import os
os.chdir(os.environ['HTMD_PSI4_WORKDIR'])

oeprop(wfn, 'DIPOLE', 'QUADRUPOLE', 'MULLIKEN_CHARGES')

with open('psi4out.xyz', 'w') as f:
    f.write('4 ' )
    f.write('%.12f\n' % energy)
    f.write(MOL.save_string_xyz())
--------------------------------------------------------------------------
  Threads set to 1 by Python driver.

  Memory set to   4.981 GiB by Python driver.

*** tstart() called on loro.prib.upf.edu
*** at Sat Sep 29 16:27:16 2018

   => Loading Basis Set <=

    Name: CC-PVDZ
    Role: ORBITAL
    Keyword: BASIS
    atoms 1-2 entry O          line   198 file /shared/joao/test_parameterize/miniconda3/share/psi4/basis/cc-pvdz.gbs 
    atoms 3-4 entry H          line    22 file /shared/joao/test_parameterize/miniconda3/share/psi4/basis/cc-pvdz.gbs 


         ---------------------------------------------------------
                                   SCF
            by Justin Turney, Rob Parrish, Andy Simmonett
                             and Daniel Smith
                              RKS Reference
                        1 Threads,   5100 MiB Core
         ---------------------------------------------------------

  ==> Geometry <==

    Molecular point group: c1
    Full point group: C1

    Geometry (in Angstrom), charge = 0, multiplicity = 1:

       Center              X                  Y                   Z               Mass       
    ------------   -----------------  -----------------  -----------------  -----------------
         O            1.014300000000    -0.002300000000     0.060500000000    15.994914619560
         O            2.462400000000    -0.107500000000    -0.002400000000    15.994914619560
         H            0.821200000000    -0.823600000000    -0.430600000000     1.007825032070
         H            2.496860000000    -0.724675000000    -0.757876000000     1.007825032070

  Running in c1 symmetry.

  Rotational constants: A =      9.25935  B =      0.13946  C =      0.13755 [cm^-1]
  Rotational constants: A = 277588.24953  B =   4181.02511  C =   4123.73594 [MHz]
  Nuclear repulsion =   36.885818385750170

  Charge       = 0
  Multiplicity = 1
  Electrons    = 18
  Nalpha       = 9
  Nbeta        = 9

  ==> Algorithm <==

  SCF Algorithm Type is DF.
  DIIS enabled.
  MOM disabled.
  Fractional occupation disabled.
  Guess Type is SAD.
  Energy threshold   = 1.00e-06
  Density threshold  = 1.00e-06
  Integral threshold = 0.00e+00

  ==> Primary Basis <==

  Basis Set: CC-PVDZ
    Blend: CC-PVDZ
    Number of shells: 18
    Number of basis function: 38
    Number of Cartesian functions: 40
    Spherical Harmonics?: true
    Max angular momentum: 2

  ==> DFT Potential <==

   => Composite Functional: B3LYP-D3ZERO <= 

    B3LYP-d3zero Hyb-GGA Exchange-Correlation Functional

    P. J. Stephens, F. J. Devlin, C. F. Chabalowski, and M. J. Frisch, J. Phys. Chem. 98, 11623 (1994)

    Deriv               =              1
    GGA                 =           TRUE
    Meta                =          FALSE

    Exchange Hybrid     =           TRUE
    MP2 Hybrid          =          FALSE

   => Exchange Functionals <=

    0.0800   Slater exchange
    0.7200         Becke 88

   => Exact (HF) Exchange <=

    0.2000               HF 

   => Correlation Functionals <=

    0.1900   Vosko, Wilk & Nusair (VWN5_RPA)
    0.8100   Lee, Yang & Parr

   => Molecular Quadrature <=

    Radial Scheme       =       TREUTLER
    Pruning Scheme      =           FLAT
    Nuclear Scheme      =       TREUTLER

    BS radius alpha     =              1
    Pruning alpha       =              1
    Radial Points       =             75
    Spherical Points    =            302
    Total Points        =          88272
    Total Blocks        =            717
    Max Points          =            256
    Max Functions       =             38

   => -D3ZERO: Empirical Dispersion <=

    Grimme's -D3 (zero-damping) Dispersion Correction
    Grimme S.; Antony J.; Ehrlich S.; Krieg H. (2010), J. Chem. Phys., 132: 154104

        S6 =   1.000000E+00
        S8 =   1.703000E+00
       SR6 =   1.261000E+00
       SR8 =   1.000000E+00
    ALPHA6 =   1.400000E+01

   => Loading Basis Set <=

    Name: (CC-PVDZ AUX)
    Role: JKFIT
    Keyword: DF_BASIS_SCF
    atoms 1-2 entry O          line   221 file /shared/joao/test_parameterize/miniconda3/share/psi4/basis/cc-pvdz-jkfit.gbs 
    atoms 3-4 entry H          line    51 file /shared/joao/test_parameterize/miniconda3/share/psi4/basis/cc-pvdz-jkfit.gbs 

  ==> Pre-Iterations <==

   -------------------------------------------------------
    Irrep   Nso     Nmo     Nalpha   Nbeta   Ndocc  Nsocc
   -------------------------------------------------------
     A         38      38       0       0       0       0
   -------------------------------------------------------
    Total      38      38       9       9       9       0
   -------------------------------------------------------

  ==> Integral Setup <==

  DFHelper Memory: AOs need 0.003 [GiB]; user supplied 3.486 [GiB]. Using in-core AOs.

  ==> MemDFJK: Density-Fitted J/K Matrices <==

    J tasked:                   Yes
    K tasked:                   Yes
    wK tasked:                   No
    OpenMP threads:               1
    Memory (MB):               3570
    Algorithm:                 Core
    Schwarz Cutoff:           1E-12
    Mask sparsity (%):       0.0000
    Fitting Condition:        1E-12

   => Auxiliary Basis Set <=

  Basis Set: (CC-PVDZ AUX)
    Blend: CC-PVDZ-JKFIT
    Number of shells: 66
    Number of basis function: 186
    Number of Cartesian functions: 212
    Spherical Harmonics?: true
    Max angular momentum: 3

  Minimum eigenvalue in the overlap matrix is 2.3912945884E-02.
  Using Symmetric Orthogonalization.

  SCF Guess: Superposition of Atomic Densities via on-the-fly atomic UHF.

  ==> Iterations <==

                           Total Energy        Delta E     RMS |[F,P]|

   @DF-RKS iter   0:  -151.63026571384617   -1.51630e+02   4.94191e-02 
   @DF-RKS iter   1:  -151.49471888876045    1.35547e-01   8.21947e-03 
   @DF-RKS iter   2:  -151.49257941925083    2.13947e-03   8.82119e-03 DIIS
   @DF-RKS iter   3:  -151.53463411047136   -4.20547e-02   9.73383e-04 DIIS
   @DF-RKS iter   4:  -151.53506576063731   -4.31650e-04   3.07938e-04 DIIS
   @DF-RKS iter   5:  -151.53509475599765   -2.89954e-05   2.04057e-04 DIIS
   @DF-RKS iter   6:  -151.53511673545344   -2.19795e-05   5.40032e-06 DIIS
   @DF-RKS iter   7:  -151.53511676856107   -3.31076e-08   1.30952e-06 DIIS
   @DF-RKS iter   8:  -151.53511677006148   -1.50041e-09   1.97952e-07 DIIS

  ==> Post-Iterations <==

    Orbital Energies [Eh]
    ---------------------

    Doubly Occupied:                                                      

       1A    -19.191997     2A    -19.191967     3A     -1.121863  
       4A     -0.887496     5A     -0.560440     6A     -0.428223  
       7A     -0.411079     8A     -0.365357     9A     -0.249277  

    Virtual:                                                              

      10A      0.010407    11A      0.020500    12A      0.132467  
      13A      0.547858    14A      0.573189    15A      0.862634  
      16A      0.864186    17A      0.919220    18A      0.929577  
      19A      0.993600    20A      1.057029    21A      1.157024  
      22A      1.250549    23A      1.322597    24A      1.537929  
      25A      1.627850    26A      1.796844    27A      2.014238  
      28A      2.102467    29A      2.312846    30A      2.375246  
      31A      2.628372    32A      2.862376    33A      2.916253  
      34A      2.995921    35A      3.185773    36A      3.483051  
      37A      3.550903    38A      3.822937  

    Final Occupation by Irrep:
              A 
    DOCC [     9 ]

  Energy converged.

  @DF-RKS Final Energy:  -151.53511677006148

   => Energetics <=

    Nuclear Repulsion Energy =             36.8858183857501700
    One-Electron Energy =                -281.6418042665617349
    Two-Electron Energy =                 107.6840656480184890
    DFT Exchange-Correlation Energy =     -14.4630171372683769
    Empirical Dispersion Energy =          -0.0001794000000000
    VV10 Nonlocal Energy =                  0.0000000000000000
    Total Energy =                       -151.5351167700614781



Properties will be evaluated at   0.000000,   0.000000,   0.000000 [a0]

Properties computed using the SCF density matrix

  Nuclear Dipole Moment: [e a0]
     X:    58.8303      Y:    -4.5858      Z:    -1.3675

  Electronic Dipole Moment: [e a0]
     X:   -58.9314      Y:     3.6690      Z:     0.5731

  Dipole Moment: [e a0]
     X:    -0.1011      Y:    -0.9167      Z:    -0.7945     Total:     1.2173

  Dipole Moment: [D]
     X:    -0.2570      Y:    -2.3301      Z:    -2.0193     Total:     3.0940


*** tstop() called on loro.prib.upf.edu at Sat Sep 29 16:27:20 2018
Module time:
	user time   =       2.62 seconds =       0.04 minutes
	system time =       0.08 seconds =       0.00 minutes
	total time  =          4 seconds =       0.07 minutes
Total time:
	user time   =       2.62 seconds =       0.04 minutes
	system time =       0.08 seconds =       0.00 minutes
	total time  =          4 seconds =       0.07 minutes


Properties will be evaluated at   0.000000,   0.000000,   0.000000 [a0]
OEProp: No title given, name of density matrix used for the following properties is 'SCF density'
  Nuclear Dipole Moment: [e a0]
     X:    58.8303      Y:    -4.5858      Z:    -1.3675

  Electronic Dipole Moment: [e a0]
     X:   -58.9314      Y:     3.6690      Z:     0.5731

  Dipole Moment: [e a0]
     X:    -0.1011      Y:    -0.9167      Z:    -0.7945     Total:     1.2173

  Dipole Moment: [D]
     X:    -0.2570      Y:    -2.3301      Z:    -2.0193     Total:     3.0940

  Quadrupole Moment: [D A]
    XX:   -12.1905     YY:    -9.6892     ZZ:   -10.5497
    XY:    -3.5069     XZ:    -3.7295     YZ:     2.0362

  Traceless Quadrupole Moment: [D A]
    XX:    -1.3807     YY:     1.1206     ZZ:     0.2601
    XY:    -3.5069     XZ:    -3.7295     YZ:     2.0362

  Mulliken Charges: (a.u.)
   Center  Symbol    Alpha    Beta     Spin     Total
       1     O     4.07875  4.07875  0.00000 -0.15749
       2     O     4.07873  4.07873  0.00000 -0.15745
       3     H     0.42125  0.42125  0.00000  0.15749
       4     H     0.42127  0.42127  0.00000  0.15746

   Total alpha =  9.00000, Total beta =  9.00000, Total charge =  0.00000


    Psi4 stopped on: Saturday, 29 September 2018 04:27PM
    Psi4 wall time for execution: 0:00:04.14

*** Psi4 exiting successfully. Buy a developer a beer!
