
    -----------------------------------------------------------------------
          Psi4: An Open-Source Ab Initio Electronic Structure Package
                               Psi4 1.2.1 release

                         Git: Rev {HEAD} 406f4de 


    R. M. Parrish, L. A. Burns, D. G. A. Smith, A. C. Simmonett,
    A. E. DePrince III, E. G. Hohenstein, U. Bozkaya, A. Yu. Sokolov,
    R. Di Remigio, R. M. Richard, J. F. Gonthier, A. M. James,
    H. R. McAlexander, A. Kumar, M. Saitow, X. Wang, B. P. Pritchard,
    P. Verma, H. F. Schaefer III, K. Patkowski, R. A. King, E. F. Valeev,
    F. A. Evangelista, J. M. Turney, T. D. Crawford, and C. D. Sherrill,
    J. Chem. Theory Comput. 13(7) pp 3185--3197 (2017).
    (doi: 10.1021/acs.jctc.7b00174)


                         Additional Contributions by
    P. Kraus, H. Kruse, M. H. Lechner, M. C. Schieber, and R. A. Shaw

    -----------------------------------------------------------------------


    Psi4 started on: Saturday, 29 September 2018 04:38PM

    Process ID: 30768
    Host:       loro.prib.upf.edu
    PSIDATADIR: /shared/joao/test_parameterize/miniconda3/share/psi4
    Memory:     500.0 MiB
    Threads:    1
    
  ==> Input File <==

--------------------------------------------------------------------------
set_num_threads(1)
set_memory('5348 MB')

set { scf_mem_safety_factor 0.7 }

set { reference rks }
set { basis cc-pVDZ }

molecule MOL {
    0 1
    noreorient
    nocom
    symmetry c1
    O    1.014300  -0.002300   0.060500
    O    2.462400  -0.107500  -0.002400
    H    0.821200  -0.823600  -0.430600
    H    2.644544   0.851452   0.006080
}

set optking { frozen_dihedral = (" 3 1 2 4 ") }

set optking { dynamic_level = 1 
 geom_maxiter = 250
 print_trajectory_xyz_file = True }

energy, wfn = optimize('B3LYP-D3', return_wfn=True)

import os
os.chdir(os.environ['HTMD_PSI4_WORKDIR'])

oeprop(wfn, 'DIPOLE', 'QUADRUPOLE', 'MULLIKEN_CHARGES')

with open('psi4out.xyz', 'w') as f:
    f.write('4 ' )
    f.write('%.12f\n' % energy)
    f.write(MOL.save_string_xyz())
--------------------------------------------------------------------------
  Threads set to 1 by Python driver.

  Memory set to   4.981 GiB by Python driver.
gradient() will perform analytic gradient computation.

*** tstart() called on loro.prib.upf.edu
*** at Sat Sep 29 16:38:06 2018

   => Loading Basis Set <=

    Name: CC-PVDZ
    Role: ORBITAL
    Keyword: BASIS
    atoms 1-2 entry O          line   198 file /shared/joao/test_parameterize/miniconda3/share/psi4/basis/cc-pvdz.gbs 
    atoms 3-4 entry H          line    22 file /shared/joao/test_parameterize/miniconda3/share/psi4/basis/cc-pvdz.gbs 


         ---------------------------------------------------------
                                   SCF
            by Justin Turney, Rob Parrish, Andy Simmonett
                             and Daniel Smith
                              RKS Reference
                        1 Threads,   5100 MiB Core
         ---------------------------------------------------------

  ==> Geometry <==

    Molecular point group: c1
    Full point group: C1

    Geometry (in Angstrom), charge = 0, multiplicity = 1:

       Center              X                  Y                   Z               Mass       
    ------------   -----------------  -----------------  -----------------  -----------------
         O            1.014300000000    -0.002300000000     0.060500000000    15.994914619560
         O            2.462400000000    -0.107500000000    -0.002400000000    15.994914619560
         H            0.821200000000    -0.823600000000    -0.430600000000     1.007825032070
         H            2.644544000000     0.851452000000     0.006080000000     1.007825032070

  Running in c1 symmetry.

  Rotational constants: A =      9.45922  B =      0.13889  C =      0.13720 [cm^-1]
  Rotational constants: A = 283580.16212  B =   4163.89825  C =   4113.10114 [MHz]
  Nuclear repulsion =   36.786866987082725

  Charge       = 0
  Multiplicity = 1
  Electrons    = 18
  Nalpha       = 9
  Nbeta        = 9

  ==> Algorithm <==

  SCF Algorithm Type is DF.
  DIIS enabled.
  MOM disabled.
  Fractional occupation disabled.
  Guess Type is SAD.
  Energy threshold   = 1.00e-08
  Density threshold  = 1.00e-08
  Integral threshold = 0.00e+00

  ==> Primary Basis <==

  Basis Set: CC-PVDZ
    Blend: CC-PVDZ
    Number of shells: 18
    Number of basis function: 38
    Number of Cartesian functions: 40
    Spherical Harmonics?: true
    Max angular momentum: 2

  ==> DFT Potential <==

   => Composite Functional: B3LYP-D3ZERO <= 

    B3LYP-d3zero Hyb-GGA Exchange-Correlation Functional

    P. J. Stephens, F. J. Devlin, C. F. Chabalowski, and M. J. Frisch, J. Phys. Chem. 98, 11623 (1994)

    Deriv               =              1
    GGA                 =           TRUE
    Meta                =          FALSE

    Exchange Hybrid     =           TRUE
    MP2 Hybrid          =          FALSE

   => Exchange Functionals <=

    0.0800   Slater exchange
    0.7200         Becke 88

   => Exact (HF) Exchange <=

    0.2000               HF 

   => Correlation Functionals <=

    0.1900   Vosko, Wilk & Nusair (VWN5_RPA)
    0.8100   Lee, Yang & Parr

   => Molecular Quadrature <=

    Radial Scheme       =       TREUTLER
    Pruning Scheme      =           FLAT
    Nuclear Scheme      =       TREUTLER

    BS radius alpha     =              1
    Pruning alpha       =              1
    Radial Points       =             75
    Spherical Points    =            302
    Total Points        =          88340
    Total Blocks        =            719
    Max Points          =            256
    Max Functions       =             38

   => -D3ZERO: Empirical Dispersion <=

    Grimme's -D3 (zero-damping) Dispersion Correction
    Grimme S.; Antony J.; Ehrlich S.; Krieg H. (2010), J. Chem. Phys., 132: 154104

        S6 =   1.000000E+00
        S8 =   1.703000E+00
       SR6 =   1.261000E+00
       SR8 =   1.000000E+00
    ALPHA6 =   1.400000E+01

   => Loading Basis Set <=

    Name: (CC-PVDZ AUX)
    Role: JKFIT
    Keyword: DF_BASIS_SCF
    atoms 1-2 entry O          line   221 file /shared/joao/test_parameterize/miniconda3/share/psi4/basis/cc-pvdz-jkfit.gbs 
    atoms 3-4 entry H          line    51 file /shared/joao/test_parameterize/miniconda3/share/psi4/basis/cc-pvdz-jkfit.gbs 

  ==> Pre-Iterations <==

   -------------------------------------------------------
    Irrep   Nso     Nmo     Nalpha   Nbeta   Ndocc  Nsocc
   -------------------------------------------------------
     A         38      38       0       0       0       0
   -------------------------------------------------------
    Total      38      38       9       9       9       0
   -------------------------------------------------------

  ==> Integral Setup <==

  DFHelper Memory: AOs need 0.003 [GiB]; user supplied 3.486 [GiB]. Using in-core AOs.

  ==> MemDFJK: Density-Fitted J/K Matrices <==

    J tasked:                   Yes
    K tasked:                   Yes
    wK tasked:                   No
    OpenMP threads:               1
    Memory (MB):               3570
    Algorithm:                 Core
    Schwarz Cutoff:           1E-12
    Mask sparsity (%):       0.0000
    Fitting Condition:        1E-12

   => Auxiliary Basis Set <=

  Basis Set: (CC-PVDZ AUX)
    Blend: CC-PVDZ-JKFIT
    Number of shells: 66
    Number of basis function: 186
    Number of Cartesian functions: 212
    Spherical Harmonics?: true
    Max angular momentum: 3

  Minimum eigenvalue in the overlap matrix is 2.4279508339E-02.
  Using Symmetric Orthogonalization.

  SCF Guess: Superposition of Atomic Densities via on-the-fly atomic UHF.

  ==> Iterations <==

                           Total Energy        Delta E     RMS |[F,P]|

   @DF-RKS iter   0:  -151.55694281406787   -1.51557e+02   4.82439e-02 
   @DF-RKS iter   1:  -151.52476880623183    3.21740e-02   6.78361e-03 
   @DF-RKS iter   2:  -151.52679234703155   -2.02354e-03   6.62735e-03 DIIS
   @DF-RKS iter   3:  -151.54972751539123   -2.29352e-02   7.98141e-04 DIIS
   @DF-RKS iter   4:  -151.55004015192432   -3.12637e-04   1.11420e-04 DIIS
   @DF-RKS iter   5:  -151.55003915643306    9.95491e-07   1.27037e-04 DIIS
   @DF-RKS iter   6:  -151.55004760642174   -8.44999e-06   1.21853e-05 DIIS
   @DF-RKS iter   7:  -151.55004770050442   -9.40827e-08   1.07087e-06 DIIS
   @DF-RKS iter   8:  -151.55004770168168   -1.17726e-09   1.06403e-07 DIIS
   @DF-RKS iter   9:  -151.55004770169560   -1.39266e-11   2.99985e-08 DIIS
   @DF-RKS iter  10:  -151.55004770169643   -8.24230e-13   3.67248e-09 DIIS

  ==> Post-Iterations <==

    Orbital Energies [Eh]
    ---------------------

    Doubly Occupied:                                                      

       1A    -19.185959     2A    -19.185918     3A     -1.109969  
       4A     -0.886391     5A     -0.500623     6A     -0.498253  
       7A     -0.399234     8A     -0.343170     9A     -0.247982  

    Virtual:                                                              

      10A      0.026325    11A      0.051653    12A      0.104960  
      13A      0.573163    14A      0.579288    15A      0.844814  
      16A      0.858176    17A      0.870947    18A      0.964965  
      19A      1.008984    20A      1.068822    21A      1.229467  
      22A      1.306484    23A      1.351001    24A      1.463610  
      25A      1.657171    26A      1.772615    27A      2.050906  
      28A      2.097968    29A      2.327279    30A      2.392240  
      31A      2.633748    32A      2.875748    33A      2.918716  
      34A      3.006591    35A      3.160951    36A      3.511996  
      37A      3.513663    38A      3.837402  

    Final Occupation by Irrep:
              A 
    DOCC [     9 ]

  Energy converged.

  @DF-RKS Final Energy:  -151.55004770169643

   => Energetics <=

    Nuclear Repulsion Energy =             36.7868669870827247
    One-Electron Energy =                -281.5738382094867802
    Two-Electron Energy =                 107.7003199890935434
    DFT Exchange-Correlation Energy =     -14.4630725083859257
    Empirical Dispersion Energy =          -0.0003239600000000
    VV10 Nonlocal Energy =                  0.0000000000000000
    Total Energy =                       -151.5500477016964282



Properties will be evaluated at   0.000000,   0.000000,   0.000000 [a0]

Properties computed using the SCF density matrix

  Nuclear Dipole Moment: [e a0]
     X:    59.1094      Y:    -1.6073      Z:     0.0761

  Electronic Dipole Moment: [e a0]
     X:   -59.1169      Y:     1.7016      Z:    -0.4067

  Dipole Moment: [e a0]
     X:    -0.0075      Y:     0.0943      Z:    -0.3306     Total:     0.3439

  Dipole Moment: [D]
     X:    -0.0191      Y:     0.2398      Z:    -0.8404     Total:     0.8741


*** tstop() called on loro.prib.upf.edu at Sat Sep 29 16:38:10 2018
Module time:
	user time   =       3.17 seconds =       0.05 minutes
	system time =       0.09 seconds =       0.00 minutes
	total time  =          4 seconds =       0.07 minutes
Total time:
	user time   =       3.17 seconds =       0.05 minutes
	system time =       0.09 seconds =       0.00 minutes
	total time  =          4 seconds =       0.07 minutes

*** tstart() called on loro.prib.upf.edu
*** at Sat Sep 29 16:38:10 2018


         ------------------------------------------------------------
                                   SCF GRAD                          
                          Rob Parrish, Justin Turney,                
                       Andy Simmonett, and Alex Sokolov              
         ------------------------------------------------------------

  ==> Geometry <==

    Molecular point group: c1
    Full point group: C1

    Geometry (in Angstrom), charge = 0, multiplicity = 1:

       Center              X                  Y                   Z               Mass       
    ------------   -----------------  -----------------  -----------------  -----------------
         O            1.014300000000    -0.002300000000     0.060500000000    15.994914619560
         O            2.462400000000    -0.107500000000    -0.002400000000    15.994914619560
         H            0.821200000000    -0.823600000000    -0.430600000000     1.007825032070
         H            2.644544000000     0.851452000000     0.006080000000     1.007825032070

  Nuclear repulsion =   36.786866987082725

  ==> Basis Set <==

  Basis Set: CC-PVDZ
    Blend: CC-PVDZ
    Number of shells: 18
    Number of basis function: 38
    Number of Cartesian functions: 40
    Spherical Harmonics?: true
    Max angular momentum: 2

  ==> DFJKGrad: Density-Fitted SCF Gradients <==

    Gradient:                    1
    J tasked:                  Yes
    K tasked:                  Yes
    wK tasked:                  No
    OpenMP threads:              1
    Integrals threads:           1
    Memory (MB):              3570
    Schwarz Cutoff:          0E+00
    Fitting Condition:       1E-12

   => Auxiliary Basis Set <=

  Basis Set: (CC-PVDZ AUX)
    Blend: CC-PVDZ-JKFIT
    Number of shells: 66
    Number of basis function: 186
    Number of Cartesian functions: 212
    Spherical Harmonics?: true
    Max angular momentum: 3

  ==> DFT Potential <==

   => Composite Functional: B3LYP-D3ZERO <= 

    B3LYP-d3zero Hyb-GGA Exchange-Correlation Functional

    P. J. Stephens, F. J. Devlin, C. F. Chabalowski, and M. J. Frisch, J. Phys. Chem. 98, 11623 (1994)

    Deriv               =              1
    GGA                 =           TRUE
    Meta                =          FALSE

    Exchange Hybrid     =           TRUE
    MP2 Hybrid          =          FALSE

   => Exchange Functionals <=

    0.0800   Slater exchange
    0.7200         Becke 88

   => Exact (HF) Exchange <=

    0.2000               HF 

   => Correlation Functionals <=

    0.1900   Vosko, Wilk & Nusair (VWN5_RPA)
    0.8100   Lee, Yang & Parr

   => Molecular Quadrature <=

    Radial Scheme       =       TREUTLER
    Pruning Scheme      =           FLAT
    Nuclear Scheme      =       TREUTLER

    BS radius alpha     =              1
    Pruning alpha       =              1
    Radial Points       =             75
    Spherical Points    =            302
    Total Points        =          88340
    Total Blocks        =            719
    Max Points          =            256
    Max Functions       =             38


  -Total Gradient:
     Atom            X                  Y                   Z
    ------   -----------------  -----------------  -----------------
       1        0.005412646245     0.010927971968     0.003602711690
       2       -0.005374508034    -0.011171977851    -0.002481083374
       3        0.004773982902    -0.004564582505    -0.002016717376
       4       -0.004812080959     0.004808171978     0.000896545301


*** tstop() called on loro.prib.upf.edu at Sat Sep 29 16:38:11 2018
Module time:
	user time   =       0.66 seconds =       0.01 minutes
	system time =       0.01 seconds =       0.00 minutes
	total time  =          1 seconds =       0.02 minutes
Total time:
	user time   =       3.83 seconds =       0.06 minutes
	system time =       0.10 seconds =       0.00 minutes
	total time  =          5 seconds =       0.08 minutes

			-----------------------------------------
			 OPTKING 2.0: for geometry optimizations 
			  - R.A. King,  Bethel University        
			-----------------------------------------
	At level 1: Red. Int., RFO, no backsteps, dynamic trust

	Internal coordinates to be generated automatically.
	Detected frag 1 with atoms:  1 2 3 4
	---Fragment 1 Bond Connectivity---
	 1 : 2 3
	 2 : 1 4
	 3 : 1
	 4 : 2

	Assuming in current code that numbering for constraints corresponds to unified fragment.
	Frozen dihedral atom list: 
	     3     1     2     4
	---Fragment 1 Geometry and Gradient---
	 O           1.9167492166       -0.0043463701        0.1143284310
	 O           4.6532616296       -0.2031455593       -0.0045353427
	 H           1.5518431003       -1.5563784430       -0.8137160728
	 H           4.9974639064        1.6090110953        0.0114895349
	             0.0054126462        0.0109279720        0.0036027117
	            -0.0053745080       -0.0111719779       -0.0024810834
	             0.0047739829       -0.0045645825       -0.0020167174
	            -0.0048120810        0.0048081720        0.0008965453

	Previous optimization step data not found.  Starting new optimization.

	---Fragment 1 Intrafragment Coordinates---
	 - Coordinate -           - BOHR/RAD -       - ANG/DEG -
	 R(1,2)           =         2.746297	       1.453278
	 R(1,3)           =         1.844784	       0.976217
	 R(2,4)           =         1.844626	       0.976134
	 B(1,2,4)         =         1.685490	      96.571477
	 B(2,1,3)         =         1.685473	      96.570488
	*D(3,1,2,4)       =         2.617994	     150.000003

	Current energy   :      -151.5500477017

	Generating empirical Hessian (Schlegel '84) for each fragment.
	Taking RFO optimization step.
	Going to follow RFO solution 1.
	Using RFO vector 1.
	Norm of target step-size    0.09532
	Projected energy change by RFO approximation:        -0.0024825610

	Back-transformation to cartesian coordinates...
	Successfully converged to displaced geometry.

	Back-transformation to cartesian coordinates to adjust frozen coordinates...
	Successfully converged to displaced geometry.

	--- Internal Coordinate Step in ANG or DEG, aJ/ANG or AJ/DEG ---
	 ---------------------------------------------------------------------------
	   Coordinate                Previous        Force       Change         New 
	   ----------                --------       ------       ------       ------
	    1 R(1,2)          =      1.453278     0.079254     0.013402     1.466680
	    2 R(1,3)          =      0.976217    -0.032210    -0.003956     0.972261
	    3 R(2,4)          =      0.976134    -0.031575    -0.003877     0.972257
	    4 B(1,2,4)        =     96.571477     0.000794     3.696517   100.267993
	    5 B(2,1,3)        =     96.570488     0.000794     3.697911   100.268398
	    6 *D(3,1,2,4)     =    150.000003     0.000000     0.000000   150.000003
	 ---------------------------------------------------------------------------
	Successfully symmetrized geometry.

  ==> Convergence Check <==

  Measures of convergence in internal coordinates in au.
  Criteria marked as inactive (o), active & met (*), and active & unmet ( ).
  --------------------------------------------------------------------------------------------- ~
   Step     Total Energy     Delta E     MAX Force     RMS Force      MAX Disp      RMS Disp    ~
  --------------------------------------------------------------------------------------------- ~
    Convergence Criteria    1.00e-06 *    3.00e-04 *             o    1.20e-03 *             o  ~
  --------------------------------------------------------------------------------------------- ~
      1    -151.55004770   -1.52e+02      1.04e-02      7.53e-03 o    6.45e-02      3.89e-02 o  ~
  ---------------------------------------------------------------------------------------------

	Writing optimization data to binary file.
	Structure for next step:
	Cartesian Geometry (in Angstrom)
	    O     1.0059597343  -0.0256761562   0.0522504707
	    O     2.4706681348  -0.0832327512   0.0025852785
	    H     0.7840271031  -0.8388262736  -0.4323363739
	    H     2.6817890278   0.8657871810   0.0110806247
			--------------------------
			 OPTKING Finished Execution 
			--------------------------

    Structure for next step:
    Molecular point group: c1
    Full point group: C1

    Geometry (in Angstrom), charge = 0, multiplicity = 1:

    O            1.005959734285    -0.025676156224     0.052250470686
    O            2.470668134840    -0.083232751157     0.002585278473
    H            0.784027103052    -0.838826273592    -0.432336373888
    H            2.681789027822     0.865787180974     0.011080624729

gradient() will perform analytic gradient computation.

*** tstart() called on loro.prib.upf.edu
*** at Sat Sep 29 16:38:11 2018

   => Loading Basis Set <=

    Name: CC-PVDZ
    Role: ORBITAL
    Keyword: BASIS
    atoms 1-2 entry O          line   198 file /shared/joao/test_parameterize/miniconda3/share/psi4/basis/cc-pvdz.gbs 
    atoms 3-4 entry H          line    22 file /shared/joao/test_parameterize/miniconda3/share/psi4/basis/cc-pvdz.gbs 


         ---------------------------------------------------------
                                   SCF
            by Justin Turney, Rob Parrish, Andy Simmonett
                             and Daniel Smith
                              RKS Reference
                        1 Threads,   5100 MiB Core
         ---------------------------------------------------------

  ==> Geometry <==

    Molecular point group: c1
    Full point group: C1

    Geometry (in Angstrom), charge = 0, multiplicity = 1:

       Center              X                  Y                   Z               Mass       
    ------------   -----------------  -----------------  -----------------  -----------------
         O            1.005959734285    -0.025676156224     0.052250470686    15.994914619560
         O            2.470668134840    -0.083232751157     0.002585278473    15.994914619560
         H            0.784027103052    -0.838826273592    -0.432336373888     1.007825032070
         H            2.681789027822     0.865787180974     0.011080624729     1.007825032070

  Running in c1 symmetry.

  Rotational constants: A =      9.46599  B =      0.13833  C =      0.13664 [cm^-1]
  Rotational constants: A = 283783.20932  B =   4147.05804  C =   4096.40724 [MHz]
  Nuclear repulsion =   36.463386183487088

  Charge       = 0
  Multiplicity = 1
  Electrons    = 18
  Nalpha       = 9
  Nbeta        = 9

  ==> Algorithm <==

  SCF Algorithm Type is DF.
  DIIS enabled.
  MOM disabled.
  Fractional occupation disabled.
  Guess Type is READ.
  Energy threshold   = 1.00e-08
  Density threshold  = 1.00e-08
  Integral threshold = 0.00e+00

  ==> Primary Basis <==

  Basis Set: CC-PVDZ
    Blend: CC-PVDZ
    Number of shells: 18
    Number of basis function: 38
    Number of Cartesian functions: 40
    Spherical Harmonics?: true
    Max angular momentum: 2

  ==> DFT Potential <==

   => Composite Functional: B3LYP-D3ZERO <= 

    B3LYP-d3zero Hyb-GGA Exchange-Correlation Functional

    P. J. Stephens, F. J. Devlin, C. F. Chabalowski, and M. J. Frisch, J. Phys. Chem. 98, 11623 (1994)

    Deriv               =              1
    GGA                 =           TRUE
    Meta                =          FALSE

    Exchange Hybrid     =           TRUE
    MP2 Hybrid          =          FALSE

   => Exchange Functionals <=

    0.0800   Slater exchange
    0.7200         Becke 88

   => Exact (HF) Exchange <=

    0.2000               HF 

   => Correlation Functionals <=

    0.1900   Vosko, Wilk & Nusair (VWN5_RPA)
    0.8100   Lee, Yang & Parr

   => Molecular Quadrature <=

    Radial Scheme       =       TREUTLER
    Pruning Scheme      =           FLAT
    Nuclear Scheme      =       TREUTLER

    BS radius alpha     =              1
    Pruning alpha       =              1
    Radial Points       =             75
    Spherical Points    =            302
    Total Points        =          88340
    Total Blocks        =            716
    Max Points          =            255
    Max Functions       =             38

   => -D3ZERO: Empirical Dispersion <=

    Grimme's -D3 (zero-damping) Dispersion Correction
    Grimme S.; Antony J.; Ehrlich S.; Krieg H. (2010), J. Chem. Phys., 132: 154104

        S6 =   1.000000E+00
        S8 =   1.703000E+00
       SR6 =   1.261000E+00
       SR8 =   1.000000E+00
    ALPHA6 =   1.400000E+01

   => Loading Basis Set <=

    Name: (CC-PVDZ AUX)
    Role: JKFIT
    Keyword: DF_BASIS_SCF
    atoms 1-2 entry O          line   221 file /shared/joao/test_parameterize/miniconda3/share/psi4/basis/cc-pvdz-jkfit.gbs 
    atoms 3-4 entry H          line    51 file /shared/joao/test_parameterize/miniconda3/share/psi4/basis/cc-pvdz-jkfit.gbs 

  Reading orbitals from file 180, no projection.

  ==> Pre-Iterations <==

   -------------------------------------------------------
    Irrep   Nso     Nmo     Nalpha   Nbeta   Ndocc  Nsocc
   -------------------------------------------------------
     A         38      38       0       0       0       0
   -------------------------------------------------------
    Total      38      38       9       9       9       0
   -------------------------------------------------------

  ==> Integral Setup <==

  DFHelper Memory: AOs need 0.003 [GiB]; user supplied 3.486 [GiB]. Using in-core AOs.

  ==> MemDFJK: Density-Fitted J/K Matrices <==

    J tasked:                   Yes
    K tasked:                   Yes
    wK tasked:                   No
    OpenMP threads:               1
    Memory (MB):               3570
    Algorithm:                 Core
    Schwarz Cutoff:           1E-12
    Mask sparsity (%):       0.0000
    Fitting Condition:        1E-12

   => Auxiliary Basis Set <=

  Basis Set: (CC-PVDZ AUX)
    Blend: CC-PVDZ-JKFIT
    Number of shells: 66
    Number of basis function: 186
    Number of Cartesian functions: 212
    Spherical Harmonics?: true
    Max angular momentum: 3

  Minimum eigenvalue in the overlap matrix is 2.5379855520E-02.
  Using Symmetric Orthogonalization.

  SCF Guess: Orbitals guess was supplied from a previous computation.

  ==> Iterations <==

                           Total Energy        Delta E     RMS |[F,P]|

   @DF-RKS iter   0:  -151.55141623179458   -1.51551e+02   1.30157e-03 
   @DF-RKS iter   1:  -151.55021659128974    1.19964e-03   2.21426e-04 
   @DF-RKS iter   2:  -151.55024150257748   -2.49113e-05   1.16565e-04 DIIS
   @DF-RKS iter   3:  -151.55024796457045   -6.46199e-06   2.73854e-05 DIIS
   @DF-RKS iter   4:  -151.55024836962292   -4.05052e-07   7.82214e-06 DIIS
   @DF-RKS iter   5:  -151.55024841101562   -4.13927e-08   1.90540e-06 DIIS
   @DF-RKS iter   6:  -151.55024841169538   -6.79762e-10   1.80408e-06 DIIS
   @DF-RKS iter   7:  -151.55024841348117   -1.78579e-09   1.57770e-07 DIIS
   @DF-RKS iter   8:  -151.55024841350340   -2.22258e-11   1.43197e-08 DIIS
   @DF-RKS iter   9:  -151.55024841350357   -1.70530e-13   2.52565e-09 DIIS

  ==> Post-Iterations <==

    Orbital Energies [Eh]
    ---------------------

    Doubly Occupied:                                                      

       1A    -19.185991     2A    -19.185954     3A     -1.101057  
       4A     -0.892065     5A     -0.507310     6A     -0.491395  
       7A     -0.393842     8A     -0.339432     9A     -0.249764  

    Virtual:                                                              

      10A      0.015737    11A      0.054869    12A      0.105541  
      13A      0.573571    14A      0.581045    15A      0.843886  
      16A      0.870577    17A      0.872267    18A      0.969661  
      19A      1.007582    20A      1.068945    21A      1.253169  
      22A      1.297972    23A      1.354050    24A      1.464115  
      25A      1.627763    26A      1.782350    27A      2.058510  
      28A      2.102366    29A      2.339864    30A      2.378604  
      31A      2.626427    32A      2.882855    33A      2.922308  
      34A      2.987265    35A      3.161998    36A      3.519586  
      37A      3.527520    38A      3.815961  

    Final Occupation by Irrep:
              A 
    DOCC [     9 ]

  Energy converged.

  @DF-RKS Final Energy:  -151.55024841350357

   => Energetics <=

    Nuclear Repulsion Energy =             36.4633861834870885
    One-Electron Energy =                -280.9514674554994826
    Two-Electron Energy =                 107.3967369678348689
    DFT Exchange-Correlation Energy =     -14.4585462493260604
    Empirical Dispersion Energy =          -0.0003578600000000
    VV10 Nonlocal Energy =                  0.0000000000000000
    Total Energy =                       -151.5502484135035672



Properties will be evaluated at   0.000000,   0.000000,   0.000000 [a0]

Properties computed using the SCF density matrix

  Nuclear Dipole Moment: [e a0]
     X:    59.1084      Y:    -1.5955      Z:     0.0329

  Electronic Dipole Moment: [e a0]
     X:   -59.1160      Y:     1.6899      Z:    -0.3638

  Dipole Moment: [e a0]
     X:    -0.0075      Y:     0.0944      Z:    -0.3309     Total:     0.3442

  Dipole Moment: [D]
     X:    -0.0191      Y:     0.2400      Z:    -0.8410     Total:     0.8748


*** tstop() called on loro.prib.upf.edu at Sat Sep 29 16:38:15 2018
Module time:
	user time   =       2.41 seconds =       0.04 minutes
	system time =       0.06 seconds =       0.00 minutes
	total time  =          4 seconds =       0.07 minutes
Total time:
	user time   =       6.26 seconds =       0.10 minutes
	system time =       0.17 seconds =       0.00 minutes
	total time  =          9 seconds =       0.15 minutes

*** tstart() called on loro.prib.upf.edu
*** at Sat Sep 29 16:38:15 2018


         ------------------------------------------------------------
                                   SCF GRAD                          
                          Rob Parrish, Justin Turney,                
                       Andy Simmonett, and Alex Sokolov              
         ------------------------------------------------------------

  ==> Geometry <==

    Molecular point group: c1
    Full point group: C1

    Geometry (in Angstrom), charge = 0, multiplicity = 1:

       Center              X                  Y                   Z               Mass       
    ------------   -----------------  -----------------  -----------------  -----------------
         O            1.005959734285    -0.025676156224     0.052250470686    15.994914619560
         O            2.470668134840    -0.083232751157     0.002585278473    15.994914619560
         H            0.784027103052    -0.838826273592    -0.432336373888     1.007825032070
         H            2.681789027822     0.865787180974     0.011080624729     1.007825032070

  Nuclear repulsion =   36.463386183487088

  ==> Basis Set <==

  Basis Set: CC-PVDZ
    Blend: CC-PVDZ
    Number of shells: 18
    Number of basis function: 38
    Number of Cartesian functions: 40
    Spherical Harmonics?: true
    Max angular momentum: 2

  ==> DFJKGrad: Density-Fitted SCF Gradients <==

    Gradient:                    1
    J tasked:                  Yes
    K tasked:                  Yes
    wK tasked:                  No
    OpenMP threads:              1
    Integrals threads:           1
    Memory (MB):              3570
    Schwarz Cutoff:          0E+00
    Fitting Condition:       1E-12

   => Auxiliary Basis Set <=

  Basis Set: (CC-PVDZ AUX)
    Blend: CC-PVDZ-JKFIT
    Number of shells: 66
    Number of basis function: 186
    Number of Cartesian functions: 212
    Spherical Harmonics?: true
    Max angular momentum: 3

  ==> DFT Potential <==

   => Composite Functional: B3LYP-D3ZERO <= 

    B3LYP-d3zero Hyb-GGA Exchange-Correlation Functional

    P. J. Stephens, F. J. Devlin, C. F. Chabalowski, and M. J. Frisch, J. Phys. Chem. 98, 11623 (1994)

    Deriv               =              1
    GGA                 =           TRUE
    Meta                =          FALSE

    Exchange Hybrid     =           TRUE
    MP2 Hybrid          =          FALSE

   => Exchange Functionals <=

    0.0800   Slater exchange
    0.7200         Becke 88

   => Exact (HF) Exchange <=

    0.2000               HF 

   => Correlation Functionals <=

    0.1900   Vosko, Wilk & Nusair (VWN5_RPA)
    0.8100   Lee, Yang & Parr

   => Molecular Quadrature <=

    Radial Scheme       =       TREUTLER
    Pruning Scheme      =           FLAT
    Nuclear Scheme      =       TREUTLER

    BS radius alpha     =              1
    Pruning alpha       =              1
    Radial Points       =             75
    Spherical Points    =            302
    Total Points        =          88340
    Total Blocks        =            716
    Max Points          =            255
    Max Functions       =             38


  -Total Gradient:
     Atom            X                  Y                   Z
    ------   -----------------  -----------------  -----------------
       1       -0.002995177535    -0.005320134865    -0.002662747457
       2        0.002945848639     0.005963540568     0.000421882610
       3       -0.004213378100     0.000311088057     0.001390607437
       4        0.004262452445    -0.000951296580     0.000839052135


*** tstop() called on loro.prib.upf.edu at Sat Sep 29 16:38:16 2018
Module time:
	user time   =       0.68 seconds =       0.01 minutes
	system time =       0.02 seconds =       0.00 minutes
	total time  =          1 seconds =       0.02 minutes
Total time:
	user time   =       6.94 seconds =       0.12 minutes
	system time =       0.20 seconds =       0.00 minutes
	total time  =         10 seconds =       0.17 minutes

			-----------------------------------------
			 OPTKING 2.0: for geometry optimizations 
			  - R.A. King,  Bethel University        
			-----------------------------------------
	At level 1: Red. Int., RFO, no backsteps, dynamic trust

	Previous internal coordinate definitions found.
	---Fragment 1 Geometry and Gradient---
	 O           1.9009883985       -0.0485209034        0.0987390799
	 O           4.6688861401       -0.1572871050        0.0048854683
	 H           1.4815965055       -1.5851519302       -0.8169973439
	 H           5.0678468088        1.6361006614        0.0209393461
	            -0.0029951775       -0.0053201349       -0.0026627475
	             0.0029458486        0.0059635406        0.0004218826
	            -0.0042133781        0.0003110881        0.0013906074
	             0.0042624524       -0.0009512966        0.0008390521

	---Fragment 1 Intrafragment Coordinates---
	 - Coordinate -           - BOHR/RAD -       - ANG/DEG -
	 R(1,2)           =         2.771623	       1.466680
	 R(1,3)           =         1.837307	       0.972261
	 R(2,4)           =         1.837299	       0.972257
	 B(1,2,4)         =         1.750007	     100.267993
	 B(2,1,3)         =         1.750014	     100.268398
	*D(3,1,2,4)       =         2.617994	     150.000003

	Current energy   :      -151.5502484135

	Energy change for the previous step:
		Projected    :        -0.0024825610
		Actual       :        -0.0002007118
	Energy ratio indicates iffy step: Trust radius decreased to 1.250e-01.


	Performing BFGS update.
	Previous computed or guess Hessian on step 1.
	Steps to be used in Hessian update: 1
	Taking RFO optimization step.
	Going to follow RFO solution 1.
	Using RFO vector 1.
	Norm of target step-size    0.04094
	Projected energy change by RFO approximation:        -0.0001886113

	Back-transformation to cartesian coordinates...
	Successfully converged to displaced geometry.

	Back-transformation to cartesian coordinates to adjust frozen coordinates...
	Successfully converged to displaced geometry.

	--- Internal Coordinate Step in ANG or DEG, aJ/ANG or AJ/DEG ---
	 ---------------------------------------------------------------------------
	   Coordinate                Previous        Force       Change         New 
	   ----------                --------       ------       ------       ------
	    1 R(1,2)          =      1.466680    -0.057358    -0.005513     1.461167
	    2 R(1,3)          =      0.972261    -0.000046    -0.000035     0.972226
	    3 R(2,4)          =      0.972257    -0.000012    -0.000032     0.972225
	    4 B(1,2,4)        =    100.267993    -0.000606    -1.604271    98.663722
	    5 B(2,1,3)        =    100.268398    -0.000607    -1.604512    98.663886
	    6 *D(3,1,2,4)     =    150.000003     0.000000     0.000000   150.000003
	 ---------------------------------------------------------------------------
	Successfully symmetrized geometry.

  ==> Convergence Check <==

  Measures of convergence in internal coordinates in au.
  Criteria marked as inactive (o), active & met (*), and active & unmet ( ).
  ---------------------------------------------------------------------------------------------
   Step     Total Energy     Delta E     MAX Force     RMS Force      MAX Disp      RMS Disp   
  ---------------------------------------------------------------------------------------------
    Convergence Criteria    1.00e-06 *    3.00e-04 *             o    1.20e-03 *             o
  ---------------------------------------------------------------------------------------------
      2    -151.55024841   -2.01e-04      7.97e-03      5.41e-03 o    2.80e-02      1.67e-02 o  ~
  ---------------------------------------------------------------------------------------------

	Writing optimization data to binary file.
	Structure for next step:
	Cartesian Geometry (in Angstrom)
	    O     1.0092886806  -0.0159219048   0.0555571660
	    O     2.4673620041  -0.0933036586   0.0003842197
	    H     0.8008324170  -0.8313142489  -0.4311719651
	    H     2.6649608983   0.8585918123   0.0088105794
			--------------------------
			 OPTKING Finished Execution 
			--------------------------

    Structure for next step:
    Molecular point group: c1
    Full point group: C1

    Geometry (in Angstrom), charge = 0, multiplicity = 1:

    O            1.009288680617    -0.015921904790     0.055557165985
    O            2.467362004068    -0.093303658640     0.000384219689
    H            0.800832417020    -0.831314248879    -0.431171965050
    H            2.664960898295     0.858591812309     0.008810579377

gradient() will perform analytic gradient computation.

*** tstart() called on loro.prib.upf.edu
*** at Sat Sep 29 16:38:16 2018

   => Loading Basis Set <=

    Name: CC-PVDZ
    Role: ORBITAL
    Keyword: BASIS
    atoms 1-2 entry O          line   198 file /shared/joao/test_parameterize/miniconda3/share/psi4/basis/cc-pvdz.gbs 
    atoms 3-4 entry H          line    22 file /shared/joao/test_parameterize/miniconda3/share/psi4/basis/cc-pvdz.gbs 


         ---------------------------------------------------------
                                   SCF
            by Justin Turney, Rob Parrish, Andy Simmonett
                             and Daniel Smith
                              RKS Reference
                        1 Threads,   5100 MiB Core
         ---------------------------------------------------------

  ==> Geometry <==

    Molecular point group: c1
    Full point group: C1

    Geometry (in Angstrom), charge = 0, multiplicity = 1:

       Center              X                  Y                   Z               Mass       
    ------------   -----------------  -----------------  -----------------  -----------------
         O            1.009288680617    -0.015921904790     0.055557165985    15.994914619560
         O            2.467362004068    -0.093303658640     0.000384219689    15.994914619560
         H            0.800832417020    -0.831314248879    -0.431171965050     1.007825032070
         H            2.664960898295     0.858591812309     0.008810579377     1.007825032070

  Running in c1 symmetry.

  Rotational constants: A =      9.51064  B =      0.13857  C =      0.13688 [cm^-1]
  Rotational constants: A = 285121.72569  B =   4154.09106  C =   4103.65752 [MHz]
  Nuclear repulsion =   36.614577015286450

  Charge       = 0
  Multiplicity = 1
  Electrons    = 18
  Nalpha       = 9
  Nbeta        = 9

  ==> Algorithm <==

  SCF Algorithm Type is DF.
  DIIS enabled.
  MOM disabled.
  Fractional occupation disabled.
  Guess Type is READ.
  Energy threshold   = 1.00e-08
  Density threshold  = 1.00e-08
  Integral threshold = 0.00e+00

  ==> Primary Basis <==

  Basis Set: CC-PVDZ
    Blend: CC-PVDZ
    Number of shells: 18
    Number of basis function: 38
    Number of Cartesian functions: 40
    Spherical Harmonics?: true
    Max angular momentum: 2

  ==> DFT Potential <==

   => Composite Functional: B3LYP-D3ZERO <= 

    B3LYP-d3zero Hyb-GGA Exchange-Correlation Functional

    P. J. Stephens, F. J. Devlin, C. F. Chabalowski, and M. J. Frisch, J. Phys. Chem. 98, 11623 (1994)

    Deriv               =              1
    GGA                 =           TRUE
    Meta                =          FALSE

    Exchange Hybrid     =           TRUE
    MP2 Hybrid          =          FALSE

   => Exchange Functionals <=

    0.0800   Slater exchange
    0.7200         Becke 88

   => Exact (HF) Exchange <=

    0.2000               HF 

   => Correlation Functionals <=

    0.1900   Vosko, Wilk & Nusair (VWN5_RPA)
    0.8100   Lee, Yang & Parr

   => Molecular Quadrature <=

    Radial Scheme       =       TREUTLER
    Pruning Scheme      =           FLAT
    Nuclear Scheme      =       TREUTLER

    BS radius alpha     =              1
    Pruning alpha       =              1
    Radial Points       =             75
    Spherical Points    =            302
    Total Points        =          88336
    Total Blocks        =            722
    Max Points          =            256
    Max Functions       =             38

   => -D3ZERO: Empirical Dispersion <=

    Grimme's -D3 (zero-damping) Dispersion Correction
    Grimme S.; Antony J.; Ehrlich S.; Krieg H. (2010), J. Chem. Phys., 132: 154104

        S6 =   1.000000E+00
        S8 =   1.703000E+00
       SR6 =   1.261000E+00
       SR8 =   1.000000E+00
    ALPHA6 =   1.400000E+01

   => Loading Basis Set <=

    Name: (CC-PVDZ AUX)
    Role: JKFIT
    Keyword: DF_BASIS_SCF
    atoms 1-2 entry O          line   221 file /shared/joao/test_parameterize/miniconda3/share/psi4/basis/cc-pvdz-jkfit.gbs 
    atoms 3-4 entry H          line    51 file /shared/joao/test_parameterize/miniconda3/share/psi4/basis/cc-pvdz-jkfit.gbs 

  Reading orbitals from file 180, no projection.

  ==> Pre-Iterations <==

   -------------------------------------------------------
    Irrep   Nso     Nmo     Nalpha   Nbeta   Ndocc  Nsocc
   -------------------------------------------------------
     A         38      38       0       0       0       0
   -------------------------------------------------------
    Total      38      38       9       9       9       0
   -------------------------------------------------------

  ==> Integral Setup <==

  DFHelper Memory: AOs need 0.003 [GiB]; user supplied 3.486 [GiB]. Using in-core AOs.

  ==> MemDFJK: Density-Fitted J/K Matrices <==

    J tasked:                   Yes
    K tasked:                   Yes
    wK tasked:                   No
    OpenMP threads:               1
    Memory (MB):               3570
    Algorithm:                 Core
    Schwarz Cutoff:           1E-12
    Mask sparsity (%):       0.0000
    Fitting Condition:        1E-12

   => Auxiliary Basis Set <=

  Basis Set: (CC-PVDZ AUX)
    Blend: CC-PVDZ-JKFIT
    Number of shells: 66
    Number of basis function: 186
    Number of Cartesian functions: 212
    Spherical Harmonics?: true
    Max angular momentum: 3

  Minimum eigenvalue in the overlap matrix is 2.4845642642E-02.
  Using Symmetric Orthogonalization.

  SCF Guess: Orbitals guess was supplied from a previous computation.

  ==> Iterations <==

                           Total Energy        Delta E     RMS |[F,P]|

   @DF-RKS iter   0:  -151.55228291733556   -1.51552e+02   5.38447e-04 
   @DF-RKS iter   1:  -151.55051221159343    1.77071e-03   8.13829e-05 
   @DF-RKS iter   2:  -151.55051592680937   -3.71522e-06   3.87335e-05 DIIS
   @DF-RKS iter   3:  -151.55051666851895   -7.41710e-07   4.42831e-06 DIIS
   @DF-RKS iter   4:  -151.55051668032419   -1.18052e-08   3.31774e-06 DIIS
   @DF-RKS iter   5:  -151.55051668673369   -6.40949e-09   4.10477e-07 DIIS
   @DF-RKS iter   6:  -151.55051668688222   -1.48532e-10   1.76775e-07 DIIS
   @DF-RKS iter   7:  -151.55051668688924   -7.02016e-12   1.51795e-07 DIIS
   @DF-RKS iter   8:  -151.55051668690166   -1.24203e-11   5.56488e-09 DIIS

  ==> Post-Iterations <==

    Orbital Energies [Eh]
    ---------------------

    Doubly Occupied:                                                      

       1A    -19.185953     2A    -19.185915     3A     -1.105087  
       4A     -0.890328     5A     -0.503754     6A     -0.495505  
       7A     -0.396210     8A     -0.341329     9A     -0.249173  

    Virtual:                                                              

      10A      0.020243    11A      0.053928    12A      0.105655  
      13A      0.577359    14A      0.579223    15A      0.844287  
      16A      0.864824    17A      0.871304    18A      0.967702  
      19A      1.007930    20A      1.069056    21A      1.243332  
      22A      1.301766    23A      1.353061    24A      1.463861  
      25A      1.641326    26A      1.776829    27A      2.058588  
      28A      2.104943    29A      2.334293    30A      2.383289  
      31A      2.629820    32A      2.881798    33A      2.922597  
      34A      2.995162    35A      3.164436    36A      3.517749  
      37A      3.521302    38A      3.826779  

    Final Occupation by Irrep:
              A 
    DOCC [     9 ]

  Energy converged.

  @DF-RKS Final Energy:  -151.55051668690166

   => Energetics <=

    Nuclear Repulsion Energy =             36.6145770152864500
    One-Electron Energy =                -281.2395430738110917
    Two-Electron Energy =                 107.5363594386308534
    DFT Exchange-Correlation Energy =     -14.4615674870078728
    Empirical Dispersion Energy =          -0.0003425800000000
    VV10 Nonlocal Energy =                  0.0000000000000000
    Total Energy =                       -151.5505166869016591



Properties will be evaluated at   0.000000,   0.000000,   0.000000 [a0]

Properties computed using the SCF density matrix

  Nuclear Dipole Moment: [e a0]
     X:    59.1087      Y:    -1.5997      Z:     0.0476

  Electronic Dipole Moment: [e a0]
     X:   -59.1162      Y:     1.6941      Z:    -0.3782

  Dipole Moment: [e a0]
     X:    -0.0075      Y:     0.0944      Z:    -0.3306     Total:     0.3439

  Dipole Moment: [D]
     X:    -0.0191      Y:     0.2398      Z:    -0.8404     Total:     0.8741


*** tstop() called on loro.prib.upf.edu at Sat Sep 29 16:38:19 2018
Module time:
	user time   =       2.19 seconds =       0.04 minutes
	system time =       0.07 seconds =       0.00 minutes
	total time  =          3 seconds =       0.05 minutes
Total time:
	user time   =       9.15 seconds =       0.15 minutes
	system time =       0.27 seconds =       0.00 minutes
	total time  =         13 seconds =       0.22 minutes

*** tstart() called on loro.prib.upf.edu
*** at Sat Sep 29 16:38:19 2018


         ------------------------------------------------------------
                                   SCF GRAD                          
                          Rob Parrish, Justin Turney,                
                       Andy Simmonett, and Alex Sokolov              
         ------------------------------------------------------------

  ==> Geometry <==

    Molecular point group: c1
    Full point group: C1

    Geometry (in Angstrom), charge = 0, multiplicity = 1:

       Center              X                  Y                   Z               Mass       
    ------------   -----------------  -----------------  -----------------  -----------------
         O            1.009288680617    -0.015921904790     0.055557165985    15.994914619560
         O            2.467362004068    -0.093303658640     0.000384219689    15.994914619560
         H            0.800832417020    -0.831314248879    -0.431171965050     1.007825032070
         H            2.664960898295     0.858591812309     0.008810579377     1.007825032070

  Nuclear repulsion =   36.614577015286450

  ==> Basis Set <==

  Basis Set: CC-PVDZ
    Blend: CC-PVDZ
    Number of shells: 18
    Number of basis function: 38
    Number of Cartesian functions: 40
    Spherical Harmonics?: true
    Max angular momentum: 2

  ==> DFJKGrad: Density-Fitted SCF Gradients <==

    Gradient:                    1
    J tasked:                  Yes
    K tasked:                  Yes
    wK tasked:                  No
    OpenMP threads:              1
    Integrals threads:           1
    Memory (MB):              3570
    Schwarz Cutoff:          0E+00
    Fitting Condition:       1E-12

   => Auxiliary Basis Set <=

  Basis Set: (CC-PVDZ AUX)
    Blend: CC-PVDZ-JKFIT
    Number of shells: 66
    Number of basis function: 186
    Number of Cartesian functions: 212
    Spherical Harmonics?: true
    Max angular momentum: 3

  ==> DFT Potential <==

   => Composite Functional: B3LYP-D3ZERO <= 

    B3LYP-d3zero Hyb-GGA Exchange-Correlation Functional

    P. J. Stephens, F. J. Devlin, C. F. Chabalowski, and M. J. Frisch, J. Phys. Chem. 98, 11623 (1994)

    Deriv               =              1
    GGA                 =           TRUE
    Meta                =          FALSE

    Exchange Hybrid     =           TRUE
    MP2 Hybrid          =          FALSE

   => Exchange Functionals <=

    0.0800   Slater exchange
    0.7200         Becke 88

   => Exact (HF) Exchange <=

    0.2000               HF 

   => Correlation Functionals <=

    0.1900   Vosko, Wilk & Nusair (VWN5_RPA)
    0.8100   Lee, Yang & Parr

   => Molecular Quadrature <=

    Radial Scheme       =       TREUTLER
    Pruning Scheme      =           FLAT
    Nuclear Scheme      =       TREUTLER

    BS radius alpha     =              1
    Pruning alpha       =              1
    Radial Points       =             75
    Spherical Points    =            302
    Total Points        =          88336
    Total Blocks        =            722
    Max Points          =            256
    Max Functions       =             38


  -Total Gradient:
     Atom            X                  Y                   Z
    ------   -----------------  -----------------  -----------------
       1       -0.000255166899     0.000404692806    -0.000682163608
       2        0.000221997368     0.000020316457    -0.000802911858
       3       -0.000116369065    -0.000477802569     0.000665109143
       4        0.000149346764     0.000055203369     0.000811520704


*** tstop() called on loro.prib.upf.edu at Sat Sep 29 16:38:20 2018
Module time:
	user time   =       0.68 seconds =       0.01 minutes
	system time =       0.02 seconds =       0.00 minutes
	total time  =          1 seconds =       0.02 minutes
Total time:
	user time   =       9.83 seconds =       0.16 minutes
	system time =       0.29 seconds =       0.00 minutes
	total time  =         14 seconds =       0.23 minutes

			-----------------------------------------
			 OPTKING 2.0: for geometry optimizations 
			  - R.A. King,  Bethel University        
			-----------------------------------------
	At level 1: Red. Int., RFO, no backsteps, dynamic trust

	Previous internal coordinate definitions found.
	---Fragment 1 Geometry and Gradient---
	 O           1.9072791954       -0.0300880396        0.1049878284
	 O           4.6626384584       -0.1763183620        0.0007260700
	 H           1.5133539465       -1.5709562607       -0.8147969301
	 H           5.0360462526        1.6225033852        0.0166495821
	            -0.0002551669        0.0004046928       -0.0006821636
	             0.0002219974        0.0000203165       -0.0008029119
	            -0.0001163691       -0.0004778026        0.0006651091
	             0.0001493468        0.0000552034        0.0008115207

	---Fragment 1 Intrafragment Coordinates---
	 - Coordinate -           - BOHR/RAD -       - ANG/DEG -
	 R(1,2)           =         2.761206	       1.461167
	 R(1,3)           =         1.837241	       0.972226
	 R(2,4)           =         1.837239	       0.972225
	 B(1,2,4)         =         1.722007	      98.663722
	 B(2,1,3)         =         1.722010	      98.663886
	*D(3,1,2,4)       =         2.617994	     150.000003

	Current energy   :      -151.5505166869

	Energy change for the previous step:
		Projected    :        -0.0001886113
		Actual       :        -0.0002682734
	Energy ratio indicates good step: Trust radius increased to 3.750e-01.


	Performing BFGS update.
	Previous computed or guess Hessian on step 1.
	Steps to be used in Hessian update: 2 1
	Taking RFO optimization step.
	Going to follow RFO solution 1.
	Using RFO vector 1.
	Norm of target step-size    0.00113
	Projected energy change by RFO approximation:        -0.0000001283

	Back-transformation to cartesian coordinates...
	Successfully converged to displaced geometry.

	Back-transformation to cartesian coordinates to adjust frozen coordinates...
	Successfully converged to displaced geometry.

	--- Internal Coordinate Step in ANG or DEG, aJ/ANG or AJ/DEG ---
	 ---------------------------------------------------------------------------
	   Coordinate                Previous        Force       Change         New 
	   ----------                --------       ------       ------       ------
	    1 R(1,2)          =      1.461167    -0.003037    -0.000388     1.460779
	    2 R(1,3)          =      0.972226    -0.000745    -0.000094     0.972132
	    3 R(2,4)          =      0.972225    -0.000734    -0.000093     0.972132
	    4 B(1,2,4)        =     98.663722    -0.000015    -0.033230    98.630492
	    5 B(2,1,3)        =     98.663886    -0.000015    -0.033406    98.630480
	    6 *D(3,1,2,4)     =    150.000003     0.000000     0.000000   150.000003
	 ---------------------------------------------------------------------------
	Successfully symmetrized geometry.

  ==> Convergence Check <==

  Measures of convergence in internal coordinates in au.
  Criteria marked as inactive (o), active & met (*), and active & unmet ( ).
  ---------------------------------------------------------------------------------------------
   Step     Total Energy     Delta E     MAX Force     RMS Force      MAX Disp      RMS Disp   
  ---------------------------------------------------------------------------------------------
    Convergence Criteria    1.00e-06 *    3.00e-04 *             o    1.20e-03 *             o
  ---------------------------------------------------------------------------------------------
      3    -151.55051669   -2.68e-04      3.69e-04      1.95e-04 o    7.33e-04 *    4.61e-04 o  ~
  ---------------------------------------------------------------------------------------------

	Writing optimization data to binary file.
	Structure for next step:
	Cartesian Geometry (in Angstrom)
	    O     1.0094960118  -0.0157034530   0.0556140076
	    O     2.4671530907  -0.0935219752   0.0003254825
	    H     0.8013143023  -0.8310576970  -0.4311086303
	    H     2.6644805952   0.8583351252   0.0087491402
			--------------------------
			 OPTKING Finished Execution 
			--------------------------

    Structure for next step:
    Molecular point group: c1
    Full point group: C1

    Geometry (in Angstrom), charge = 0, multiplicity = 1:

    O            1.009496011757    -0.015703452986     0.055614007587
    O            2.467153090657    -0.093521975195     0.000325482524
    H            0.801314302346    -0.831057697013    -0.431108630327
    H            2.664480595241     0.858335125193     0.008749140216

gradient() will perform analytic gradient computation.

*** tstart() called on loro.prib.upf.edu
*** at Sat Sep 29 16:38:20 2018

   => Loading Basis Set <=

    Name: CC-PVDZ
    Role: ORBITAL
    Keyword: BASIS
    atoms 1-2 entry O          line   198 file /shared/joao/test_parameterize/miniconda3/share/psi4/basis/cc-pvdz.gbs 
    atoms 3-4 entry H          line    22 file /shared/joao/test_parameterize/miniconda3/share/psi4/basis/cc-pvdz.gbs 


         ---------------------------------------------------------
                                   SCF
            by Justin Turney, Rob Parrish, Andy Simmonett
                             and Daniel Smith
                              RKS Reference
                        1 Threads,   5100 MiB Core
         ---------------------------------------------------------

  ==> Geometry <==

    Molecular point group: c1
    Full point group: C1

    Geometry (in Angstrom), charge = 0, multiplicity = 1:

       Center              X                  Y                   Z               Mass       
    ------------   -----------------  -----------------  -----------------  -----------------
         O            1.009496011757    -0.015703452986     0.055614007587    15.994914619560
         O            2.467153090657    -0.093521975195     0.000325482524    15.994914619560
         H            0.801314302346    -0.831057697013    -0.431108630327     1.007825032070
         H            2.664480595241     0.858335125193     0.008749140216     1.007825032070

  Running in c1 symmetry.

  Rotational constants: A =      9.51339  B =      0.13858  C =      0.13690 [cm^-1]
  Rotational constants: A = 285204.28232  B =   4154.47950  C =   4104.05339 [MHz]
  Nuclear repulsion =   36.623652801693829

  Charge       = 0
  Multiplicity = 1
  Electrons    = 18
  Nalpha       = 9
  Nbeta        = 9

  ==> Algorithm <==

  SCF Algorithm Type is DF.
  DIIS enabled.
  MOM disabled.
  Fractional occupation disabled.
  Guess Type is READ.
  Energy threshold   = 1.00e-08
  Density threshold  = 1.00e-08
  Integral threshold = 0.00e+00

  ==> Primary Basis <==

  Basis Set: CC-PVDZ
    Blend: CC-PVDZ
    Number of shells: 18
    Number of basis function: 38
    Number of Cartesian functions: 40
    Spherical Harmonics?: true
    Max angular momentum: 2

  ==> DFT Potential <==

   => Composite Functional: B3LYP-D3ZERO <= 

    B3LYP-d3zero Hyb-GGA Exchange-Correlation Functional

    P. J. Stephens, F. J. Devlin, C. F. Chabalowski, and M. J. Frisch, J. Phys. Chem. 98, 11623 (1994)

    Deriv               =              1
    GGA                 =           TRUE
    Meta                =          FALSE

    Exchange Hybrid     =           TRUE
    MP2 Hybrid          =          FALSE

   => Exchange Functionals <=

    0.0800   Slater exchange
    0.7200         Becke 88

   => Exact (HF) Exchange <=

    0.2000               HF 

   => Correlation Functionals <=

    0.1900   Vosko, Wilk & Nusair (VWN5_RPA)
    0.8100   Lee, Yang & Parr

   => Molecular Quadrature <=

    Radial Scheme       =       TREUTLER
    Pruning Scheme      =           FLAT
    Nuclear Scheme      =       TREUTLER

    BS radius alpha     =              1
    Pruning alpha       =              1
    Radial Points       =             75
    Spherical Points    =            302
    Total Points        =          88336
    Total Blocks        =            723
    Max Points          =            256
    Max Functions       =             38

   => -D3ZERO: Empirical Dispersion <=

    Grimme's -D3 (zero-damping) Dispersion Correction
    Grimme S.; Antony J.; Ehrlich S.; Krieg H. (2010), J. Chem. Phys., 132: 154104

        S6 =   1.000000E+00
        S8 =   1.703000E+00
       SR6 =   1.261000E+00
       SR8 =   1.000000E+00
    ALPHA6 =   1.400000E+01

   => Loading Basis Set <=

    Name: (CC-PVDZ AUX)
    Role: JKFIT
    Keyword: DF_BASIS_SCF
    atoms 1-2 entry O          line   221 file /shared/joao/test_parameterize/miniconda3/share/psi4/basis/cc-pvdz-jkfit.gbs 
    atoms 3-4 entry H          line    51 file /shared/joao/test_parameterize/miniconda3/share/psi4/basis/cc-pvdz-jkfit.gbs 

  Reading orbitals from file 180, no projection.

  ==> Pre-Iterations <==

   -------------------------------------------------------
    Irrep   Nso     Nmo     Nalpha   Nbeta   Ndocc  Nsocc
   -------------------------------------------------------
     A         38      38       0       0       0       0
   -------------------------------------------------------
    Total      38      38       9       9       9       0
   -------------------------------------------------------

  ==> Integral Setup <==

  DFHelper Memory: AOs need 0.003 [GiB]; user supplied 3.486 [GiB]. Using in-core AOs.

  ==> MemDFJK: Density-Fitted J/K Matrices <==

    J tasked:                   Yes
    K tasked:                   Yes
    wK tasked:                   No
    OpenMP threads:               1
    Memory (MB):               3570
    Algorithm:                 Core
    Schwarz Cutoff:           1E-12
    Mask sparsity (%):       0.0000
    Fitting Condition:        1E-12

   => Auxiliary Basis Set <=

  Basis Set: (CC-PVDZ AUX)
    Blend: CC-PVDZ-JKFIT
    Number of shells: 66
    Number of basis function: 186
    Number of Cartesian functions: 212
    Spherical Harmonics?: true
    Max angular momentum: 3

  Minimum eigenvalue in the overlap matrix is 2.4819394841E-02.
  Using Symmetric Orthogonalization.

  SCF Guess: Orbitals guess was supplied from a previous computation.

  ==> Iterations <==

                           Total Energy        Delta E     RMS |[F,P]|

   @DF-RKS iter   0:  -151.55077895367555   -1.51551e+02   2.24370e-05 
   @DF-RKS iter   1:  -151.55051696815795    2.61986e-04   4.70380e-06 
   @DF-RKS iter   2:  -151.55051697618947   -8.03152e-09   2.57916e-06 DIIS
   @DF-RKS iter   3:  -151.55051697926305   -3.07358e-09   5.24471e-07 DIIS
   @DF-RKS iter   4:  -151.55051697940925   -1.46201e-10   7.85427e-08 DIIS
   @DF-RKS iter   5:  -151.55051697941346   -4.20641e-12   3.69622e-08 DIIS
   @DF-RKS iter   6:  -151.55051697941389   -4.26326e-13   1.46424e-08 DIIS
   @DF-RKS iter   7:  -151.55051697941417   -2.84217e-13   8.78029e-10 DIIS

  ==> Post-Iterations <==

    Orbital Energies [Eh]
    ---------------------

    Doubly Occupied:                                                      

       1A    -19.185928     2A    -19.185890     3A     -1.105300  
       4A     -0.890276     5A     -0.503739     6A     -0.495637  
       7A     -0.396305     8A     -0.341357     9A     -0.249123  

    Virtual:                                                              

      10A      0.020482    11A      0.053931    12A      0.105719  
      13A      0.577517    14A      0.579245    15A      0.844292  
      16A      0.864651    17A      0.871321    18A      0.967653  
      19A      1.007940    20A      1.069039    21A      1.243088  
      22A      1.301878    23A      1.353060    24A      1.463907  
      25A      1.641731    26A      1.776736    27A      2.058795  
      28A      2.105224    29A      2.334015    30A      2.383592  
      31A      2.629855    32A      2.881831    33A      2.922704  
      34A      2.995660    35A      3.164778    36A      3.517791  
      37A      3.521291    38A      3.827316  

    Final Occupation by Irrep:
              A 
    DOCC [     9 ]

  Energy converged.

  @DF-RKS Final Energy:  -151.55051697941417

   => Energetics <=

    Nuclear Repulsion Energy =             36.6236528016938294
    One-Electron Energy =                -281.2569399729663928
    Two-Electron Energy =                 107.5449135592214702
    DFT Exchange-Correlation Energy =     -14.4618012773630831
    Empirical Dispersion Energy =          -0.0003420900000000
    VV10 Nonlocal Energy =                  0.0000000000000000
    Total Energy =                       -151.5505169794141977



Properties will be evaluated at   0.000000,   0.000000,   0.000000 [a0]

Properties computed using the SCF density matrix

  Nuclear Dipole Moment: [e a0]
     X:    59.1087      Y:    -1.5997      Z:     0.0475

  Electronic Dipole Moment: [e a0]
     X:   -59.1162      Y:     1.6941      Z:    -0.3781

  Dipole Moment: [e a0]
     X:    -0.0075      Y:     0.0944      Z:    -0.3306     Total:     0.3439

  Dipole Moment: [D]
     X:    -0.0191      Y:     0.2398      Z:    -0.8403     Total:     0.8741


*** tstop() called on loro.prib.upf.edu at Sat Sep 29 16:38:23 2018
Module time:
	user time   =       1.77 seconds =       0.03 minutes
	system time =       0.05 seconds =       0.00 minutes
	total time  =          3 seconds =       0.05 minutes
Total time:
	user time   =      11.62 seconds =       0.19 minutes
	system time =       0.34 seconds =       0.01 minutes
	total time  =         17 seconds =       0.28 minutes

*** tstart() called on loro.prib.upf.edu
*** at Sat Sep 29 16:38:23 2018


         ------------------------------------------------------------
                                   SCF GRAD                          
                          Rob Parrish, Justin Turney,                
                       Andy Simmonett, and Alex Sokolov              
         ------------------------------------------------------------

  ==> Geometry <==

    Molecular point group: c1
    Full point group: C1

    Geometry (in Angstrom), charge = 0, multiplicity = 1:

       Center              X                  Y                   Z               Mass       
    ------------   -----------------  -----------------  -----------------  -----------------
         O            1.009496011757    -0.015703452986     0.055614007587    15.994914619560
         O            2.467153090657    -0.093521975195     0.000325482524    15.994914619560
         H            0.801314302346    -0.831057697013    -0.431108630327     1.007825032070
         H            2.664480595241     0.858335125193     0.008749140216     1.007825032070

  Nuclear repulsion =   36.623652801693829

  ==> Basis Set <==

  Basis Set: CC-PVDZ
    Blend: CC-PVDZ
    Number of shells: 18
    Number of basis function: 38
    Number of Cartesian functions: 40
    Spherical Harmonics?: true
    Max angular momentum: 2

  ==> DFJKGrad: Density-Fitted SCF Gradients <==

    Gradient:                    1
    J tasked:                  Yes
    K tasked:                  Yes
    wK tasked:                  No
    OpenMP threads:              1
    Integrals threads:           1
    Memory (MB):              3570
    Schwarz Cutoff:          0E+00
    Fitting Condition:       1E-12

   => Auxiliary Basis Set <=

  Basis Set: (CC-PVDZ AUX)
    Blend: CC-PVDZ-JKFIT
    Number of shells: 66
    Number of basis function: 186
    Number of Cartesian functions: 212
    Spherical Harmonics?: true
    Max angular momentum: 3

  ==> DFT Potential <==

   => Composite Functional: B3LYP-D3ZERO <= 

    B3LYP-d3zero Hyb-GGA Exchange-Correlation Functional

    P. J. Stephens, F. J. Devlin, C. F. Chabalowski, and M. J. Frisch, J. Phys. Chem. 98, 11623 (1994)

    Deriv               =              1
    GGA                 =           TRUE
    Meta                =          FALSE

    Exchange Hybrid     =           TRUE
    MP2 Hybrid          =          FALSE

   => Exchange Functionals <=

    0.0800   Slater exchange
    0.7200         Becke 88

   => Exact (HF) Exchange <=

    0.2000               HF 

   => Correlation Functionals <=

    0.1900   Vosko, Wilk & Nusair (VWN5_RPA)
    0.8100   Lee, Yang & Parr

   => Molecular Quadrature <=

    Radial Scheme       =       TREUTLER
    Pruning Scheme      =           FLAT
    Nuclear Scheme      =       TREUTLER

    BS radius alpha     =              1
    Pruning alpha       =              1
    Radial Points       =             75
    Spherical Points    =            302
    Total Points        =          88336
    Total Blocks        =            723
    Max Points          =            256
    Max Functions       =             38


  -Total Gradient:
     Atom            X                  Y                   Z
    ------   -----------------  -----------------  -----------------
       1       -0.000072186327     0.000470586774    -0.000681878694
       2        0.000037864137    -0.000039118271    -0.000829857804
       3        0.000006755879    -0.000426616230     0.000691401402
       4        0.000027376932    -0.000002470453     0.000811989338


*** tstop() called on loro.prib.upf.edu at Sat Sep 29 16:38:23 2018
Module time:
	user time   =       0.53 seconds =       0.01 minutes
	system time =       0.02 seconds =       0.00 minutes
	total time  =          0 seconds =       0.00 minutes
Total time:
	user time   =      12.16 seconds =       0.20 minutes
	system time =       0.36 seconds =       0.01 minutes
	total time  =         17 seconds =       0.28 minutes

			-----------------------------------------
			 OPTKING 2.0: for geometry optimizations 
			  - R.A. King,  Bethel University        
			-----------------------------------------
	At level 1: Red. Int., RFO, no backsteps, dynamic trust

	Previous internal coordinate definitions found.
	---Fragment 1 Geometry and Gradient---
	 O           1.9076709945       -0.0296752255        0.1050952435
	 O           4.6622436692       -0.1767309205        0.0006150728
	 H           1.5142645778       -1.5704714480       -0.8146772448
	 H           5.0351386114        1.6220183169        0.0165334789
	            -0.0000721863        0.0004705868       -0.0006818787
	             0.0000378641       -0.0000391183       -0.0008298578
	             0.0000067559       -0.0004266162        0.0006914014
	             0.0000273769       -0.0000024705        0.0008119893

	---Fragment 1 Intrafragment Coordinates---
	 - Coordinate -           - BOHR/RAD -       - ANG/DEG -
	 R(1,2)           =         2.760473	       1.460779
	 R(1,3)           =         1.837064	       0.972132
	 R(2,4)           =         1.837064	       0.972132
	 B(1,2,4)         =         1.721427	      98.630492
	 B(2,1,3)         =         1.721427	      98.630480
	*D(3,1,2,4)       =         2.617994	     150.000003

	Current energy   :      -151.5505169794

	Energy change for the previous step:
		Projected    :        -0.0000001283
		Actual       :        -0.0000002925
	Energy ratio indicates good step: Trust radius increased to 1.000e+00.


	Performing BFGS update.
	Previous computed or guess Hessian on step 1.
	Steps to be used in Hessian update: 3 2
	Taking RFO optimization step.
	Going to follow RFO solution 1.
	Using RFO vector 1.
	Norm of target step-size    0.00022
	Projected energy change by RFO approximation:        -0.0000000205

	Back-transformation to cartesian coordinates...
	Successfully converged to displaced geometry.

	Back-transformation to cartesian coordinates to adjust frozen coordinates...
	Successfully converged to displaced geometry.

	--- Internal Coordinate Step in ANG or DEG, aJ/ANG or AJ/DEG ---
	 ---------------------------------------------------------------------------
	   Coordinate                Previous        Force       Change         New 
	   ----------                --------       ------       ------       ------
	    1 R(1,2)          =      1.460779    -0.000579    -0.000107     1.460673
	    2 R(1,3)          =      0.972132    -0.000065    -0.000011     0.972121
	    3 R(2,4)          =      0.972132    -0.000065    -0.000011     0.972121
	    4 B(1,2,4)        =     98.630492     0.000000     0.002960    98.633452
	    5 B(2,1,3)        =     98.630480     0.000000     0.002971    98.633451
	    6 *D(3,1,2,4)     =    150.000003     0.000000     0.000000   150.000003
	 ---------------------------------------------------------------------------
	Successfully symmetrized geometry.

  ==> Convergence Check <==

  Measures of convergence in internal coordinates in au.
  Criteria marked as inactive (o), active & met (*), and active & unmet ( ).
  ---------------------------------------------------------------------------------------------
   Step     Total Energy     Delta E     MAX Force     RMS Force      MAX Disp      RMS Disp   
  ---------------------------------------------------------------------------------------------
    Convergence Criteria    1.00e-06 *    3.00e-04 *             o    1.20e-03 *             o
  ---------------------------------------------------------------------------------------------
      4    -151.55051698   -2.93e-07 *    7.03e-05 *    2.92e-05 o    2.01e-04 *    8.83e-05 o  ~
  ---------------------------------------------------------------------------------------------


  **** Optimization is complete! (in 4 steps) ****

  ==> Optimization Summary <==

  Measures of convergence in internal coordinates in au.
  --------------------------------------------------------------------------------------------------------------- ~
   Step         Total Energy             Delta E       MAX Force       RMS Force        MAX Disp        RMS Disp  ~
  --------------------------------------------------------------------------------------------------------------- ~
      1    -151.550047701696   -151.550047701696      0.01043748      0.00753117      0.06454072      0.03889913  ~
      2    -151.550248413504     -0.000200711807      0.00797077      0.00540858      0.02800402      0.01671699  ~
      3    -151.550516686902     -0.000268273398      0.00036859      0.00019470      0.00073282      0.00046109  ~
      4    -151.550516979414     -0.000000292513      0.00007034      0.00002916      0.00020134      0.00008828  ~
  --------------------------------------------------------------------------------------------------------------- ~

	Writing optimization data to binary file.
	Final energy is   -151.5505169794142
	Final (previous) structure:
	Cartesian Geometry (in Angstrom)
	    O     1.0094960118  -0.0157034530   0.0556140076
	    O     2.4671530907  -0.0935219752   0.0003254825
	    H     0.8013143023  -0.8310576970  -0.4311086303
	    H     2.6644805952   0.8583351252   0.0087491402
	Saving final (previous) structure.
	Removing binary optimization data file.
			--------------------------
			 OPTKING Finished Execution 
			--------------------------

    Final optimized geometry and variables:
    Molecular point group: c1
    Full point group: C1

    Geometry (in Angstrom), charge = 0, multiplicity = 1:

    O            1.009496011757    -0.015703452986     0.055614007587
    O            2.467153090657    -0.093521975195     0.000325482524
    H            0.801314302346    -0.831057697013    -0.431108630327
    H            2.664480595241     0.858335125193     0.008749140216

	Removing binary optimization data file.
	Cleaning optimization helper files.


Properties will be evaluated at   0.000000,   0.000000,   0.000000 [a0]
OEProp: No title given, name of density matrix used for the following properties is 'SCF density'
  Nuclear Dipole Moment: [e a0]
     X:    59.1087      Y:    -1.5997      Z:     0.0475

  Electronic Dipole Moment: [e a0]
     X:   -59.1162      Y:     1.6941      Z:    -0.3781

  Dipole Moment: [e a0]
     X:    -0.0075      Y:     0.0944      Z:    -0.3306     Total:     0.3439

  Dipole Moment: [D]
     X:    -0.0191      Y:     0.2398      Z:    -0.8403     Total:     0.8741

  Quadrupole Moment: [D A]
    XX:   -10.7610     YY:    -8.8469     ZZ:   -11.8719
    XY:     3.6746     XZ:    -0.5625     YZ:     0.8992

  Traceless Quadrupole Moment: [D A]
    XX:    -0.2677     YY:     1.6464     ZZ:    -1.3786
    XY:     3.6746     XZ:    -0.5625     YZ:     0.8992

  Mulliken Charges: (a.u.)
   Center  Symbol    Alpha    Beta     Spin     Total
       1     O     4.09078  4.09078  0.00000 -0.18156
       2     O     4.09078  4.09078  0.00000 -0.18156
       3     H     0.40922  0.40922  0.00000  0.18156
       4     H     0.40922  0.40922  0.00000  0.18156

   Total alpha =  9.00000, Total beta =  9.00000, Total charge = -0.00000


    Psi4 stopped on: Saturday, 29 September 2018 04:38PM
    Psi4 wall time for execution: 0:00:17.45

*** Psi4 exiting successfully. Buy a developer a beer!
