
    -----------------------------------------------------------------------
          Psi4: An Open-Source Ab Initio Electronic Structure Package
                               Psi4 1.2.1 release

                         Git: Rev {HEAD} 406f4de 


    R. M. Parrish, L. A. Burns, D. G. A. Smith, A. C. Simmonett,
    A. E. DePrince III, E. G. Hohenstein, U. Bozkaya, A. Yu. Sokolov,
    R. Di Remigio, R. M. Richard, J. F. Gonthier, A. M. James,
    H. R. McAlexander, A. Kumar, M. Saitow, X. Wang, B. P. Pritchard,
    P. Verma, H. F. Schaefer III, K. Patkowski, R. A. King, E. F. Valeev,
    F. A. Evangelista, J. M. Turney, T. D. Crawford, and C. D. Sherrill,
    J. Chem. Theory Comput. 13(7) pp 3185--3197 (2017).
    (doi: 10.1021/acs.jctc.7b00174)


                         Additional Contributions by
    P. Kraus, H. Kruse, M. H. Lechner, M. C. Schieber, and R. A. Shaw

    -----------------------------------------------------------------------


    Psi4 started on: Saturday, 29 September 2018 05:11PM

    Process ID: 14365
    Host:       loro.prib.upf.edu
    PSIDATADIR: /shared/joao/test_parameterize/miniconda3/share/psi4
    Memory:     500.0 MiB
    Threads:    1
    
  ==> Input File <==

--------------------------------------------------------------------------
set_num_threads(1)
set_memory('5348 MB')

set { scf_mem_safety_factor 0.7 }

set { reference rks }
set { basis cc-pVDZ }

molecule MOL {
    0 1
    noreorient
    nocom
    symmetry c1
    O    1.050400   0.042900  -0.048100
    C    2.474100   0.047400  -0.029000
    C    3.002600  -1.068900  -0.932000
    N    4.462700  -1.072400  -1.006800
    H    0.758781   0.519804   0.747847
    H    2.809900  -0.097900   1.003200
    H    2.817400   1.026800  -0.378600
    H    2.581000  -0.963300  -1.938400
    H    2.653800  -2.036400  -0.553400
    H    4.779000  -0.221000  -1.470000
    H    4.758600  -1.842500  -1.606500
}

set optking { frozen_dihedral = (" 3 2 1 5 ") }

energy, wfn = energy('B3LYP-D3', return_wfn=True)

import os
os.chdir(os.environ['HTMD_PSI4_WORKDIR'])

oeprop(wfn, 'DIPOLE', 'QUADRUPOLE', 'MULLIKEN_CHARGES')

with open('psi4out.xyz', 'w') as f:
    f.write('11 ' )
    f.write('%.12f\n' % energy)
    f.write(MOL.save_string_xyz())
--------------------------------------------------------------------------
  Threads set to 1 by Python driver.

  Memory set to   4.981 GiB by Python driver.

*** tstart() called on loro.prib.upf.edu
*** at Sat Sep 29 17:11:02 2018

   => Loading Basis Set <=

    Name: CC-PVDZ
    Role: ORBITAL
    Keyword: BASIS
    atoms 1    entry O          line   198 file /shared/joao/test_parameterize/miniconda3/share/psi4/basis/cc-pvdz.gbs 
    atoms 2-3  entry C          line   138 file /shared/joao/test_parameterize/miniconda3/share/psi4/basis/cc-pvdz.gbs 
    atoms 4    entry N          line   168 file /shared/joao/test_parameterize/miniconda3/share/psi4/basis/cc-pvdz.gbs 
    atoms 5-11 entry H          line    22 file /shared/joao/test_parameterize/miniconda3/share/psi4/basis/cc-pvdz.gbs 


         ---------------------------------------------------------
                                   SCF
            by Justin Turney, Rob Parrish, Andy Simmonett
                             and Daniel Smith
                              RKS Reference
                        1 Threads,   5100 MiB Core
         ---------------------------------------------------------

  ==> Geometry <==

    Molecular point group: c1
    Full point group: C1

    Geometry (in Angstrom), charge = 0, multiplicity = 1:

       Center              X                  Y                   Z               Mass       
    ------------   -----------------  -----------------  -----------------  -----------------
         O            1.050400000000     0.042900000000    -0.048100000000    15.994914619560
         C            2.474100000000     0.047400000000    -0.029000000000    12.000000000000
         C            3.002600000000    -1.068900000000    -0.932000000000    12.000000000000
         N            4.462700000000    -1.072400000000    -1.006800000000    14.003074004780
         H            0.758781000000     0.519804000000     0.747847000000     1.007825032070
         H            2.809900000000    -0.097900000000     1.003200000000     1.007825032070
         H            2.817400000000     1.026800000000    -0.378600000000     1.007825032070
         H            2.581000000000    -0.963300000000    -1.938400000000     1.007825032070
         H            2.653800000000    -2.036400000000    -0.553400000000     1.007825032070
         H            4.779000000000    -0.221000000000    -1.470000000000     1.007825032070
         H            4.758600000000    -1.842500000000    -1.606500000000     1.007825032070

  Running in c1 symmetry.

  Rotational constants: A =      0.72285  B =      0.02763  C =      0.02696 [cm^-1]
  Rotational constants: A =  21670.46672  B =    828.32296  C =    808.09418 [MHz]
  Nuclear repulsion =  130.423388120962386

  Charge       = 0
  Multiplicity = 1
  Electrons    = 34
  Nalpha       = 17
  Nbeta        = 17

  ==> Algorithm <==

  SCF Algorithm Type is DF.
  DIIS enabled.
  MOM disabled.
  Fractional occupation disabled.
  Guess Type is SAD.
  Energy threshold   = 1.00e-06
  Density threshold  = 1.00e-06
  Integral threshold = 0.00e+00

  ==> Primary Basis <==

  Basis Set: CC-PVDZ
    Blend: CC-PVDZ
    Number of shells: 45
    Number of basis function: 91
    Number of Cartesian functions: 95
    Spherical Harmonics?: true
    Max angular momentum: 2

  ==> DFT Potential <==

   => Composite Functional: B3LYP-D3ZERO <= 

    B3LYP-d3zero Hyb-GGA Exchange-Correlation Functional

    P. J. Stephens, F. J. Devlin, C. F. Chabalowski, and M. J. Frisch, J. Phys. Chem. 98, 11623 (1994)

    Deriv               =              1
    GGA                 =           TRUE
    Meta                =          FALSE

    Exchange Hybrid     =           TRUE
    MP2 Hybrid          =          FALSE

   => Exchange Functionals <=

    0.0800   Slater exchange
    0.7200         Becke 88

   => Exact (HF) Exchange <=

    0.2000               HF 

   => Correlation Functionals <=

    0.1900   Vosko, Wilk & Nusair (VWN5_RPA)
    0.8100   Lee, Yang & Parr

   => Molecular Quadrature <=

    Radial Scheme       =       TREUTLER
    Pruning Scheme      =           FLAT
    Nuclear Scheme      =       TREUTLER

    BS radius alpha     =              1
    Pruning alpha       =              1
    Radial Points       =             75
    Spherical Points    =            302
    Total Points        =         245082
    Total Blocks        =           1885
    Max Points          =            256
    Max Functions       =             91

   => -D3ZERO: Empirical Dispersion <=

    Grimme's -D3 (zero-damping) Dispersion Correction
    Grimme S.; Antony J.; Ehrlich S.; Krieg H. (2010), J. Chem. Phys., 132: 154104

        S6 =   1.000000E+00
        S8 =   1.703000E+00
       SR6 =   1.261000E+00
       SR8 =   1.000000E+00
    ALPHA6 =   1.400000E+01

   => Loading Basis Set <=

    Name: (CC-PVDZ AUX)
    Role: JKFIT
    Keyword: DF_BASIS_SCF
    atoms 1    entry O          line   221 file /shared/joao/test_parameterize/miniconda3/share/psi4/basis/cc-pvdz-jkfit.gbs 
    atoms 2-3  entry C          line   121 file /shared/joao/test_parameterize/miniconda3/share/psi4/basis/cc-pvdz-jkfit.gbs 
    atoms 4    entry N          line   171 file /shared/joao/test_parameterize/miniconda3/share/psi4/basis/cc-pvdz-jkfit.gbs 
    atoms 5-11 entry H          line    51 file /shared/joao/test_parameterize/miniconda3/share/psi4/basis/cc-pvdz-jkfit.gbs 

  ==> Pre-Iterations <==

   -------------------------------------------------------
    Irrep   Nso     Nmo     Nalpha   Nbeta   Ndocc  Nsocc
   -------------------------------------------------------
     A         91      91       0       0       0       0
   -------------------------------------------------------
    Total      91      91      17      17      17       0
   -------------------------------------------------------

  ==> Integral Setup <==

  DFHelper Memory: AOs need 0.036 [GiB]; user supplied 3.486 [GiB]. Using in-core AOs.

  ==> MemDFJK: Density-Fitted J/K Matrices <==

    J tasked:                   Yes
    K tasked:                   Yes
    wK tasked:                   No
    OpenMP threads:               1
    Memory (MB):               3570
    Algorithm:                 Core
    Schwarz Cutoff:           1E-12
    Mask sparsity (%):       0.5313
    Fitting Condition:        1E-12

   => Auxiliary Basis Set <=

  Basis Set: (CC-PVDZ AUX)
    Blend: CC-PVDZ-JKFIT
    Number of shells: 159
    Number of basis function: 441
    Number of Cartesian functions: 499
    Spherical Harmonics?: true
    Max angular momentum: 3

  Minimum eigenvalue in the overlap matrix is 4.5339447118E-03.
  Using Symmetric Orthogonalization.

  SCF Guess: Superposition of Atomic Densities via on-the-fly atomic UHF.

  ==> Iterations <==

                           Total Energy        Delta E     RMS |[F,P]|

   @DF-RKS iter   0:  -210.87348478378982   -2.10873e+02   3.67403e-02 
   @DF-RKS iter   1:  -210.20874003513651    6.64745e-01   7.17334e-03 
   @DF-RKS iter   2:  -210.06387604180091    1.44864e-01   9.76751e-03 DIIS
   @DF-RKS iter   3:  -210.38993965767568   -3.26064e-01   5.95825e-04 DIIS
   @DF-RKS iter   4:  -210.39065851509335   -7.18857e-04   3.79692e-04 DIIS
   @DF-RKS iter   5:  -210.39116812817062   -5.09613e-04   5.06682e-05 DIIS
   @DF-RKS iter   6:  -210.39117498797660   -6.85981e-06   2.36434e-05 DIIS
   @DF-RKS iter   7:  -210.39117702803870   -2.04006e-06   2.30128e-06 DIIS
   @DF-RKS iter   8:  -210.39117704737572   -1.93370e-08   6.60542e-07 DIIS

  ==> Post-Iterations <==

    Orbital Energies [Eh]
    ---------------------

    Doubly Occupied:                                                      

       1A    -19.127128     2A    -14.304583     3A    -10.223861  
       4A    -10.201320     5A     -1.009545     6A     -0.876475  
       7A     -0.711888     8A     -0.597251     9A     -0.506953  
      10A     -0.485794    11A     -0.450837    12A     -0.419596  
      13A     -0.387858    14A     -0.361731    15A     -0.323700  
      16A     -0.261276    17A     -0.230726  

    Virtual:                                                              

      18A      0.050464    19A      0.058635    20A      0.100520  
      21A      0.120220    22A      0.125600    23A      0.152551  
      24A      0.169777    25A      0.205349    26A      0.243975  
      27A      0.257712    28A      0.439337    29A      0.451394  
      30A      0.483717    31A      0.499898    32A      0.564555  
      33A      0.581987    34A      0.611606    35A      0.613246  
      36A      0.639693    37A      0.650101    38A      0.658087  
      39A      0.679206    40A      0.701785    41A      0.816130  
      42A      0.834504    43A      0.846242    44A      0.915382  
      45A      0.965194    46A      0.994986    47A      1.017549  
      48A      1.062445    49A      1.179938    50A      1.210469  
      51A      1.227442    52A      1.253101    53A      1.311723  
      54A      1.374840    55A      1.423636    56A      1.484658  
      57A      1.513112    58A      1.605953    59A      1.615826  
      60A      1.628708    61A      1.656187    62A      1.669620  
      63A      1.711062    64A      1.739488    65A      1.756875  
      66A      1.772546    67A      1.802720    68A      1.863622  
      69A      1.899404    70A      1.957454    71A      1.987170  
      72A      2.017819    73A      2.044876    74A      2.137842  
      75A      2.162503    76A      2.245614    77A      2.289508  
      78A      2.368496    79A      2.396167    80A      2.445943  
      81A      2.469475    82A      2.543489    83A      2.608248  
      84A      2.684635    85A      2.823710    86A      2.951218  
      87A      3.025985    88A      3.035978    89A      3.122362  
      90A      3.205947    91A      3.692938  

    Final Occupation by Irrep:
              A 
    DOCC [    17 ]

  Energy converged.

  @DF-RKS Final Energy:  -210.39117704737572

   => Energetics <=

    Nuclear Repulsion Energy =            130.4233881209623860
    One-Electron Energy =                -543.7859400344721053
    Two-Electron Energy =                 226.4627862464602117
    DFT Exchange-Correlation Energy =     -23.4864929603262063
    Empirical Dispersion Energy =          -0.0049184200000000
    VV10 Nonlocal Energy =                  0.0000000000000000
    Total Energy =                       -210.3911770473757201



Properties will be evaluated at   0.000000,   0.000000,   0.000000 [a0]

Properties computed using the SCF density matrix

  Nuclear Dipole Moment: [e a0]
     X:   176.9932      Y:   -31.9498      Z:   -32.8704

  Electronic Dipole Moment: [e a0]
     X:  -176.8156      Y:    32.2101      Z:    32.8388

  Dipole Moment: [e a0]
     X:     0.1776      Y:     0.2603      Z:    -0.0315     Total:     0.3167

  Dipole Moment: [D]
     X:     0.4514      Y:     0.6617      Z:    -0.0802     Total:     0.8050


*** tstop() called on loro.prib.upf.edu at Sat Sep 29 17:11:18 2018
Module time:
	user time   =      14.61 seconds =       0.24 minutes
	system time =       0.21 seconds =       0.00 minutes
	total time  =         16 seconds =       0.27 minutes
Total time:
	user time   =      14.61 seconds =       0.24 minutes
	system time =       0.21 seconds =       0.00 minutes
	total time  =         16 seconds =       0.27 minutes


Properties will be evaluated at   0.000000,   0.000000,   0.000000 [a0]
OEProp: No title given, name of density matrix used for the following properties is 'SCF density'
  Nuclear Dipole Moment: [e a0]
     X:   176.9932      Y:   -31.9498      Z:   -32.8704

  Electronic Dipole Moment: [e a0]
     X:  -176.8156      Y:    32.2101      Z:    32.8388

  Dipole Moment: [e a0]
     X:     0.1776      Y:     0.2603      Z:    -0.0315     Total:     0.3167

  Dipole Moment: [D]
     X:     0.4514      Y:     0.6617      Z:    -0.0802     Total:     0.8050

  Quadrupole Moment: [D A]
    XX:   -25.2751     YY:   -23.9254     ZZ:   -22.0078
    XY:     0.7669     XZ:    -5.9776     YZ:     2.3026

  Traceless Quadrupole Moment: [D A]
    XX:    -1.5390     YY:    -0.1893     ZZ:     1.7283
    XY:     0.7669     XZ:    -5.9776     YZ:     2.3026

  Mulliken Charges: (a.u.)
   Center  Symbol    Alpha    Beta     Spin     Total
       1     O     4.13942  4.13942  0.00000 -0.27884
       2     C     2.92995  2.92995  0.00000  0.14009
       3     C     2.98457  2.98457  0.00000  0.03086
       4     N     3.59382  3.59382  0.00000 -0.18765
       5     H     0.42947  0.42947  0.00000  0.14106
       6     H     0.49826  0.49826  0.00000  0.00348
       7     H     0.50365  0.50365  0.00000 -0.00731
       8     H     0.50046  0.50046  0.00000 -0.00091
       9     H     0.49121  0.49121  0.00000  0.01758
      10     H     0.46570  0.46570  0.00000  0.06859
      11     H     0.46347  0.46347  0.00000  0.07305

   Total alpha = 17.00000, Total beta = 17.00000, Total charge =  0.00000


    Psi4 stopped on: Saturday, 29 September 2018 05:11PM
    Psi4 wall time for execution: 0:00:16.64

*** Psi4 exiting successfully. Buy a developer a beer!
