
    -----------------------------------------------------------------------
          Psi4: An Open-Source Ab Initio Electronic Structure Package
                               Psi4 1.2.1 release

                         Git: Rev {HEAD} 406f4de 


    R. M. Parrish, L. A. Burns, D. G. A. Smith, A. C. Simmonett,
    A. E. DePrince III, E. G. Hohenstein, U. Bozkaya, A. Yu. Sokolov,
    R. Di Remigio, R. M. Richard, J. F. Gonthier, A. M. James,
    H. R. McAlexander, A. Kumar, M. Saitow, X. Wang, B. P. Pritchard,
    P. Verma, H. F. Schaefer III, K. Patkowski, R. A. King, E. F. Valeev,
    F. A. Evangelista, J. M. Turney, T. D. Crawford, and C. D. Sherrill,
    J. Chem. Theory Comput. 13(7) pp 3185--3197 (2017).
    (doi: 10.1021/acs.jctc.7b00174)


                         Additional Contributions by
    P. Kraus, H. Kruse, M. H. Lechner, M. C. Schieber, and R. A. Shaw

    -----------------------------------------------------------------------


    Psi4 started on: Saturday, 29 September 2018 05:08PM

    Process ID: 12752
    Host:       loro.prib.upf.edu
    PSIDATADIR: /shared/joao/test_parameterize/miniconda3/share/psi4
    Memory:     500.0 MiB
    Threads:    1
    
  ==> Input File <==

--------------------------------------------------------------------------
set_num_threads(1)
set_memory('5348 MB')

set { scf_mem_safety_factor 0.7 }

set { reference rks }
set { basis cc-pVDZ }

molecule MOL {
    0 1
    noreorient
    nocom
    symmetry c1
    O    1.050400   0.042900  -0.048100
    C    2.474100   0.047400  -0.029000
    C    3.002600  -1.068900  -0.932000
    N    1.994913  -2.097921  -1.183362
    H    0.760400   0.728400   0.578000
    H    2.809900  -0.097900   1.003200
    H    2.817400   1.026800  -0.378600
    H    3.890837  -1.524063  -0.478568
    H    3.331087  -0.638656  -1.884912
    H    1.778858  -2.579060  -0.310833
    H    2.394866  -2.805011  -1.800058
}

set optking { frozen_dihedral = (" 1 2 3 4 ") }

energy, wfn = energy('B3LYP-D3', return_wfn=True)

import os
os.chdir(os.environ['HTMD_PSI4_WORKDIR'])

oeprop(wfn, 'DIPOLE', 'QUADRUPOLE', 'MULLIKEN_CHARGES')

with open('psi4out.xyz', 'w') as f:
    f.write('11 ' )
    f.write('%.12f\n' % energy)
    f.write(MOL.save_string_xyz())
--------------------------------------------------------------------------
  Threads set to 1 by Python driver.

  Memory set to   4.981 GiB by Python driver.

*** tstart() called on loro.prib.upf.edu
*** at Sat Sep 29 17:08:50 2018

   => Loading Basis Set <=

    Name: CC-PVDZ
    Role: ORBITAL
    Keyword: BASIS
    atoms 1    entry O          line   198 file /shared/joao/test_parameterize/miniconda3/share/psi4/basis/cc-pvdz.gbs 
    atoms 2-3  entry C          line   138 file /shared/joao/test_parameterize/miniconda3/share/psi4/basis/cc-pvdz.gbs 
    atoms 4    entry N          line   168 file /shared/joao/test_parameterize/miniconda3/share/psi4/basis/cc-pvdz.gbs 
    atoms 5-11 entry H          line    22 file /shared/joao/test_parameterize/miniconda3/share/psi4/basis/cc-pvdz.gbs 


         ---------------------------------------------------------
                                   SCF
            by Justin Turney, Rob Parrish, Andy Simmonett
                             and Daniel Smith
                              RKS Reference
                        1 Threads,   5100 MiB Core
         ---------------------------------------------------------

  ==> Geometry <==

    Molecular point group: c1
    Full point group: C1

    Geometry (in Angstrom), charge = 0, multiplicity = 1:

       Center              X                  Y                   Z               Mass       
    ------------   -----------------  -----------------  -----------------  -----------------
         O            1.050400000000     0.042900000000    -0.048100000000    15.994914619560
         C            2.474100000000     0.047400000000    -0.029000000000    12.000000000000
         C            3.002600000000    -1.068900000000    -0.932000000000    12.000000000000
         N            1.994913000000    -2.097921000000    -1.183362000000    14.003074004780
         H            0.760400000000     0.728400000000     0.578000000000     1.007825032070
         H            2.809900000000    -0.097900000000     1.003200000000     1.007825032070
         H            2.817400000000     1.026800000000    -0.378600000000     1.007825032070
         H            3.890837000000    -1.524063000000    -0.478568000000     1.007825032070
         H            3.331087000000    -0.638656000000    -1.884912000000     1.007825032070
         H            1.778858000000    -2.579060000000    -0.310833000000     1.007825032070
         H            2.394866000000    -2.805011000000    -1.800058000000     1.007825032070

  Running in c1 symmetry.

  Rotational constants: A =      0.28348  B =      0.04373  C =      0.03873 [cm^-1]
  Rotational constants: A =   8498.50666  B =   1311.05707  C =   1161.06631 [MHz]
  Nuclear repulsion =  133.890400812786567

  Charge       = 0
  Multiplicity = 1
  Electrons    = 34
  Nalpha       = 17
  Nbeta        = 17

  ==> Algorithm <==

  SCF Algorithm Type is DF.
  DIIS enabled.
  MOM disabled.
  Fractional occupation disabled.
  Guess Type is SAD.
  Energy threshold   = 1.00e-06
  Density threshold  = 1.00e-06
  Integral threshold = 0.00e+00

  ==> Primary Basis <==

  Basis Set: CC-PVDZ
    Blend: CC-PVDZ
    Number of shells: 45
    Number of basis function: 91
    Number of Cartesian functions: 95
    Spherical Harmonics?: true
    Max angular momentum: 2

  ==> DFT Potential <==

   => Composite Functional: B3LYP-D3ZERO <= 

    B3LYP-d3zero Hyb-GGA Exchange-Correlation Functional

    P. J. Stephens, F. J. Devlin, C. F. Chabalowski, and M. J. Frisch, J. Phys. Chem. 98, 11623 (1994)

    Deriv               =              1
    GGA                 =           TRUE
    Meta                =          FALSE

    Exchange Hybrid     =           TRUE
    MP2 Hybrid          =          FALSE

   => Exchange Functionals <=

    0.0800   Slater exchange
    0.7200         Becke 88

   => Exact (HF) Exchange <=

    0.2000               HF 

   => Correlation Functionals <=

    0.1900   Vosko, Wilk & Nusair (VWN5_RPA)
    0.8100   Lee, Yang & Parr

   => Molecular Quadrature <=

    Radial Scheme       =       TREUTLER
    Pruning Scheme      =           FLAT
    Nuclear Scheme      =       TREUTLER

    BS radius alpha     =              1
    Pruning alpha       =              1
    Radial Points       =             75
    Spherical Points    =            302
    Total Points        =         245105
    Total Blocks        =           1879
    Max Points          =            256
    Max Functions       =             91

   => -D3ZERO: Empirical Dispersion <=

    Grimme's -D3 (zero-damping) Dispersion Correction
    Grimme S.; Antony J.; Ehrlich S.; Krieg H. (2010), J. Chem. Phys., 132: 154104

        S6 =   1.000000E+00
        S8 =   1.703000E+00
       SR6 =   1.261000E+00
       SR8 =   1.000000E+00
    ALPHA6 =   1.400000E+01

   => Loading Basis Set <=

    Name: (CC-PVDZ AUX)
    Role: JKFIT
    Keyword: DF_BASIS_SCF
    atoms 1    entry O          line   221 file /shared/joao/test_parameterize/miniconda3/share/psi4/basis/cc-pvdz-jkfit.gbs 
    atoms 2-3  entry C          line   121 file /shared/joao/test_parameterize/miniconda3/share/psi4/basis/cc-pvdz-jkfit.gbs 
    atoms 4    entry N          line   171 file /shared/joao/test_parameterize/miniconda3/share/psi4/basis/cc-pvdz-jkfit.gbs 
    atoms 5-11 entry H          line    51 file /shared/joao/test_parameterize/miniconda3/share/psi4/basis/cc-pvdz-jkfit.gbs 

  ==> Pre-Iterations <==

   -------------------------------------------------------
    Irrep   Nso     Nmo     Nalpha   Nbeta   Ndocc  Nsocc
   -------------------------------------------------------
     A         91      91       0       0       0       0
   -------------------------------------------------------
    Total      91      91      17      17      17       0
   -------------------------------------------------------

  ==> Integral Setup <==

  DFHelper Memory: AOs need 0.036 [GiB]; user supplied 3.486 [GiB]. Using in-core AOs.

  ==> MemDFJK: Density-Fitted J/K Matrices <==

    J tasked:                   Yes
    K tasked:                   Yes
    wK tasked:                   No
    OpenMP threads:               1
    Memory (MB):               3570
    Algorithm:                 Core
    Schwarz Cutoff:           1E-12
    Mask sparsity (%):       0.0000
    Fitting Condition:        1E-12

   => Auxiliary Basis Set <=

  Basis Set: (CC-PVDZ AUX)
    Blend: CC-PVDZ-JKFIT
    Number of shells: 159
    Number of basis function: 441
    Number of Cartesian functions: 499
    Spherical Harmonics?: true
    Max angular momentum: 3

  Minimum eigenvalue in the overlap matrix is 4.4919642975E-03.
  Using Symmetric Orthogonalization.

  SCF Guess: Superposition of Atomic Densities via on-the-fly atomic UHF.

  ==> Iterations <==

                           Total Energy        Delta E     RMS |[F,P]|

   @DF-RKS iter   0:  -210.89526033313689   -2.10895e+02   3.71933e-02 
   @DF-RKS iter   1:  -210.22014532745084    6.75115e-01   6.73536e-03 
   @DF-RKS iter   2:  -210.05505331864927    1.65092e-01   9.78973e-03 DIIS
   @DF-RKS iter   3:  -210.38008802661261   -3.25035e-01   6.69250e-04 DIIS
   @DF-RKS iter   4:  -210.38128681475865   -1.19879e-03   3.59198e-04 DIIS
   @DF-RKS iter   5:  -210.38174959636737   -4.62782e-04   6.54900e-05 DIIS
   @DF-RKS iter   6:  -210.38176456277310   -1.49664e-05   1.56849e-05 DIIS
   @DF-RKS iter   7:  -210.38176540714997   -8.44377e-07   4.30199e-06 DIIS
   @DF-RKS iter   8:  -210.38176547355562   -6.64056e-08   5.80953e-07 DIIS

  ==> Post-Iterations <==

    Orbital Energies [Eh]
    ---------------------

    Doubly Occupied:                                                      

       1A    -19.120734     2A    -14.294794     3A    -10.222819  
       4A    -10.201288     5A     -1.004668     6A     -0.867647  
       7A     -0.713977     8A     -0.590969     9A     -0.508551  
      10A     -0.482649    11A     -0.440182    12A     -0.415082  
      13A     -0.387306    14A     -0.359420    15A     -0.319068  
      16A     -0.254359    17A     -0.219532  

    Virtual:                                                              

      18A      0.043854    19A      0.083038    20A      0.094063  
      21A      0.101013    22A      0.132133    23A      0.152097  
      24A      0.175787    25A      0.184661    26A      0.245083  
      27A      0.290515    28A      0.435980    29A      0.463410  
      30A      0.491948    31A      0.512920    32A      0.553495  
      33A      0.566399    34A      0.598583    35A      0.624730  
      36A      0.638310    37A      0.651521    38A      0.658227  
      39A      0.699622    40A      0.703239    41A      0.790894  
      42A      0.808776    43A      0.854607    44A      0.911239  
      45A      0.962262    46A      0.994235    47A      1.025293  
      48A      1.073338    49A      1.166145    50A      1.222595  
      51A      1.262799    52A      1.299673    53A      1.347336  
      54A      1.383807    55A      1.460751    56A      1.479673  
      57A      1.521270    58A      1.568836    59A      1.604133  
      60A      1.609793    61A      1.613781    62A      1.684386  
      63A      1.715568    64A      1.738376    65A      1.777801  
      66A      1.793173    67A      1.843568    68A      1.865149  
      69A      1.929030    70A      1.967369    71A      1.992561  
      72A      2.013827    73A      2.051099    74A      2.133678  
      75A      2.184369    76A      2.198896    77A      2.293259  
      78A      2.384281    79A      2.392997    80A      2.452226  
      81A      2.478476    82A      2.558708    83A      2.606031  
      84A      2.679202    85A      2.824438    86A      2.962667  
      87A      3.021481    88A      3.057265    89A      3.130012  
      90A      3.201376    91A      3.710318  

    Final Occupation by Irrep:
              A 
    DOCC [    17 ]

  Energy converged.

  @DF-RKS Final Energy:  -210.38176547355562

   => Energetics <=

    Nuclear Repulsion Energy =            133.8904008127865666
    One-Electron Energy =                -550.8546107421644820
    Two-Electron Energy =                 230.0763386164967699
    DFT Exchange-Correlation Energy =     -23.4890389406744511
    Empirical Dispersion Energy =          -0.0048552200000000
    VV10 Nonlocal Energy =                  0.0000000000000000
    Total Energy =                       -210.3817654735556175



Properties will be evaluated at   0.000000,   0.000000,   0.000000 [a0]

Properties computed using the SCF density matrix

  Nuclear Dipole Moment: [e a0]
     X:   137.9711      Y:   -49.8146      Z:   -33.4597

  Electronic Dipole Moment: [e a0]
     X:  -137.3465      Y:    49.8993      Z:    33.9696

  Dipole Moment: [e a0]
     X:     0.6245      Y:     0.0848      Z:     0.5099     Total:     0.8107

  Dipole Moment: [D]
     X:     1.5873      Y:     0.2155      Z:     1.2961     Total:     2.0605


*** tstop() called on loro.prib.upf.edu at Sat Sep 29 17:09:08 2018
Module time:
	user time   =      15.25 seconds =       0.25 minutes
	system time =       0.22 seconds =       0.00 minutes
	total time  =         18 seconds =       0.30 minutes
Total time:
	user time   =      15.25 seconds =       0.25 minutes
	system time =       0.22 seconds =       0.00 minutes
	total time  =         18 seconds =       0.30 minutes


Properties will be evaluated at   0.000000,   0.000000,   0.000000 [a0]
OEProp: No title given, name of density matrix used for the following properties is 'SCF density'
  Nuclear Dipole Moment: [e a0]
     X:   137.9711      Y:   -49.8146      Z:   -33.4597

  Electronic Dipole Moment: [e a0]
     X:  -137.3465      Y:    49.8993      Z:    33.9696

  Dipole Moment: [e a0]
     X:     0.6245      Y:     0.0848      Z:     0.5099     Total:     0.8107

  Dipole Moment: [D]
     X:     1.5873      Y:     0.2155      Z:     1.2961     Total:     2.0605

  Quadrupole Moment: [D A]
    XX:   -20.0976     YY:   -20.5890     ZZ:   -25.2039
    XY:    -2.6744     XZ:    -0.8124     YZ:     0.7743

  Traceless Quadrupole Moment: [D A]
    XX:     1.8659     YY:     1.3745     ZZ:    -3.2404
    XY:    -2.6744     XZ:    -0.8124     YZ:     0.7743

  Mulliken Charges: (a.u.)
   Center  Symbol    Alpha    Beta     Spin     Total
       1     O     4.13078  4.13078  0.00000 -0.26157
       2     C     2.93249  2.93249  0.00000  0.13502
       3     C     2.98581  2.98581  0.00000  0.02839
       4     N     3.57911  3.57911  0.00000 -0.15823
       5     H     0.43334  0.43334  0.00000  0.13331
       6     H     0.50401  0.50401  0.00000 -0.00802
       7     H     0.50115  0.50115  0.00000 -0.00230
       8     H     0.50584  0.50584  0.00000 -0.01167
       9     H     0.49269  0.49269  0.00000  0.01461
      10     H     0.46690  0.46690  0.00000  0.06620
      11     H     0.46788  0.46788  0.00000  0.06425

   Total alpha = 17.00000, Total beta = 17.00000, Total charge =  0.00000


    Psi4 stopped on: Saturday, 29 September 2018 05:09PM
    Psi4 wall time for execution: 0:00:18.01

*** Psi4 exiting successfully. Buy a developer a beer!
