
    -----------------------------------------------------------------------
          Psi4: An Open-Source Ab Initio Electronic Structure Package
                               Psi4 1.2.1 release

                         Git: Rev {HEAD} 406f4de 


    R. M. Parrish, L. A. Burns, D. G. A. Smith, A. C. Simmonett,
    A. E. DePrince III, E. G. Hohenstein, U. Bozkaya, A. Yu. Sokolov,
    R. Di Remigio, R. M. Richard, J. F. Gonthier, A. M. James,
    H. R. McAlexander, A. Kumar, M. Saitow, X. Wang, B. P. Pritchard,
    P. Verma, H. F. Schaefer III, K. Patkowski, R. A. King, E. F. Valeev,
    F. A. Evangelista, J. M. Turney, T. D. Crawford, and C. D. Sherrill,
    J. Chem. Theory Comput. 13(7) pp 3185--3197 (2017).
    (doi: 10.1021/acs.jctc.7b00174)


                         Additional Contributions by
    P. Kraus, H. Kruse, M. H. Lechner, M. C. Schieber, and R. A. Shaw

    -----------------------------------------------------------------------


    Psi4 started on: Saturday, 29 September 2018 08:37PM

    Process ID: 26929
    Host:       oliva.prib.upf.edu
    PSIDATADIR: /shared/joao/test_parameterize/miniconda3/share/psi4
    Memory:     500.0 MiB
    Threads:    1
    
  ==> Input File <==

--------------------------------------------------------------------------
set_num_threads(4)
set_memory('3000 MB')

set { scf_mem_safety_factor 0.7 }

set { reference rks }
set { basis 6-31G* }

molecule MOL {
    1 1
    noreorient
    nocom
    symmetry c1
    C   -0.000000  -0.000000  -0.177864
    C    0.036678   1.219374   0.524165
    C    0.031765   1.213120   1.915444
    C    0.000000   0.000000   2.610107
    C   -0.031765  -1.213120   1.915444
    C   -0.036678  -1.219375   0.524165
    C   -0.000000   0.000000  -1.644734
    H    0.018170   2.164705  -0.010854
    H    0.042402   2.152895   2.457886
    H    0.000000   0.000000   3.695756
    H   -0.042402  -2.152895   2.457886
    H   -0.018170  -2.164705  -0.010853
    N   -0.712590  -0.905950  -2.308461
    N    0.712590   0.905950  -2.308460
    H    0.673432   1.006470  -3.315997
    H    1.377190   1.485970  -1.813316
    H   -0.964148  -0.740566  -3.274199
    H   -0.969019  -1.802541  -1.912057
}

set optking { frozen_dihedral = (" 1 7 13 17 ") }

set optking { dynamic_level = 1 
 geom_maxiter = 250
 print_trajectory_xyz_file = True }

energy, wfn = optimize('B3LYP-D3', return_wfn=True)

import os
os.chdir(os.environ['HTMD_PSI4_WORKDIR'])

oeprop(wfn, 'DIPOLE', 'QUADRUPOLE', 'MULLIKEN_CHARGES')

with open('psi4out.xyz', 'w') as f:
    f.write('18 ' )
    f.write('%.12f\n' % energy)
    f.write(MOL.save_string_xyz())
--------------------------------------------------------------------------
  Threads set to 4 by Python driver.

  Memory set to   2.794 GiB by Python driver.
gradient() will perform analytic gradient computation.

*** tstart() called on oliva.prib.upf.edu
*** at Sat Sep 29 20:37:08 2018

   => Loading Basis Set <=

    Name: 6-31G*
    Role: ORBITAL
    Keyword: BASIS
    atoms 1-7         entry C          line   111 file /shared/joao/test_parameterize/miniconda3/share/psi4/basis/6-31gs.gbs 
    atoms 8-12, 15-18 entry H          line    44 file /shared/joao/test_parameterize/miniconda3/share/psi4/basis/6-31gs.gbs 
    atoms 13-14       entry N          line   128 file /shared/joao/test_parameterize/miniconda3/share/psi4/basis/6-31gs.gbs 


         ---------------------------------------------------------
                                   SCF
            by Justin Turney, Rob Parrish, Andy Simmonett
                             and Daniel Smith
                              RKS Reference
                        4 Threads,   2861 MiB Core
         ---------------------------------------------------------

  ==> Geometry <==

    Molecular point group: c1
    Full point group: C1

    Geometry (in Angstrom), charge = 1, multiplicity = 1:

       Center              X                  Y                   Z               Mass       
    ------------   -----------------  -----------------  -----------------  -----------------
         C            0.000000000000     0.000000000000    -0.177864000000    12.000000000000
         C            0.036678000000     1.219374000000     0.524165000000    12.000000000000
         C            0.031765000000     1.213120000000     1.915444000000    12.000000000000
         C            0.000000000000     0.000000000000     2.610107000000    12.000000000000
         C           -0.031765000000    -1.213120000000     1.915444000000    12.000000000000
         C           -0.036678000000    -1.219375000000     0.524165000000    12.000000000000
         C            0.000000000000     0.000000000000    -1.644734000000    12.000000000000
         H            0.018170000000     2.164705000000    -0.010854000000     1.007825032070
         H            0.042402000000     2.152895000000     2.457886000000     1.007825032070
         H            0.000000000000     0.000000000000     3.695756000000     1.007825032070
         H           -0.042402000000    -2.152895000000     2.457886000000     1.007825032070
         H           -0.018170000000    -2.164705000000    -0.010853000000     1.007825032070
         N           -0.712590000000    -0.905950000000    -2.308461000000    14.003074004780
         N            0.712590000000     0.905950000000    -2.308460000000    14.003074004780
         H            0.673432000000     1.006470000000    -3.315997000000     1.007825032070
         H            1.377190000000     1.485970000000    -1.813316000000     1.007825032070
         H           -0.964148000000    -0.740566000000    -3.274199000000     1.007825032070
         H           -0.969019000000    -1.802541000000    -1.912057000000     1.007825032070

  Running in c1 symmetry.

  Rotational constants: A =      0.12182  B =      0.03959  C =      0.03126 [cm^-1]
  Rotational constants: A =   3651.96798  B =   1187.00210  C =    937.18596 [MHz]
  Nuclear repulsion =  416.889520886588741

  Charge       = 1
  Multiplicity = 1
  Electrons    = 64
  Nalpha       = 32
  Nbeta        = 32

  ==> Algorithm <==

  SCF Algorithm Type is DF.
  DIIS enabled.
  MOM disabled.
  Fractional occupation disabled.
  Guess Type is SAD.
  Energy threshold   = 1.00e-08
  Density threshold  = 1.00e-08
  Integral threshold = 0.00e+00

  ==> Primary Basis <==

  Basis Set: 6-31G*
    Blend: 6-31G*
    Number of shells: 72
    Number of basis function: 153
    Number of Cartesian functions: 153
    Spherical Harmonics?: false
    Max angular momentum: 2

  ==> DFT Potential <==

   => Composite Functional: B3LYP-D3ZERO <= 

    B3LYP-d3zero Hyb-GGA Exchange-Correlation Functional

    P. J. Stephens, F. J. Devlin, C. F. Chabalowski, and M. J. Frisch, J. Phys. Chem. 98, 11623 (1994)

    Deriv               =              1
    GGA                 =           TRUE
    Meta                =          FALSE

    Exchange Hybrid     =           TRUE
    MP2 Hybrid          =          FALSE

   => Exchange Functionals <=

    0.0800   Slater exchange
    0.7200         Becke 88

   => Exact (HF) Exchange <=

    0.2000               HF 

   => Correlation Functionals <=

    0.1900   Vosko, Wilk & Nusair (VWN5_RPA)
    0.8100   Lee, Yang & Parr

   => Molecular Quadrature <=

    Radial Scheme       =       TREUTLER
    Pruning Scheme      =           FLAT
    Nuclear Scheme      =       TREUTLER

    BS radius alpha     =              1
    Pruning alpha       =              1
    Radial Points       =             75
    Spherical Points    =            302
    Total Points        =         396895
    Total Blocks        =           2989
    Max Points          =            256
    Max Functions       =            149

   => -D3ZERO: Empirical Dispersion <=

    Grimme's -D3 (zero-damping) Dispersion Correction
    Grimme S.; Antony J.; Ehrlich S.; Krieg H. (2010), J. Chem. Phys., 132: 154104

        S6 =   1.000000E+00
        S8 =   1.703000E+00
       SR6 =   1.261000E+00
       SR8 =   1.000000E+00
    ALPHA6 =   1.400000E+01

   => Loading Basis Set <=

    Name: (6-31G* AUX)
    Role: JKFIT
    Keyword: DF_BASIS_SCF
    atoms 1-7         entry C          line   121 file /shared/joao/test_parameterize/miniconda3/share/psi4/basis/cc-pvdz-jkfit.gbs 
    atoms 8-12, 15-18 entry H          line    51 file /shared/joao/test_parameterize/miniconda3/share/psi4/basis/cc-pvdz-jkfit.gbs 
    atoms 13-14       entry N          line   171 file /shared/joao/test_parameterize/miniconda3/share/psi4/basis/cc-pvdz-jkfit.gbs 

  ==> Pre-Iterations <==

   -------------------------------------------------------
    Irrep   Nso     Nmo     Nalpha   Nbeta   Ndocc  Nsocc
   -------------------------------------------------------
     A        153     153       0       0       0       0
   -------------------------------------------------------
    Total     153     153      32      32      32       0
   -------------------------------------------------------

  ==> Integral Setup <==

  ==> DiskDFJK: Density-Fitted J/K Matrices <==

    J tasked:                  Yes
    K tasked:                  Yes
    wK tasked:                  No
    OpenMP threads:              4
    Integrals threads:           4
    Memory (MB):              2002
    Algorithm:                Core
    Integral Cache:           NONE
    Schwarz Cutoff:          1E-12
    Fitting Condition:       1E-12

   => Auxiliary Basis Set <=

  Basis Set: (6-31G* AUX)
    Blend: CC-PVDZ-JKFIT
    Number of shells: 297
    Number of basis function: 954
    Number of Cartesian functions: 954
    Spherical Harmonics?: false
    Max angular momentum: 3

  Minimum eigenvalue in the overlap matrix is 4.8642563679E-04.
  Using Symmetric Orthogonalization.

  SCF Guess: Superposition of Atomic Densities via on-the-fly atomic UHF.

  ==> Iterations <==

                           Total Energy        Delta E     RMS |[F,P]|

   @DF-RKS iter   0:  -379.62245059758118   -3.79622e+02   6.82120e-02 
   @DF-RKS iter   1:  -381.03239599831625   -1.40995e+00   1.19638e-02 
   @DF-RKS iter   2:  -380.94560469407730    8.67913e-02   1.30073e-02 DIIS
   @DF-RKS iter   3:  -381.45303891948470   -5.07434e-01   1.68074e-03 DIIS
   @DF-RKS iter   4:  -381.45898113442070   -5.94221e-03   7.93214e-04 DIIS
   @DF-RKS iter   5:  -381.46055692869254   -1.57579e-03   2.43263e-04 DIIS
   @DF-RKS iter   6:  -381.46069798210311   -1.41053e-04   8.07098e-05 DIIS
   @DF-RKS iter   7:  -381.46071507346028   -1.70914e-05   1.38696e-05 DIIS
   @DF-RKS iter   8:  -381.46071551974586   -4.46286e-07   6.50727e-06 DIIS
   @DF-RKS iter   9:  -381.46071564650015   -1.26754e-07   1.98897e-06 DIIS
   @DF-RKS iter  10:  -381.46071565899177   -1.24916e-08   6.67501e-07 DIIS
   @DF-RKS iter  11:  -381.46071566027302   -1.28125e-09   8.66890e-08 DIIS
   @DF-RKS iter  12:  -381.46071566028252   -9.49285e-12   6.75621e-08 DIIS
   @DF-RKS iter  13:  -381.46071566029622   -1.36993e-11   1.89839e-08 DIIS
   @DF-RKS iter  14:  -381.46071566029821   -1.98952e-12   5.31904e-09 DIIS

  ==> Post-Iterations <==

    Orbital Energies [Eh]
    ---------------------

    Doubly Occupied:                                                      

       1A    -14.570842     2A    -14.563709     3A    -10.499441  
       4A    -10.373693     5A    -10.357179     6A    -10.356248  
       7A    -10.342140     8A    -10.340652     9A    -10.340092  
      10A     -1.184777    11A     -1.092009    12A     -1.014350  
      13A     -0.926768    14A     -0.902494    15A     -0.845976  
      16A     -0.786253    17A     -0.773960    18A     -0.740916  
      19A     -0.733040    20A     -0.691929    21A     -0.670714  
      22A     -0.629493    23A     -0.613392    24A     -0.590216  
      25A     -0.577342    26A     -0.573441    27A     -0.516631  
      28A     -0.506523    29A     -0.498477    30A     -0.469327  
      31A     -0.409439    32A     -0.405450  

    Virtual:                                                              

      33A     -0.220901    34A     -0.156569    35A     -0.136824  
      36A     -0.111492    37A     -0.074030    38A     -0.058094  
      39A     -0.039602    40A     -0.031402    41A      0.007300  
      42A      0.019674    43A      0.028057    44A      0.060466  
      45A      0.066497    46A      0.084873    47A      0.123286  
      48A      0.149227    49A      0.156935    50A      0.165156  
      51A      0.205398    52A      0.242603    53A      0.298108  
      54A      0.350327    55A      0.354697    56A      0.379445  
      57A      0.389078    58A      0.397587    59A      0.420473  
      60A      0.423097    61A      0.440863    62A      0.450267  
      63A      0.453670    64A      0.471072    65A      0.471658  
      66A      0.474871    67A      0.486137    68A      0.503470  
      69A      0.513493    70A      0.537891    71A      0.544058  
      72A      0.589452    73A      0.610255    74A      0.651404  
      75A      0.663229    76A      0.679199    77A      0.689844  
      78A      0.705304    79A      0.716555    80A      0.723710  
      81A      0.760336    82A      0.772980    83A      0.775818  
      84A      0.807036    85A      0.815105    86A      0.838916  
      87A      0.851450    88A      0.930518    89A      0.959223  
      90A      0.975455    91A      1.001459    92A      1.022473  
      93A      1.023421    94A      1.070343    95A      1.140593  
      96A      1.165556    97A      1.259559    98A      1.271271  
      99A      1.279670   100A      1.310893   101A      1.323149  
     102A      1.342391   103A      1.352865   104A      1.363164  
     105A      1.400308   106A      1.451871   107A      1.528006  
     108A      1.614617   109A      1.623262   110A      1.650707  
     111A      1.678944   112A      1.736602   113A      1.752212  
     114A      1.797221   115A      1.825862   116A      1.834467  
     117A      1.896456   118A      1.924426   119A      1.957921  
     120A      1.980358   121A      1.995724   122A      2.016020  
     123A      2.024888   124A      2.064425   125A      2.115841  
     126A      2.127993   127A      2.151694   128A      2.192744  
     129A      2.217504   130A      2.284587   131A      2.339856  
     132A      2.381817   133A      2.447090   134A      2.452290  
     135A      2.489131   136A      2.523256   137A      2.545085  
     138A      2.589626   139A      2.603932   140A      2.628572  
     141A      2.737826   142A      2.871849   143A      2.985728  
     144A      3.258507   145A      3.633081   146A      3.659740  
     147A      3.915351   148A      3.948424   149A      3.963737  
     150A      4.050826   151A      4.173538   152A      4.255779  
     153A      4.546325  

    Final Occupation by Irrep:
              A 
    DOCC [    32 ]

  Energy converged.

  @DF-RKS Final Energy:  -381.46071566029821

   => Energetics <=

    Nuclear Repulsion Energy =            416.8895208865887412
    One-Electron Energy =               -1328.9582935850407921
    Two-Electron Energy =                 575.0266667628336563
    DFT Exchange-Correlation Energy =     -44.4067451446798742
    Empirical Dispersion Energy =          -0.0118645800000000
    VV10 Nonlocal Energy =                  0.0000000000000000
    Total Energy =                       -381.4607156602982059



Properties will be evaluated at   0.000000,   0.000000,   0.000000 [a0]

Properties computed using the SCF density matrix

  Nuclear Dipole Moment: [e a0]
     X:     0.2220      Y:    -0.0958      Z:    -0.0828

  Electronic Dipole Moment: [e a0]
     X:    -0.1352      Y:     0.0975      Z:    -2.2048

  Dipole Moment: [e a0]
     X:     0.0868      Y:     0.0018      Z:    -2.2877     Total:     2.2893

  Dipole Moment: [D]
     X:     0.2206      Y:     0.0045      Z:    -5.8147     Total:     5.8189


*** tstop() called on oliva.prib.upf.edu at Sat Sep 29 20:37:37 2018
Module time:
	user time   =     104.20 seconds =       1.74 minutes
	system time =       0.74 seconds =       0.01 minutes
	total time  =         29 seconds =       0.48 minutes
Total time:
	user time   =     104.20 seconds =       1.74 minutes
	system time =       0.74 seconds =       0.01 minutes
	total time  =         29 seconds =       0.48 minutes

*** tstart() called on oliva.prib.upf.edu
*** at Sat Sep 29 20:37:37 2018


         ------------------------------------------------------------
                                   SCF GRAD                          
                          Rob Parrish, Justin Turney,                
                       Andy Simmonett, and Alex Sokolov              
         ------------------------------------------------------------

  ==> Geometry <==

    Molecular point group: c1
    Full point group: C1

    Geometry (in Angstrom), charge = 1, multiplicity = 1:

       Center              X                  Y                   Z               Mass       
    ------------   -----------------  -----------------  -----------------  -----------------
         C            0.000000000000     0.000000000000    -0.177864000000    12.000000000000
         C            0.036678000000     1.219374000000     0.524165000000    12.000000000000
         C            0.031765000000     1.213120000000     1.915444000000    12.000000000000
         C            0.000000000000     0.000000000000     2.610107000000    12.000000000000
         C           -0.031765000000    -1.213120000000     1.915444000000    12.000000000000
         C           -0.036678000000    -1.219375000000     0.524165000000    12.000000000000
         C            0.000000000000     0.000000000000    -1.644734000000    12.000000000000
         H            0.018170000000     2.164705000000    -0.010854000000     1.007825032070
         H            0.042402000000     2.152895000000     2.457886000000     1.007825032070
         H            0.000000000000     0.000000000000     3.695756000000     1.007825032070
         H           -0.042402000000    -2.152895000000     2.457886000000     1.007825032070
         H           -0.018170000000    -2.164705000000    -0.010853000000     1.007825032070
         N           -0.712590000000    -0.905950000000    -2.308461000000    14.003074004780
         N            0.712590000000     0.905950000000    -2.308460000000    14.003074004780
         H            0.673432000000     1.006470000000    -3.315997000000     1.007825032070
         H            1.377190000000     1.485970000000    -1.813316000000     1.007825032070
         H           -0.964148000000    -0.740566000000    -3.274199000000     1.007825032070
         H           -0.969019000000    -1.802541000000    -1.912057000000     1.007825032070

  Nuclear repulsion =  416.889520886588741

  ==> Basis Set <==

  Basis Set: 6-31G*
    Blend: 6-31G*
    Number of shells: 72
    Number of basis function: 153
    Number of Cartesian functions: 153
    Spherical Harmonics?: false
    Max angular momentum: 2

  ==> DFJKGrad: Density-Fitted SCF Gradients <==

    Gradient:                    1
    J tasked:                  Yes
    K tasked:                  Yes
    wK tasked:                  No
    OpenMP threads:              4
    Integrals threads:           4
    Memory (MB):              2002
    Schwarz Cutoff:          0E+00
    Fitting Condition:       1E-12

   => Auxiliary Basis Set <=

  Basis Set: (6-31G* AUX)
    Blend: CC-PVDZ-JKFIT
    Number of shells: 297
    Number of basis function: 954
    Number of Cartesian functions: 954
    Spherical Harmonics?: false
    Max angular momentum: 3

  ==> DFT Potential <==

   => Composite Functional: B3LYP-D3ZERO <= 

    B3LYP-d3zero Hyb-GGA Exchange-Correlation Functional

    P. J. Stephens, F. J. Devlin, C. F. Chabalowski, and M. J. Frisch, J. Phys. Chem. 98, 11623 (1994)

    Deriv               =              1
    GGA                 =           TRUE
    Meta                =          FALSE

    Exchange Hybrid     =           TRUE
    MP2 Hybrid          =          FALSE

   => Exchange Functionals <=

    0.0800   Slater exchange
    0.7200         Becke 88

   => Exact (HF) Exchange <=

    0.2000               HF 

   => Correlation Functionals <=

    0.1900   Vosko, Wilk & Nusair (VWN5_RPA)
    0.8100   Lee, Yang & Parr

   => Molecular Quadrature <=

    Radial Scheme       =       TREUTLER
    Pruning Scheme      =           FLAT
    Nuclear Scheme      =       TREUTLER

    BS radius alpha     =              1
    Pruning alpha       =              1
    Radial Points       =             75
    Spherical Points    =            302
    Total Points        =         396895
    Total Blocks        =           2989
    Max Points          =            256
    Max Functions       =            149


  -Total Gradient:
     Atom            X                  Y                   Z
    ------   -----------------  -----------------  -----------------
       1       -0.006835223068     0.004406249415    -0.001883421110
       2       -0.000922966401     0.000326338878     0.001493284593
       3        0.000733929770     0.001003772026    -0.000837059732
       4       -0.000127157332    -0.000879540317     0.000045155744
       5       -0.000021115579     0.000898929053     0.000831181944
       6        0.000006836590    -0.002418913856    -0.001197933716
       7       -0.005718360106     0.002838178549    -0.005435257520
       8       -0.000228976871     0.000027698915    -0.000084414206
       9        0.000092217355    -0.000033027382     0.000078942184
      10       -0.000016081721     0.000053050859     0.000047967695
      11        0.000051264515    -0.000016835029    -0.000050743747
      12       -0.000104990453     0.000937292817    -0.001173427975
      13        0.002353464909    -0.001645351530     0.009675848151
      14        0.006356641535    -0.003625080601    -0.000877343111
      15       -0.001578655789     0.001303626406     0.000376020826
      16        0.003091030515    -0.002926907836    -0.000660484033
      17       -0.004968189924     0.007013822759     0.004277118387
      18        0.007832056963    -0.007263676144    -0.004639924637


*** tstop() called on oliva.prib.upf.edu at Sat Sep 29 20:37:44 2018
Module time:
	user time   =      26.08 seconds =       0.43 minutes
	system time =       0.30 seconds =       0.00 minutes
	total time  =          7 seconds =       0.12 minutes
Total time:
	user time   =     130.33 seconds =       2.17 minutes
	system time =       1.05 seconds =       0.02 minutes
	total time  =         36 seconds =       0.60 minutes

			-----------------------------------------
			 OPTKING 2.0: for geometry optimizations 
			  - R.A. King,  Bethel University        
			-----------------------------------------
	At level 1: Red. Int., RFO, no backsteps, dynamic trust

	Internal coordinates to be generated automatically.
	Detected frag 1 with atoms:  1 2 3 4 5 6 7 8 9 10 11 12 13 14 15 16 17 18
	---Fragment 1 Bond Connectivity---
	 1 : 2 6 7
	 2 : 1 3 8
	 3 : 2 4 9
	 4 : 3 5 10
	 5 : 4 6 11
	 6 : 1 5 12
	 7 : 1 13 14
	 8 : 2
	 9 : 3
	 10 : 4
	 11 : 5
	 12 : 6
	 13 : 7 17 18
	 14 : 7 15 16
	 15 : 14
	 16 : 14
	 17 : 13
	 18 : 13

	Assuming in current code that numbering for constraints corresponds to unified fragment.
	Frozen dihedral atom list: 
	     1     7    13    17
	---Fragment 1 Geometry and Gradient---
	 C           0.0000000000        0.0000000000       -0.3361142489
	 C           0.0693113751        2.3042829136        0.9905282984
	 C           0.0600271506        2.2924645663        3.6196645829
	 C           0.0000000000        0.0000000000        4.9323874075
	 C          -0.0600271506       -2.2924645663        3.6196645829
	 C          -0.0693113751       -2.3042848033        0.9905282984
	 C           0.0000000000        0.0000000000       -3.1080968214
	 H           0.0343363238        4.0906996085       -0.0205110874
	 H           0.0801281675        4.0683819429        4.6447314059
	 H           0.0000000000        0.0000000000        6.9839666940
	 H          -0.0801281675       -4.0683819429        4.6447314059
	 H          -0.0343363238       -4.0906996085       -0.0205091977
	 N          -1.3465999450       -1.7119973901       -4.3623590784
	 N           1.3465999450        1.7119973901       -4.3623571887
	 H           1.2726020491        1.9019526610       -6.2663261875
	 H           2.6025119329        2.8080763417       -3.4266706324
	 H          -1.8219756716       -1.3994669233       -6.1873394146
	 H          -1.8311805276       -3.4063088333       -3.6132640805
	            -0.0068352231        0.0044062494       -0.0018834211
	            -0.0009229664        0.0003263389        0.0014932846
	             0.0007339298        0.0010037720       -0.0008370597
	            -0.0001271573       -0.0008795403        0.0000451557
	            -0.0000211156        0.0008989291        0.0008311819
	             0.0000068366       -0.0024189139       -0.0011979337
	            -0.0057183601        0.0028381785       -0.0054352575
	            -0.0002289769        0.0000276989       -0.0000844142
	             0.0000922174       -0.0000330274        0.0000789422
	            -0.0000160817        0.0000530509        0.0000479677
	             0.0000512645       -0.0000168350       -0.0000507437
	            -0.0001049905        0.0009372928       -0.0011734280
	             0.0023534649       -0.0016453515        0.0096758482
	             0.0063566415       -0.0036250806       -0.0008773431
	            -0.0015786558        0.0013036264        0.0003760208
	             0.0030910305       -0.0029269078       -0.0006604840
	            -0.0049681899        0.0070138228        0.0042771184
	             0.0078320570       -0.0072636761       -0.0046399246

	Previous optimization step data not found.  Starting new optimization.

	---Fragment 1 Intrafragment Coordinates---
	 - Coordinate -           - BOHR/RAD -       - ANG/DEG -
	 R(1,2)           =         2.659794	       1.407502
	 R(1,6)           =         2.659796	       1.407503
	 R(1,7)           =         2.771983	       1.466870
	 R(2,3)           =         2.629179	       1.391302
	 R(2,8)           =         2.052976	       1.086388
	 R(3,4)           =         2.642393	       1.398294
	 R(3,9)           =         2.050622	       1.085142
	 R(4,5)           =         2.642393	       1.398294
	 R(4,10)          =         2.051579	       1.085649
	 R(5,6)           =         2.629179	       1.391302
	 R(5,11)          =         2.050622	       1.085142
	 R(6,12)          =         2.052973	       1.086386
	 R(7,13)          =         2.513452	       1.330061
	 R(7,14)          =         2.513451	       1.330061
	 R(13,17)         =         1.911599	       1.011575
	 R(13,18)         =         1.914851	       1.013295
	 R(14,15)         =         1.914852	       1.013296
	 R(14,16)         =         1.911600	       1.011575
	 B(1,2,3)         =         2.088380	     119.655376
	 B(1,2,8)         =         2.103396	     120.515689
	 B(1,6,5)         =         2.088379	     119.655315
	 B(1,6,12)        =         2.103396	     120.515729
	 B(1,7,13)        =         2.093264	     119.935172
	 B(1,7,14)        =         2.093263	     119.935135
	 B(2,1,6)         =         2.097220	     120.161857
	 B(2,1,7)         =         2.092983	     119.919082
	 B(2,3,4)         =         2.095279	     120.050636
	 B(2,3,9)         =         2.089719	     119.732108
	 B(3,2,8)         =         2.090149	     119.756722
	 B(3,4,5)         =         2.101793	     120.423859
	 B(3,4,10)        =         2.090696	     119.788070
	 B(4,3,9)         =         2.098135	     120.214297
	 B(4,5,6)         =         2.095280	     120.050677
	 B(4,5,11)        =         2.098135	     120.214297
	 B(5,4,10)        =         2.090696	     119.788070
	 B(5,6,12)        =         2.090149	     119.756743
	 B(6,1,7)         =         2.092982	     119.919061
	 B(6,5,11)        =         2.089719	     119.732067
	 B(7,13,17)       =         2.092411	     119.886294
	 B(7,13,18)       =         2.144860	     122.891426
	 B(7,14,15)       =         2.144860	     122.891405
	 B(7,14,16)       =         2.092412	     119.886393
	 B(13,7,14)       =         2.096659	     120.129694
	 B(15,14,16)      =         2.043399	     117.078146
	 B(17,13,18)      =         2.043400	     117.078218
	 D(1,2,3,4)       =         0.007799	       0.446825
	 D(1,2,3,9)       =        -3.122896	    -178.928735
	 D(1,6,5,4)       =         0.007799	       0.446822
	 D(1,6,5,11)      =        -3.122896	    -178.928737
	*D(1,7,13,17)     =         2.792527	     160.000011
	 D(1,7,13,18)     =        -0.427483	     -24.492980
	 D(1,7,14,15)     =        -3.032165	    -173.730230
	 D(1,7,14,16)     =         0.187844	      10.762681
	 D(2,1,6,5)       =        -0.003906	      -0.223802
	 D(2,1,6,12)      =        -3.091437	    -177.126283
	 D(2,1,7,13)      =        -2.505167	    -143.535494
	 D(2,1,7,14)      =         0.636426	      36.464506
	 D(2,3,4,5)       =        -0.003942	      -0.225875
	 D(2,3,4,10)      =         3.137650	     179.774125
	 D(3,2,1,6)       =        -0.003906	      -0.223806
	 D(3,2,1,7)       =         3.137687	     179.776196
	 D(3,4,5,6)       =        -0.003942	      -0.225874
	 D(3,4,5,11)      =         3.126699	     179.146646
	 D(4,3,2,8)       =         3.095744	     177.373058
	 D(4,5,6,12)      =         3.095744	     177.373055
	 D(5,4,3,9)       =         3.126699	     179.146646
	 D(5,6,1,7)       =         3.137687	     179.776197
	 D(6,1,2,8)       =        -3.091437	    -177.126287
	 D(6,1,7,13)      =         0.636426	      36.464508
	 D(6,1,7,14)      =        -2.505167	    -143.535492
	 D(6,5,4,10)      =         3.137650	     179.774126
	 D(7,1,2,8)       =         0.050156	       2.873714
	 D(7,1,6,12)      =         0.050156	       2.873716
	 D(8,2,3,9)       =        -0.034950	      -2.002503
	 D(9,3,4,10)      =        -0.014894	      -0.853354
	 D(10,4,5,11)     =        -0.014894	      -0.853354
	 D(11,5,6,12)     =        -0.034950	      -2.002504
	 D(13,7,14,15)    =         0.109428	       6.269770
	 D(13,7,14,16)    =        -2.953748	    -169.237319
	 D(14,7,13,17)    =        -0.349066	     -19.999989
	 D(14,7,13,18)    =         2.714110	     155.507020

	Current energy   :      -381.4607156603

	Generating empirical Hessian (Schlegel '84) for each fragment.
	Taking RFO optimization step.
	Going to follow RFO solution 1.
	Using RFO vector 1.

	Determining step-restricting scale parameter for RS-RFO.
	Maximum step size allowed    0.50000

	 Iter      |step|        alpha        rfo_root  
	------------------------------------------------
	    0     0.53617       1.00000           1
	    1     0.50371       1.28246           1
	    2     0.50005       1.31841           1
	    3     0.50000       1.31886           1
	------------------------------------------------
	Norm of target step-size    0.50000
	Projected energy change by RFO approximation:        -0.0051936966

	Back-transformation to cartesian coordinates...
	Could not converge backtransformation.
	Using first guess instead.

	Back-transformation to cartesian coordinates to adjust frozen coordinates...
	Successfully converged to displaced geometry.

	--- Internal Coordinate Step in ANG or DEG, aJ/ANG or AJ/DEG ---
	 ---------------------------------------------------------------------------
	   Coordinate                Previous        Force       Change         New 
	   ----------                --------       ------       ------       ------
	    1 R(1,2)          =      1.407502    -0.005730    -0.000631     1.406872
	    2 R(1,6)          =      1.407503     0.003766     0.000751     1.408254
	    3 R(1,7)          =      1.466870     0.022423     0.003944     1.470814
	    4 R(2,3)          =      1.391302     0.004728     0.001189     1.392491
	    5 R(2,8)          =      1.086388    -0.000569     0.000051     1.086439
	    6 R(3,4)          =      1.398294    -0.007859    -0.000869     1.397425
	    7 R(3,9)          =      1.085142    -0.000100     0.000225     1.085367
	    8 R(4,5)          =      1.398294    -0.000799     0.000163     1.398457
	    9 R(4,10)         =      1.085649    -0.000402     0.000286     1.085935
	   10 R(5,6)          =      1.391302    -0.005744    -0.000402     1.390899
	   11 R(5,11)         =      1.085142     0.000089     0.000160     1.085302
	   12 R(6,12)         =      1.086386     0.001976     0.000749     1.087135
	   13 R(7,13)         =      1.330061     0.050702     0.006695     1.336757
	   14 R(7,14)         =      1.330061    -0.010058     0.001593     1.331654
	   15 R(13,17)        =      1.011575     0.014020     0.002053     1.013628
	   16 R(13,18)        =      1.013295    -0.021666     0.022696     1.035992
	   17 R(14,15)        =      1.013296     0.001521     0.000292     1.013588
	   18 R(14,16)        =      1.011575    -0.000250     0.006415     1.017990
	   19 B(1,2,3)        =    119.655376     0.000023     0.072786   119.728162
	   20 B(1,2,8)        =    120.515689    -0.000007    -0.030057   120.485633
	   21 B(1,6,5)        =    119.655315     0.000057     0.177489   119.832804
	   22 B(1,6,12)       =    120.515729     0.000087     0.414296   120.930026
	   23 B(1,7,13)       =    119.935172     0.000341     0.928907   120.864079
	   24 B(1,7,14)       =    119.935135    -0.000253    -0.832369   119.102765
	   25 B(2,1,6)        =    120.161857    -0.000075    -0.221029   119.940828
	   26 B(2,1,7)        =    119.919082    -0.000220    -0.631805   119.287277
	   27 B(2,3,4)        =    120.050636     0.000022     0.072373   120.123010
	   28 B(2,3,9)        =    119.732108    -0.000018    -0.054618   119.677489
	   29 B(3,2,8)        =    119.756722    -0.000017    -0.065558   119.691164
	   30 B(3,4,5)        =    120.423859    -0.000024    -0.097315   120.326545
	   31 B(3,4,10)       =    119.788070     0.000016     0.062904   119.850974
	   32 B(4,3,9)        =    120.214297    -0.000004    -0.016077   120.198220
	   33 B(4,5,6)        =    120.050677    -0.000003    -0.011301   120.039377
	   34 B(4,5,11)       =    120.214297    -0.000002    -0.017658   120.196638
	   35 B(5,4,10)       =    119.788070     0.000008     0.034411   119.822481
	   36 B(5,6,12)       =    119.756743    -0.000143    -0.585775   119.170968
	   37 B(6,1,7)        =    119.919061     0.000295     0.852421   120.771483
	   38 B(6,5,11)       =    119.732067     0.000006     0.030549   119.762616
	   39 B(7,13,17)      =    119.886294     0.000487     2.301960   122.188253
	   40 B(7,13,18)      =    122.891426    -0.000368    -1.877544   121.013882
	   41 B(7,14,15)      =    122.891405     0.000007     0.036151   122.927556
	   42 B(7,14,16)      =    119.886393     0.000003     0.266464   120.152857
	   43 B(13,7,14)      =    120.129694    -0.000088    -0.489312   119.640381
	   44 B(15,14,16)     =    117.078146    -0.000001    -0.167758   116.910387
	   45 B(17,13,18)     =    117.078218    -0.000084    -0.683144   116.395075
	   46 D(1,2,3,4)      =      0.446825     0.000006     0.619048     1.065873
	   47 D(1,2,3,9)      =   -178.928735     0.000004     0.405524  -178.523211
	   48 D(1,6,5,4)      =      0.446822     0.000001     0.078586     0.525408
	   49 D(1,6,5,11)     =   -178.928737    -0.000001    -0.121011  -179.049748
	   50 *D(1,7,13,17)   =    160.000011    -0.000000     0.000000   160.000011
	   51 D(1,7,13,18)    =    -24.492980     0.000126    12.041798   -12.451181
	   52 D(1,7,14,15)    =   -173.730230     0.000002     0.565510  -173.164720
	   53 D(1,7,14,16)    =     10.762681    -0.000031    -2.789313     7.973368
	   54 D(2,1,6,5)      =     -0.223802     0.000003     0.347346     0.123545
	   55 D(2,1,6,12)     =   -177.126283     0.000003     0.233283  -176.893000
	   56 D(2,1,7,13)     =   -143.535494     0.000028     3.131626  -140.403868
	   57 D(2,1,7,14)     =     36.464506    -0.000035    -4.088116    32.376390
	   58 D(2,3,4,5)      =     -0.225875    -0.000002    -0.194237    -0.420112
	   59 D(2,3,4,10)     =    179.774125    -0.000002    -0.194418   179.579706
	   60 D(3,2,1,6)      =     -0.223806    -0.000006    -0.695626    -0.919432
	   61 D(3,2,1,7)      =    179.776196    -0.000008    -0.927375   178.848821
	   62 D(3,4,5,6)      =     -0.225874    -0.000001    -0.156810    -0.382684
	   63 D(3,4,5,11)     =    179.146646     0.000001     0.043965   179.190611
	   64 D(4,3,2,8)      =    177.373058     0.000002     0.165898   177.538956
	   65 D(4,5,6,12)     =    177.373055     0.000003     0.221472   177.594527
	   66 D(5,4,3,9)      =    179.146646     0.000000     0.020169   179.166815
	   67 D(5,6,1,7)      =    179.776197     0.000005     0.582591   180.358789
	   68 D(6,1,2,8)      =   -177.126287    -0.000002    -0.237741  -177.364028
	   69 D(6,1,7,13)     =     36.464508     0.000027     2.897901    39.362409
	   70 D(6,1,7,14)     =   -143.535492    -0.000036    -4.321840  -147.857333
	   71 D(6,5,4,10)     =    179.774126    -0.000001    -0.156628   179.617497
	   72 D(7,1,2,8)      =      2.873714    -0.000004    -0.469490     2.404224
	   73 D(7,1,6,12)     =      2.873716     0.000004     0.468528     3.342244
	   74 D(8,2,3,9)      =     -2.002503    -0.000000    -0.047625    -2.050128
	   75 D(9,3,4,10)     =     -0.853354     0.000000     0.019987    -0.833366
	   76 D(10,4,5,11)    =     -0.853354     0.000001     0.044146    -0.809207
	   77 D(11,5,6,12)    =     -2.002504     0.000001     0.021875    -1.980629
	   78 D(13,7,14,15)   =      6.269770    -0.000061    -6.564386    -0.294616
	   79 D(13,7,14,16)   =   -169.237319    -0.000094    -9.919208  -179.156527
	   80 D(14,7,13,17)   =    -19.999989     0.000063     7.258176   -12.741813
	   81 D(14,7,13,18)   =    155.507020     0.000189    19.299974   174.806995
	 ---------------------------------------------------------------------------
	Successfully symmetrized geometry.

  ==> Convergence Check <==

  Measures of convergence in internal coordinates in au.
  Criteria marked as inactive (o), active & met (*), and active & unmet ( ).
  --------------------------------------------------------------------------------------------- ~
   Step     Total Energy     Delta E     MAX Force     RMS Force      MAX Disp      RMS Disp    ~
  --------------------------------------------------------------------------------------------- ~
    Convergence Criteria    1.00e-06 *    3.00e-04 *             o    1.20e-03 *             o  ~
  --------------------------------------------------------------------------------------------- ~
      1    -381.46071566   -3.81e+02      1.08e-02      2.30e-03 o    3.37e-01      5.47e-02 o  ~
  ---------------------------------------------------------------------------------------------

	Writing optimization data to binary file.
	Structure for next step:
	Cartesian Geometry (in Angstrom)
	    C     0.0424735987  -0.0387593540  -0.1818362040
	    C     0.0681399355   1.1894601939   0.5038063513
	    C     0.0303118112   1.2041914534   1.8957051408
	    C    -0.0104147251   0.0031637735   2.6089168616
	    C    -0.0223404735  -1.2202500878   1.9315713249
	    C    -0.0016693052  -1.2464983497   0.5410734021
	    C     0.0570851589  -0.0422009657  -1.6525737766
	    H     0.0591625476   2.1272104654  -0.0447312730
	    H     0.0258636800   2.1527674776   2.4231576927
	    H    -0.0329165931   0.0196717552   3.6944933002
	    H    -0.0407406826  -2.1520002829   2.4877941236
	    H     0.0285422147  -2.2053129946   0.0295804448
	    N    -0.6905859218  -0.9083145826  -2.3437712524
	    N     0.7123460550   0.9221045777  -2.2960405856
	    H     0.6776399585   1.0347785576  -3.3027484156
	    H     1.2941748693   1.5780305559  -1.7787983926
	    H    -0.9348472830  -0.7553046371  -3.3155557680
	    H    -1.1447698451  -1.7134055558  -1.8759849741
			--------------------------
			 OPTKING Finished Execution 
			--------------------------

    Structure for next step:
    Molecular point group: c1
    Full point group: C1

    Geometry (in Angstrom), charge = 1, multiplicity = 1:

    C            0.042473598735    -0.038759353995    -0.181836204005
    C            0.068139935450     1.189460193924     0.503806351311
    C            0.030311811212     1.204191453397     1.895705140771
    C           -0.010414725054     0.003163773461     2.608916861566
    C           -0.022340473496    -1.220250087842     1.931571324875
    C           -0.001669305187    -1.246498349706     0.541073402104
    C            0.057085158856    -0.042200965727    -1.652573776579
    H            0.059162547609     2.127210465411    -0.044731273014
    H            0.025863679974     2.152767477636     2.423157692668
    H           -0.032916593139     0.019671755229     3.694493300171
    H           -0.040740682558    -2.152000282886     2.487794123566
    H            0.028542214713    -2.205312994579     0.029580444804
    N           -0.690585921779    -0.908314582599    -2.343771252380
    N            0.712346054994     0.922104577714    -2.296040585592
    H            0.677639958506     1.034778557564    -3.302748415568
    H            1.294174869266     1.578030555947    -1.778798392624
    H           -0.934847283050    -0.755304637136    -3.315555768000
    H           -1.144769845054    -1.713405555815    -1.875984974076

gradient() will perform analytic gradient computation.

*** tstart() called on oliva.prib.upf.edu
*** at Sat Sep 29 20:37:44 2018

   => Loading Basis Set <=

    Name: 6-31G*
    Role: ORBITAL
    Keyword: BASIS
    atoms 1-7         entry C          line   111 file /shared/joao/test_parameterize/miniconda3/share/psi4/basis/6-31gs.gbs 
    atoms 8-12, 15-18 entry H          line    44 file /shared/joao/test_parameterize/miniconda3/share/psi4/basis/6-31gs.gbs 
    atoms 13-14       entry N          line   128 file /shared/joao/test_parameterize/miniconda3/share/psi4/basis/6-31gs.gbs 


         ---------------------------------------------------------
                                   SCF
            by Justin Turney, Rob Parrish, Andy Simmonett
                             and Daniel Smith
                              RKS Reference
                        4 Threads,   2861 MiB Core
         ---------------------------------------------------------

  ==> Geometry <==

    Molecular point group: c1
    Full point group: C1

    Geometry (in Angstrom), charge = 1, multiplicity = 1:

       Center              X                  Y                   Z               Mass       
    ------------   -----------------  -----------------  -----------------  -----------------
         C            0.042473598735    -0.038759353995    -0.181836204005    12.000000000000
         C            0.068139935450     1.189460193924     0.503806351311    12.000000000000
         C            0.030311811212     1.204191453397     1.895705140771    12.000000000000
         C           -0.010414725054     0.003163773461     2.608916861566    12.000000000000
         C           -0.022340473496    -1.220250087842     1.931571324875    12.000000000000
         C           -0.001669305187    -1.246498349706     0.541073402104    12.000000000000
         C            0.057085158856    -0.042200965727    -1.652573776579    12.000000000000
         H            0.059162547609     2.127210465411    -0.044731273014     1.007825032070
         H            0.025863679974     2.152767477636     2.423157692668     1.007825032070
         H           -0.032916593139     0.019671755229     3.694493300171     1.007825032070
         H           -0.040740682558    -2.152000282886     2.487794123566     1.007825032070
         H            0.028542214713    -2.205312994579     0.029580444804     1.007825032070
         N           -0.690585921779    -0.908314582599    -2.343771252380    14.003074004780
         N            0.712346054994     0.922104577714    -2.296040585592    14.003074004780
         H            0.677639958506     1.034778557564    -3.302748415568     1.007825032070
         H            1.294174869266     1.578030555947    -1.778798392624     1.007825032070
         H           -0.934847283050    -0.755304637136    -3.315555768000     1.007825032070
         H           -1.144769845054    -1.713405555815    -1.875984974076     1.007825032070

  Running in c1 symmetry.

  Rotational constants: A =      0.12164  B =      0.03947  C =      0.03116 [cm^-1]
  Rotational constants: A =   3646.71169  B =   1183.28016  C =    934.09643 [MHz]
  Nuclear repulsion =  416.340717841655078

  Charge       = 1
  Multiplicity = 1
  Electrons    = 64
  Nalpha       = 32
  Nbeta        = 32

  ==> Algorithm <==

  SCF Algorithm Type is DF.
  DIIS enabled.
  MOM disabled.
  Fractional occupation disabled.
  Guess Type is READ.
  Energy threshold   = 1.00e-08
  Density threshold  = 1.00e-08
  Integral threshold = 0.00e+00

  ==> Primary Basis <==

  Basis Set: 6-31G*
    Blend: 6-31G*
    Number of shells: 72
    Number of basis function: 153
    Number of Cartesian functions: 153
    Spherical Harmonics?: false
    Max angular momentum: 2

  ==> DFT Potential <==

   => Composite Functional: B3LYP-D3ZERO <= 

    B3LYP-d3zero Hyb-GGA Exchange-Correlation Functional

    P. J. Stephens, F. J. Devlin, C. F. Chabalowski, and M. J. Frisch, J. Phys. Chem. 98, 11623 (1994)

    Deriv               =              1
    GGA                 =           TRUE
    Meta                =          FALSE

    Exchange Hybrid     =           TRUE
    MP2 Hybrid          =          FALSE

   => Exchange Functionals <=

    0.0800   Slater exchange
    0.7200         Becke 88

   => Exact (HF) Exchange <=

    0.2000               HF 

   => Correlation Functionals <=

    0.1900   Vosko, Wilk & Nusair (VWN5_RPA)
    0.8100   Lee, Yang & Parr

   => Molecular Quadrature <=

    Radial Scheme       =       TREUTLER
    Pruning Scheme      =           FLAT
    Nuclear Scheme      =       TREUTLER

    BS radius alpha     =              1
    Pruning alpha       =              1
    Radial Points       =             75
    Spherical Points    =            302
    Total Points        =         396881
    Total Blocks        =           2993
    Max Points          =            256
    Max Functions       =            149

   => -D3ZERO: Empirical Dispersion <=

    Grimme's -D3 (zero-damping) Dispersion Correction
    Grimme S.; Antony J.; Ehrlich S.; Krieg H. (2010), J. Chem. Phys., 132: 154104

        S6 =   1.000000E+00
        S8 =   1.703000E+00
       SR6 =   1.261000E+00
       SR8 =   1.000000E+00
    ALPHA6 =   1.400000E+01

   => Loading Basis Set <=

    Name: (6-31G* AUX)
    Role: JKFIT
    Keyword: DF_BASIS_SCF
    atoms 1-7         entry C          line   121 file /shared/joao/test_parameterize/miniconda3/share/psi4/basis/cc-pvdz-jkfit.gbs 
    atoms 8-12, 15-18 entry H          line    51 file /shared/joao/test_parameterize/miniconda3/share/psi4/basis/cc-pvdz-jkfit.gbs 
    atoms 13-14       entry N          line   171 file /shared/joao/test_parameterize/miniconda3/share/psi4/basis/cc-pvdz-jkfit.gbs 

  Reading orbitals from file 180, no projection.

  ==> Pre-Iterations <==

   -------------------------------------------------------
    Irrep   Nso     Nmo     Nalpha   Nbeta   Ndocc  Nsocc
   -------------------------------------------------------
     A        153     153       0       0       0       0
   -------------------------------------------------------
    Total     153     153      32      32      32       0
   -------------------------------------------------------

  ==> Integral Setup <==

  ==> DiskDFJK: Density-Fitted J/K Matrices <==

    J tasked:                  Yes
    K tasked:                  Yes
    wK tasked:                  No
    OpenMP threads:              4
    Integrals threads:           4
    Memory (MB):              2002
    Algorithm:                Core
    Integral Cache:           NONE
    Schwarz Cutoff:          1E-12
    Fitting Condition:       1E-12

   => Auxiliary Basis Set <=

  Basis Set: (6-31G* AUX)
    Blend: CC-PVDZ-JKFIT
    Number of shells: 297
    Number of basis function: 954
    Number of Cartesian functions: 954
    Spherical Harmonics?: false
    Max angular momentum: 3

  Minimum eigenvalue in the overlap matrix is 4.8655663724E-04.
  Using Symmetric Orthogonalization.

  SCF Guess: Orbitals guess was supplied from a previous computation.

  ==> Iterations <==

                           Total Energy        Delta E     RMS |[F,P]|

   @DF-RKS iter   0:  -381.42900126028235   -3.81429e+02   1.91057e-03 
   @DF-RKS iter   1:  -381.46479025643873   -3.57890e-02   2.64845e-04 
   @DF-RKS iter   2:  -381.46470244765538    8.78088e-05   3.35741e-04 DIIS
   @DF-RKS iter   3:  -381.46505162068149   -3.49173e-04   1.01640e-04 DIIS
   @DF-RKS iter   4:  -381.46508241612008   -3.07954e-05   3.20568e-05 DIIS
   @DF-RKS iter   5:  -381.46508516590239   -2.74978e-06   9.07587e-06 DIIS
   @DF-RKS iter   6:  -381.46508538122413   -2.15322e-07   3.03440e-06 DIIS
   @DF-RKS iter   7:  -381.46508540669902   -2.54749e-08   8.51983e-07 DIIS
   @DF-RKS iter   8:  -381.46508540851204   -1.81302e-09   2.96636e-07 DIIS
   @DF-RKS iter   9:  -381.46508540876459   -2.52555e-10   5.80985e-08 DIIS
   @DF-RKS iter  10:  -381.46508540877272   -8.12861e-12   2.32938e-08 DIIS
   @DF-RKS iter  11:  -381.46508540877397   -1.25056e-12   7.96096e-09 DIIS

  ==> Post-Iterations <==

    Orbital Energies [Eh]
    ---------------------

    Doubly Occupied:                                                      

       1A    -14.569734     2A    -14.568827     3A    -10.499989  
       4A    -10.375059     5A    -10.357069     6A    -10.356537  
       7A    -10.342135     8A    -10.340624     9A    -10.340426  
      10A     -1.181937    11A     -1.088927    12A     -1.014307  
      13A     -0.926413    14A     -0.902421    15A     -0.845000  
      16A     -0.783549    17A     -0.773898    18A     -0.739785  
      19A     -0.733386    20A     -0.683473    21A     -0.669250  
      22A     -0.628194    23A     -0.615627    24A     -0.590405  
      25A     -0.578121    26A     -0.574390    27A     -0.516866  
      28A     -0.506683    29A     -0.498529    30A     -0.470497  
      31A     -0.409949    32A     -0.405585  

    Virtual:                                                              

      33A     -0.217737    34A     -0.157610    35A     -0.134769  
      36A     -0.111725    37A     -0.073374    38A     -0.064090  
      39A     -0.038165    40A     -0.037727    41A      0.007068  
      42A      0.021310    43A      0.023712    44A      0.060569  
      45A      0.062542    46A      0.081911    47A      0.122377  
      48A      0.146846    49A      0.157048    50A      0.163662  
      51A      0.203490    52A      0.239496    53A      0.298983  
      54A      0.349588    55A      0.353145    56A      0.379447  
      57A      0.388146    58A      0.397617    59A      0.420448  
      60A      0.421903    61A      0.441703    62A      0.451169  
      63A      0.453930    64A      0.469082    65A      0.471409  
      66A      0.474662    67A      0.486050    68A      0.500938  
      69A      0.516803    70A      0.541281    71A      0.544193  
      72A      0.588687    73A      0.606945    74A      0.651668  
      75A      0.655762    76A      0.676786    77A      0.689211  
      78A      0.704176    79A      0.711745    80A      0.720198  
      81A      0.753010    82A      0.774738    83A      0.775448  
      84A      0.801829    85A      0.815837    86A      0.842417  
      87A      0.847634    88A      0.934055    89A      0.961900  
      90A      0.991520    91A      1.000728    92A      1.022367  
      93A      1.041791    94A      1.071298    95A      1.140577  
      96A      1.171831    97A      1.241583    98A      1.269544  
      99A      1.279372   100A      1.309315   101A      1.314821  
     102A      1.343287   103A      1.352087   104A      1.362614  
     105A      1.422048   106A      1.454002   107A      1.509398  
     108A      1.593277   109A      1.617266   110A      1.652763  
     111A      1.679789   112A      1.736283   113A      1.751011  
     114A      1.795623   115A      1.825488   116A      1.840776  
     117A      1.894183   118A      1.915125   119A      1.952141  
     120A      1.978002   121A      1.994955   122A      2.019919  
     123A      2.022020   124A      2.075386   125A      2.104033  
     126A      2.127189   127A      2.151063   128A      2.198505  
     129A      2.214753   130A      2.272441   131A      2.325686  
     132A      2.369103   133A      2.443879   134A      2.452113  
     135A      2.488091   136A      2.518709   137A      2.544292  
     138A      2.588728   139A      2.606224   140A      2.627542  
     141A      2.735649   142A      2.875521   143A      2.980711  
     144A      3.257420   145A      3.628319   146A      3.654349  
     147A      3.913082   148A      3.948675   149A      3.962736  
     150A      4.053467   151A      4.172959   152A      4.255350  
     153A      4.544538  

    Final Occupation by Irrep:
              A 
    DOCC [    32 ]

  Energy converged.

  @DF-RKS Final Energy:  -381.46508540877397

   => Energetics <=

    Nuclear Repulsion Energy =            416.3407178416550778
    One-Electron Energy =               -1327.8998856314701698
    Two-Electron Energy =                 574.4956562001482325
    DFT Exchange-Correlation Energy =     -44.3897459691071248
    Empirical Dispersion Energy =          -0.0118278500000000
    VV10 Nonlocal Energy =                  0.0000000000000000
    Total Energy =                       -381.4650854087739731



Properties will be evaluated at   0.000000,   0.000000,   0.000000 [a0]

Properties computed using the SCF density matrix

  Nuclear Dipole Moment: [e a0]
     X:     2.0143      Y:    -1.3651      Z:    -0.5320

  Electronic Dipole Moment: [e a0]
     X:    -2.0709      Y:     1.4179      Z:    -1.7347

  Dipole Moment: [e a0]
     X:    -0.0565      Y:     0.0527      Z:    -2.2667     Total:     2.2680

  Dipole Moment: [D]
     X:    -0.1437      Y:     0.1340      Z:    -5.7614     Total:     5.7647


*** tstop() called on oliva.prib.upf.edu at Sat Sep 29 20:38:08 2018
Module time:
	user time   =      84.76 seconds =       1.41 minutes
	system time =       0.72 seconds =       0.01 minutes
	total time  =         24 seconds =       0.40 minutes
Total time:
	user time   =     216.05 seconds =       3.60 minutes
	system time =       1.83 seconds =       0.03 minutes
	total time  =         60 seconds =       1.00 minutes

*** tstart() called on oliva.prib.upf.edu
*** at Sat Sep 29 20:38:08 2018


         ------------------------------------------------------------
                                   SCF GRAD                          
                          Rob Parrish, Justin Turney,                
                       Andy Simmonett, and Alex Sokolov              
         ------------------------------------------------------------

  ==> Geometry <==

    Molecular point group: c1
    Full point group: C1

    Geometry (in Angstrom), charge = 1, multiplicity = 1:

       Center              X                  Y                   Z               Mass       
    ------------   -----------------  -----------------  -----------------  -----------------
         C            0.042473598735    -0.038759353995    -0.181836204005    12.000000000000
         C            0.068139935450     1.189460193924     0.503806351311    12.000000000000
         C            0.030311811212     1.204191453397     1.895705140771    12.000000000000
         C           -0.010414725054     0.003163773461     2.608916861566    12.000000000000
         C           -0.022340473496    -1.220250087842     1.931571324875    12.000000000000
         C           -0.001669305187    -1.246498349706     0.541073402104    12.000000000000
         C            0.057085158856    -0.042200965727    -1.652573776579    12.000000000000
         H            0.059162547609     2.127210465411    -0.044731273014     1.007825032070
         H            0.025863679974     2.152767477636     2.423157692668     1.007825032070
         H           -0.032916593139     0.019671755229     3.694493300171     1.007825032070
         H           -0.040740682558    -2.152000282886     2.487794123566     1.007825032070
         H            0.028542214713    -2.205312994579     0.029580444804     1.007825032070
         N           -0.690585921779    -0.908314582599    -2.343771252380    14.003074004780
         N            0.712346054994     0.922104577714    -2.296040585592    14.003074004780
         H            0.677639958506     1.034778557564    -3.302748415568     1.007825032070
         H            1.294174869266     1.578030555947    -1.778798392624     1.007825032070
         H           -0.934847283050    -0.755304637136    -3.315555768000     1.007825032070
         H           -1.144769845054    -1.713405555815    -1.875984974076     1.007825032070

  Nuclear repulsion =  416.340717841655078

  ==> Basis Set <==

  Basis Set: 6-31G*
    Blend: 6-31G*
    Number of shells: 72
    Number of basis function: 153
    Number of Cartesian functions: 153
    Spherical Harmonics?: false
    Max angular momentum: 2

  ==> DFJKGrad: Density-Fitted SCF Gradients <==

    Gradient:                    1
    J tasked:                  Yes
    K tasked:                  Yes
    wK tasked:                  No
    OpenMP threads:              4
    Integrals threads:           4
    Memory (MB):              2002
    Schwarz Cutoff:          0E+00
    Fitting Condition:       1E-12

   => Auxiliary Basis Set <=

  Basis Set: (6-31G* AUX)
    Blend: CC-PVDZ-JKFIT
    Number of shells: 297
    Number of basis function: 954
    Number of Cartesian functions: 954
    Spherical Harmonics?: false
    Max angular momentum: 3

  ==> DFT Potential <==

   => Composite Functional: B3LYP-D3ZERO <= 

    B3LYP-d3zero Hyb-GGA Exchange-Correlation Functional

    P. J. Stephens, F. J. Devlin, C. F. Chabalowski, and M. J. Frisch, J. Phys. Chem. 98, 11623 (1994)

    Deriv               =              1
    GGA                 =           TRUE
    Meta                =          FALSE

    Exchange Hybrid     =           TRUE
    MP2 Hybrid          =          FALSE

   => Exchange Functionals <=

    0.0800   Slater exchange
    0.7200         Becke 88

   => Exact (HF) Exchange <=

    0.2000               HF 

   => Correlation Functionals <=

    0.1900   Vosko, Wilk & Nusair (VWN5_RPA)
    0.8100   Lee, Yang & Parr

   => Molecular Quadrature <=

    Radial Scheme       =       TREUTLER
    Pruning Scheme      =           FLAT
    Nuclear Scheme      =       TREUTLER

    BS radius alpha     =              1
    Pruning alpha       =              1
    Radial Points       =             75
    Spherical Points    =            302
    Total Points        =         396881
    Total Blocks        =           2993
    Max Points          =            256
    Max Functions       =            149


  -Total Gradient:
     Atom            X                  Y                   Z
    ------   -----------------  -----------------  -----------------
       1       -0.006465932419     0.007070139220    -0.001160301107
       2        0.000306186599     0.000205637869    -0.000303334117
       3       -0.000095597518    -0.000001986373     0.000249773049
       4       -0.000034314020     0.000035814859    -0.000139859585
       5        0.000261256185    -0.000349020292    -0.000211490037
       6        0.000058891897    -0.000469928850     0.001093318224
       7        0.011495461107    -0.007628362369     0.002919630941
       8        0.000388019697    -0.000251454731    -0.001038252157
       9       -0.000007469110     0.000059527838     0.000197418996
      10        0.000012087074    -0.000035054192     0.000252149578
      11       -0.000038113888    -0.000068542866     0.000148560986
      12       -0.000029460668    -0.000270461050     0.000502076937
      13        0.003505283613     0.013909871620    -0.011125967807
      14       -0.000939215118    -0.001674130404    -0.002391789844
      15       -0.000507081765     0.000445690360    -0.000172881913
      16        0.002810983766     0.004481386098     0.003070132721
      17       -0.005314561572     0.003948427839     0.001369085313
      18       -0.005398051117    -0.019410939842     0.006733069773


*** tstop() called on oliva.prib.upf.edu at Sat Sep 29 20:38:15 2018
Module time:
	user time   =      26.83 seconds =       0.45 minutes
	system time =       0.25 seconds =       0.00 minutes
	total time  =          7 seconds =       0.12 minutes
Total time:
	user time   =     242.94 seconds =       4.05 minutes
	system time =       2.09 seconds =       0.03 minutes
	total time  =         67 seconds =       1.12 minutes

			-----------------------------------------
			 OPTKING 2.0: for geometry optimizations 
			  - R.A. King,  Bethel University        
			-----------------------------------------
	At level 1: Red. Int., RFO, no backsteps, dynamic trust

	Previous internal coordinate definitions found.
	---Fragment 1 Geometry and Gradient---
	 C           0.0802634695       -0.0732445641       -0.3436206266
	 C           0.1287658167        2.2477540125        0.9520560280
	 C           0.0572810218        2.2755920585        3.5823635448
	 C          -0.0196809781        0.0059786654        4.9301383718
	 C          -0.0422173766       -2.3059384797        3.6501408101
	 C          -0.0031545296       -2.3555405060        1.0224805478
	 C           0.1078753165       -0.0797482678       -3.1229118521
	 H           0.1118010123        4.0198452066       -0.0845298556
	 H           0.0488752719        4.0681409605        4.5791044159
	 H          -0.0622033463        0.0371742299        6.9815805371
	 H          -0.0769887325       -4.0666911725        4.7012495685
	 H           0.0539369690       -4.1674375970        0.0558989396
	 N          -1.3050182634       -1.7164658036       -4.4290857851
	 N           1.3461389558        1.7425251178       -4.3388878968
	 H           1.2805539383        1.9554480820       -6.2412899912
	 H           2.4456360710        2.9820455801       -3.3614418077
	 H          -1.7666053410       -1.4273189111       -6.2654923798
	 H          -2.1633014923       -3.2378672551       -3.5450978304
	            -0.0064659324        0.0070701392       -0.0011603011
	             0.0003061866        0.0002056379       -0.0003033341
	            -0.0000955975       -0.0000019864        0.0002497730
	            -0.0000343140        0.0000358149       -0.0001398596
	             0.0002612562       -0.0003490203       -0.0002114900
	             0.0000588919       -0.0004699288        0.0010933182
	             0.0114954611       -0.0076283624        0.0029196309
	             0.0003880197       -0.0002514547       -0.0010382522
	            -0.0000074691        0.0000595278        0.0001974190
	             0.0000120871       -0.0000350542        0.0002521496
	            -0.0000381139       -0.0000685429        0.0001485610
	            -0.0000294607       -0.0002704611        0.0005020769
	             0.0035052836        0.0139098716       -0.0111259678
	            -0.0009392151       -0.0016741304       -0.0023917898
	            -0.0005070818        0.0004456904       -0.0001728819
	             0.0028109838        0.0044813861        0.0030701327
	            -0.0053145616        0.0039484278        0.0013690853
	            -0.0053980511       -0.0194109398        0.0067330698

	---Fragment 1 Intrafragment Coordinates---
	 - Coordinate -           - BOHR/RAD -       - ANG/DEG -
	 R(1,2)           =         2.658602	       1.406872
	 R(1,6)           =         2.661215	       1.408254
	 R(1,7)           =         2.779436	       1.470814
	 R(2,3)           =         2.631426	       1.392491
	 R(2,8)           =         2.053072	       1.086439
	 R(3,4)           =         2.640751	       1.397425
	 R(3,9)           =         2.051047	       1.085367
	 R(4,5)           =         2.642700	       1.398457
	 R(4,10)          =         2.052120	       1.085935
	 R(5,6)           =         2.628419	       1.390899
	 R(5,11)          =         2.050924	       1.085302
	 R(6,12)          =         2.054388	       1.087135
	 R(7,13)          =         2.526104	       1.336757
	 R(7,14)          =         2.516461	       1.331654
	 R(13,17)         =         1.915478	       1.013628
	 R(13,18)         =         1.957740	       1.035992
	 R(14,15)         =         1.915404	       1.013588
	 R(14,16)         =         1.923722	       1.017990
	 B(1,2,3)         =         2.089651	     119.728162
	 B(1,2,8)         =         2.102871	     120.485633
	 B(1,6,5)         =         2.091477	     119.832804
	 B(1,6,12)        =         2.110627	     120.930026
	 B(1,7,13)        =         2.109476	     120.864079
	 B(1,7,14)        =         2.078735	     119.102765
	 B(2,1,6)         =         2.093362	     119.940828
	 B(2,1,7)         =         2.081956	     119.287277
	 B(2,3,4)         =         2.096542	     120.123010
	 B(2,3,9)         =         2.088766	     119.677489
	 B(3,2,8)         =         2.089005	     119.691164
	 B(3,4,5)         =         2.100094	     120.326545
	 B(3,4,10)        =         2.091794	     119.850974
	 B(4,3,9)         =         2.097855	     120.198220
	 B(4,5,6)         =         2.095082	     120.039377
	 B(4,5,11)        =         2.097827	     120.196638
	 B(5,4,10)        =         2.091297	     119.822481
	 B(5,6,12)        =         2.079926	     119.170968
	 B(6,1,7)         =         2.107860	     120.771483
	 B(6,5,11)        =         2.090252	     119.762616
	 B(7,13,17)       =         2.132587	     122.188253
	 B(7,13,18)       =         2.112091	     121.013882
	 B(7,14,15)       =         2.145491	     122.927556
	 B(7,14,16)       =         2.097063	     120.152857
	 B(13,7,14)       =         2.088119	     119.640381
	 B(15,14,16)      =         2.040471	     116.910387
	 B(17,13,18)      =         2.031477	     116.395075
	 D(1,2,3,4)       =         0.018603	       1.065873
	 D(1,2,3,9)       =        -3.115818	    -178.523211
	 D(1,6,5,4)       =         0.009170	       0.525408
	 D(1,6,5,11)      =        -3.125008	    -179.049748
	*D(1,7,13,17)     =         2.792527	     160.000011
	 D(1,7,13,18)     =        -0.217314	     -12.451181
	 D(1,7,14,15)     =        -3.022295	    -173.164720
	 D(1,7,14,16)     =         0.139162	       7.973368
	 D(2,1,6,5)       =         0.002156	       0.123545
	 D(2,1,6,12)      =        -3.087365	    -176.893000
	 D(2,1,7,13)      =        -2.450510	    -140.403868
	 D(2,1,7,14)      =         0.565075	      32.376390
	 D(2,3,4,5)       =        -0.007332	      -0.420112
	 D(2,3,4,10)      =         3.134257	     179.579706
	 D(3,2,1,6)       =        -0.016047	      -0.919432
	 D(3,2,1,7)       =         3.121501	     178.848821
	 D(3,4,5,6)       =        -0.006679	      -0.382684
	 D(3,4,5,11)      =         3.127466	     179.190611
	 D(4,3,2,8)       =         3.098639	     177.538956
	 D(4,5,6,12)      =         3.099609	     177.594527
	 D(5,4,3,9)       =         3.127051	     179.166815
	 D(5,6,1,7)       =        -3.135331	    -179.641211
	 D(6,1,2,8)       =        -3.095586	    -177.364028
	 D(6,1,7,13)      =         0.687004	      39.362409
	 D(6,1,7,14)      =        -2.580597	    -147.857333
	 D(6,5,4,10)      =         3.134917	     179.617497
	 D(7,1,2,8)       =         0.041962	       2.404224
	 D(7,1,6,12)      =         0.058333	       3.342244
	 D(8,2,3,9)       =        -0.035781	      -2.050128
	 D(9,3,4,10)      =        -0.014545	      -0.833366
	 D(10,4,5,11)     =        -0.014123	      -0.809207
	 D(11,5,6,12)     =        -0.034568	      -1.980629
	 D(13,7,14,15)    =        -0.005142	      -0.294616
	 D(13,7,14,16)    =        -3.126871	    -179.156527
	 D(14,7,13,17)    =        -0.222387	     -12.741813
	 D(14,7,13,18)    =         3.050958	     174.806995

	Current energy   :      -381.4650854088

	Energy change for the previous step:
		Projected    :        -0.0051936966
		Actual       :        -0.0043697485
	Energy ratio indicates good step: Trust radius increased to 1.000e+00.


	Performing BFGS update.
	Previous computed or guess Hessian on step 1.
	Steps to be used in Hessian update: 1
	Taking RFO optimization step.
	Going to follow RFO solution 1.
	Using RFO vector 1.
	Norm of target step-size    0.37490
	Projected energy change by RFO approximation:        -0.0056227762

	Back-transformation to cartesian coordinates...
	Could not converge backtransformation.
	Using first guess instead.

	Back-transformation to cartesian coordinates to adjust frozen coordinates...
	Successfully converged to displaced geometry.

	--- Internal Coordinate Step in ANG or DEG, aJ/ANG or AJ/DEG ---
	 ---------------------------------------------------------------------------
	   Coordinate                Previous        Force       Change         New 
	   ----------                --------       ------       ------       ------
	    1 R(1,2)          =      1.406872     0.004881     0.000985     1.407857
	    2 R(1,6)          =      1.408254    -0.013121    -0.001519     1.406735
	    3 R(1,7)          =      1.470814     0.002758     0.001530     1.472345
	    4 R(2,3)          =      1.392491    -0.004205    -0.000156     1.392334
	    5 R(2,8)          =      1.086439    -0.002503     0.000063     1.086502
	    6 R(3,4)          =      1.397425    -0.001965    -0.000219     1.397206
	    7 R(3,9)          =      1.085367    -0.001222     0.000189     1.085556
	    8 R(4,5)          =      1.398457    -0.001942     0.000096     1.398552
	    9 R(4,10)         =      1.085935    -0.002074    -0.000237     1.085698
	   10 R(5,6)          =      1.390899     0.000146    -0.000021     1.390878
	   11 R(5,11)         =      1.085302    -0.001119     0.000019     1.085321
	   12 R(6,12)         =      1.087135    -0.000010     0.000441     1.087576
	   13 R(7,13)         =      1.336757    -0.054383    -0.003723     1.333033
	   14 R(7,14)         =      1.331654    -0.022916    -0.001251     1.330403
	   15 R(13,17)        =      1.013628    -0.004646     0.000377     1.014004
	   16 R(13,18)        =      1.035992    -0.168827     0.006484     1.042476
	   17 R(14,15)        =      1.013588    -0.001964     0.001299     1.014887
	   18 R(14,16)        =      1.017990    -0.049876    -0.005098     1.012892
	   19 B(1,2,3)        =    119.728162    -0.000013    -0.024668   119.703494
	   20 B(1,2,8)        =    120.485633     0.000086     0.392550   120.878183
	   21 B(1,6,5)        =    119.832804     0.000012     0.069188   119.901991
	   22 B(1,6,12)       =    120.930026    -0.000051    -0.107950   120.822076
	   23 B(1,7,13)       =    120.864079    -0.000256    -0.393207   120.470871
	   24 B(1,7,14)       =    119.102765     0.000342     0.935823   120.038588
	   25 B(2,1,6)        =    119.940828     0.000005    -0.034088   119.906740
	   26 B(2,1,7)        =    119.287277     0.000232     0.507048   119.794325
	   27 B(2,3,4)        =    120.123010     0.000007     0.044973   120.167982
	   28 B(2,3,9)        =    119.677489    -0.000015    -0.087562   119.589927
	   29 B(3,2,8)        =    119.691164    -0.000074    -0.392641   119.298523
	   30 B(3,4,5)        =    120.326545    -0.000012    -0.047609   120.278936
	   31 B(3,4,10)       =    119.850974     0.000003     0.007626   119.858600
	   32 B(4,3,9)        =    120.198220     0.000008     0.041133   120.239353
	   33 B(4,5,6)        =    120.039377     0.000000    -0.005045   120.034331
	   34 B(4,5,11)       =    120.196638     0.000007     0.038854   120.235492
	   35 B(5,4,10)       =    119.822481     0.000009     0.039647   119.862128
	   36 B(5,6,12)       =    119.170968     0.000039     0.040958   119.211926
	   37 B(6,1,7)        =    120.771483    -0.000237    -0.484082   120.287400
	   38 B(6,5,11)       =    119.762616    -0.000007    -0.034203   119.728413
	   39 B(7,13,17)      =    122.188253     0.000143     0.763467   122.951720
	   40 B(7,13,18)      =    121.013882    -0.000230    -2.998497   118.015385
	   41 B(7,14,15)      =    122.927556     0.000002     0.040859   122.968415
	   42 B(7,14,16)      =    120.152857    -0.000011     0.006931   120.159788
	   43 B(13,7,14)      =    119.640381    -0.000070    -0.246829   119.393552
	   44 B(15,14,16)     =    116.910387     0.000007    -0.114685   116.795703
	   45 B(17,13,18)     =    116.395075     0.000041    -1.103729   115.291346
	   46 D(1,2,3,4)      =      1.065873    -0.000002    -0.150277     0.915596
	   47 D(1,2,3,9)      =   -178.523211    -0.000000     0.039241  -178.483970
	   48 D(1,6,5,4)      =      0.525408    -0.000000     0.006777     0.532185
	   49 D(1,6,5,11)     =   -179.049748     0.000001     0.063905  -178.985843
	   50 *D(1,7,13,17)   =    160.000011    -0.000000    -0.000000   160.000011
	   51 D(1,7,13,18)    =    -12.451181     0.000097    15.292372     2.841191
	   52 D(1,7,14,15)    =   -173.164720    -0.000023    -3.680881  -176.845601
	   53 D(1,7,14,16)    =      7.973368    -0.000001    -1.543415     6.429953
	   54 D(2,1,6,5)      =      0.123545    -0.000002    -0.280292    -0.156748
	   55 D(2,1,6,12)     =   -176.893000    -0.000002    -0.331411  -177.224411
	   56 D(2,1,7,13)     =   -140.403868    -0.000007     0.164626  -140.239242
	   57 D(2,1,7,14)     =     32.376390     0.000025     3.782102    36.158493
	   58 D(2,3,4,5)      =     -0.420112    -0.000000    -0.124028    -0.544140
	   59 D(2,3,4,10)     =    179.579706     0.000001     0.087280   179.666987
	   60 D(3,2,1,6)      =     -0.919432     0.000003     0.352151    -0.567282
	   61 D(3,2,1,7)      =    178.848821    -0.000003    -0.647855   178.200965
	   62 D(3,4,5,6)      =     -0.382684     0.000001     0.196441    -0.186243
	   63 D(3,4,5,11)     =    179.190611     0.000001     0.138706   179.329318
	   64 D(4,3,2,8)      =    177.538956    -0.000004    -0.566805   176.972151
	   65 D(4,5,6,12)     =    177.594527    -0.000000     0.052590   177.647117
	   66 D(5,4,3,9)      =    179.166815    -0.000002    -0.315318   178.851497
	   67 D(5,6,1,7)      =   -179.641211     0.000004     0.722363  -178.918848
	   68 D(6,1,2,8)      =   -177.364028     0.000006     0.803800  -176.560228
	   69 D(6,1,7,13)     =     39.362409    -0.000012    -0.838157    38.524252
	   70 D(6,1,7,14)     =   -147.857333     0.000019     2.779319  -145.078013
	   71 D(6,5,4,10)     =    179.617497     0.000000    -0.014875   179.602623
	   72 D(7,1,2,8)      =      2.404224     0.000000    -0.196206     2.208019
	   73 D(7,1,6,12)     =      3.342244     0.000003     0.671245     4.013489
	   74 D(8,2,3,9)      =     -2.050128    -0.000002    -0.377287    -2.427415
	   75 D(9,3,4,10)     =     -0.833366    -0.000001    -0.104010    -0.937376
	   76 D(10,4,5,11)    =     -0.809207    -0.000001    -0.072609    -0.881817
	   77 D(11,5,6,12)    =     -1.980629     0.000001     0.109718    -1.870910
	   78 D(13,7,14,15)   =     -0.294616     0.000005    -0.114410    -0.409026
	   79 D(13,7,14,16)   =   -179.156527     0.000027     2.023055  -177.133472
	   80 D(14,7,13,17)   =    -12.741813    -0.000038    -3.679014   -16.420826
	   81 D(14,7,13,18)   =    174.806995     0.000059    11.613358   186.420353
	 ---------------------------------------------------------------------------
	Successfully symmetrized geometry.

  ==> Convergence Check <==

  Measures of convergence in internal coordinates in au.
  Criteria marked as inactive (o), active & met (*), and active & unmet ( ).
  ---------------------------------------------------------------------------------------------
   Step     Total Energy     Delta E     MAX Force     RMS Force      MAX Disp      RMS Disp   
  ---------------------------------------------------------------------------------------------
    Convergence Criteria    1.00e-06 *    3.00e-04 *             o    1.20e-03 *             o
  ---------------------------------------------------------------------------------------------
      2    -381.46508541   -4.37e-03      2.05e-02      2.80e-03 o    2.67e-01      4.08e-02 o  ~
  ---------------------------------------------------------------------------------------------

	Writing optimization data to binary file.
	Structure for next step:
	Cartesian Geometry (in Angstrom)
	    C     0.0533567006  -0.0256544690  -0.1831655597
	    C     0.0458760940   1.1975721534   0.5137722189
	    C     0.0023267005   1.1984587902   1.9054248922
	    C    -0.0145058505  -0.0090455379   2.6081590077
	    C     0.0007699416  -1.2260943905   1.9193142517
	    C     0.0289375741  -1.2386850540   0.5287784362
	    C     0.0592701327  -0.0287679335  -1.6554950164
	    H     0.0084643229   2.1432071264  -0.0199519697
	    H    -0.0283348671   2.1426774052   2.4401621725
	    H    -0.0430183552  -0.0024764101   3.6934626628
	    H    -0.0013472071  -2.1636183878   2.4660917386
	    H     0.0795110527  -2.1918666619   0.0075205691
	    N    -0.6694597980  -0.9162076441  -2.3325337827
	    N     0.7379149866   0.9022989735  -2.3207223078
	    H     0.7348725412   0.9701791310  -3.3333317242
	    H     1.3295706155   1.5551819476  -1.8210847107
	    H    -0.9344979282  -0.7868995457  -3.3027084216
	    H    -1.2722516564  -1.5709274928  -1.7896344572
			--------------------------
			 OPTKING Finished Execution 
			--------------------------

    Structure for next step:
    Molecular point group: c1
    Full point group: C1

    Geometry (in Angstrom), charge = 1, multiplicity = 1:

    C            0.053356700597    -0.025654468965    -0.183165559673
    C            0.045876093960     1.197572153447     0.513772218870
    C            0.002326700536     1.198458790167     1.905424892244
    C           -0.014505850496    -0.009045537949     2.608159007729
    C            0.000769941645    -1.226094390528     1.919314251744
    C            0.028937574083    -1.238685053995     0.528778436178
    C            0.059270132658    -0.028767933537    -1.655495016421
    H            0.008464322889     2.143207126447    -0.019951969663
    H           -0.028334867058     2.142677405186     2.440162172532
    H           -0.043018355155    -0.002476410100     3.693462662830
    H           -0.001347207081    -2.163618387820     2.466091738554
    H            0.079511052701    -2.191866661876     0.007520569140
    N           -0.669459797997    -0.916207644071    -2.332533782660
    N            0.737914986604     0.902298973514    -2.320722307816
    H            0.734872541210     0.970179130994    -3.333331724184
    H            1.329570615452     1.555181947604    -1.821084710691
    H           -0.934497928189    -0.786899545673    -3.302708421552
    H           -1.272251656360    -1.570927492846    -1.789634457160

gradient() will perform analytic gradient computation.

*** tstart() called on oliva.prib.upf.edu
*** at Sat Sep 29 20:38:15 2018

   => Loading Basis Set <=

    Name: 6-31G*
    Role: ORBITAL
    Keyword: BASIS
    atoms 1-7         entry C          line   111 file /shared/joao/test_parameterize/miniconda3/share/psi4/basis/6-31gs.gbs 
    atoms 8-12, 15-18 entry H          line    44 file /shared/joao/test_parameterize/miniconda3/share/psi4/basis/6-31gs.gbs 
    atoms 13-14       entry N          line   128 file /shared/joao/test_parameterize/miniconda3/share/psi4/basis/6-31gs.gbs 


         ---------------------------------------------------------
                                   SCF
[...]
	            -0.0000028555       -0.0000022483        0.0000001103
	             0.0000002410        0.0000009817       -0.0000008797
	            -0.0000032910        0.0000004658        0.0000001271
	            -0.0000045144        0.0000044238       -0.0000037126
	             0.0062162721       -0.0026152031       -0.0028204990
	             0.0000162161       -0.0000253419        0.0000012760
	            -0.0000083443        0.0000075618        0.0000014238
	            -0.0000101664        0.0000105820        0.0000040839
	            -0.0059412465        0.0029532075        0.0019940792
	            -0.0000018692        0.0000284662        0.0000020597

	---Fragment 1 Intrafragment Coordinates---
	 - Coordinate -           - BOHR/RAD -       - ANG/DEG -
	 R(1,2)           =         2.659162	       1.407168
	 R(1,6)           =         2.659913	       1.407565
	 R(1,7)           =         2.774579	       1.468244
	 R(2,3)           =         2.630011	       1.391742
	 R(2,8)           =         2.052804	       1.086297
	 R(3,4)           =         2.641513	       1.397829
	 R(3,9)           =         2.050652	       1.085158
	 R(4,5)           =         2.642455	       1.398327
	 R(4,10)          =         2.051506	       1.085610
	 R(5,6)           =         2.628936	       1.391173
	 R(5,11)          =         2.050619	       1.085141
	 R(6,12)          =         2.053429	       1.086628
	 R(7,13)          =         2.524723	       1.336026
	 R(7,14)          =         2.509669	       1.328060
	 R(13,17)         =         1.916840	       1.014348
	 R(13,18)         =         1.914097	       1.012896
	 R(14,15)         =         1.915277	       1.013521
	 R(14,16)         =         1.911938	       1.011754
	 B(1,2,3)         =         2.087640	     119.612960
	 B(1,2,8)         =         2.106425	     120.689276
	 B(1,6,5)         =         2.088829	     119.681089
	 B(1,6,12)        =         2.104224	     120.563168
	 B(1,7,13)        =         2.093652	     119.957417
	 B(1,7,14)        =         2.093697	     119.960017
	 B(2,1,6)         =         2.097034	     120.151179
	 B(2,1,7)         =         2.091177	     119.815627
	 B(2,3,4)         =         2.096484	     120.119672
	 B(2,3,9)         =         2.088341	     119.653141
	 B(3,2,8)         =         2.087599	     119.610623
	 B(3,4,5)         =         2.100895	     120.372412
	 B(3,4,10)        =         2.091067	     119.809286
	 B(4,3,9)         =         2.098319	     120.224844
	 B(4,5,6)         =         2.095412	     120.058257
	 B(4,5,11)        =         2.098337	     120.225873
	 B(5,4,10)        =         2.091224	     119.818302
	 B(5,6,12)        =         2.088878	     119.683897
	 B(6,1,7)         =         2.094946	     120.031557
	 B(6,5,11)        =         2.089385	     119.712926
	 B(7,13,17)       =         2.119256	     121.424401
	 B(7,13,18)       =         2.051704	     117.553976
	 B(7,14,15)       =         2.143393	     122.807370
	 B(7,14,16)       =         2.092791	     119.908090
	 B(13,7,14)       =         2.095361	     120.055346
	 B(15,14,16)      =         2.039473	     116.853203
	 B(17,13,18)      =         1.993785	     114.235437
	 D(1,2,3,4)       =         0.012672	       0.726051
	 D(1,2,3,9)       =        -3.119223	    -178.718332
	 D(1,6,5,4)       =         0.007520	       0.430845
	 D(1,6,5,11)      =        -3.123205	    -178.946462
	*D(1,7,13,17)     =         2.792527	     160.000011
	 D(1,7,13,18)     =         0.183758	      10.528544
	 D(1,7,14,15)     =        -3.081058	    -176.531615
	 D(1,7,14,16)     =         0.196294	      11.246803
	 D(2,1,6,5)       =        -0.000095	      -0.005460
	 D(2,1,6,12)      =        -3.087724	    -176.913546
	 D(2,1,7,13)      =        -2.505098	    -143.531570
	 D(2,1,7,14)      =         0.603394	      34.571953
	 D(2,3,4,5)       =        -0.005313	      -0.304397
	 D(2,3,4,10)      =         3.136379	     179.701293
	 D(3,2,1,6)       =        -0.010008	      -0.573418
	 D(3,2,1,7)       =         3.123463	     178.961249
	 D(3,4,5,6)       =        -0.004895	      -0.280467
	 D(3,4,5,11)      =         3.125773	     179.093617
	 D(4,3,2,8)       =         3.095441	     177.355728
	 D(4,5,6,12)      =         3.095627	     177.366367
	 D(5,4,3,9)       =         3.126527	     179.136784
	 D(5,6,1,7)       =        -3.133549	    -179.539117
	 D(6,1,2,8)       =        -3.092130	    -177.165994
	 D(6,1,7,13)      =         0.628382	      36.003660
	 D(6,1,7,14)      =        -2.546310	    -145.892817
	 D(6,5,4,10)      =         3.136598	     179.713842
	 D(7,1,2,8)       =         0.041341	       2.368674
	 D(7,1,6,12)      =         0.062008	       3.552797
	 D(8,2,3,9)       =        -0.036454	      -2.088655
	 D(9,3,4,10)      =        -0.014967	      -0.857526
	 D(10,4,5,11)     =        -0.015919	      -0.912074
	 D(11,5,6,12)     =        -0.035098	      -2.010940
	 D(13,7,14,15)    =         0.027402	       1.570035
	 D(13,7,14,16)    =        -2.978431	    -170.651547
	 D(14,7,13,17)    =        -0.315934	     -18.101688
	 D(14,7,13,18)    =        -2.924703	    -167.573155

	Current energy   :      -381.4679589429

	Energy change for the previous step:
		Projected    :        -0.0000001200
		Actual       :        -0.0000001379

	Performing BFGS update.
	Previous computed or guess Hessian on step 1.
	Steps to be used in Hessian update: 7 6
	Taking RFO optimization step.
	Going to follow RFO solution 1.
	Rejecting RFO root 1 because normalization gives large value.
	Rejecting RFO root 2 because normalization gives large value.
	Using RFO vector 3.
	Norm of target step-size    0.00222
	Projected energy change by RFO approximation:        -0.0000000678

	Back-transformation to cartesian coordinates...
	Successfully converged to displaced geometry.

	Back-transformation to cartesian coordinates to adjust frozen coordinates...
	Successfully converged to displaced geometry.

	--- Internal Coordinate Step in ANG or DEG, aJ/ANG or AJ/DEG ---
	 ---------------------------------------------------------------------------
	   Coordinate                Previous        Force       Change         New 
	   ----------                --------       ------       ------       ------
	    1 R(1,2)          =      1.407168     0.000021     0.000015     1.407182
	    2 R(1,6)          =      1.407565    -0.000004     0.000008     1.407574
	    3 R(1,7)          =      1.468244    -0.000108    -0.000055     1.468189
	    4 R(2,3)          =      1.391742    -0.000065    -0.000013     1.391729
	    5 R(2,8)          =      1.086297     0.000039     0.000010     1.086307
	    6 R(3,4)          =      1.397829     0.000022     0.000007     1.397835
	    7 R(3,9)          =      1.085158     0.000008     0.000003     1.085161
	    8 R(4,5)          =      1.398327     0.000008     0.000005     1.398333
	    9 R(4,10)         =      1.085610    -0.000004    -0.000000     1.085610
	   10 R(5,6)          =      1.391173    -0.000040    -0.000011     1.391162
	   11 R(5,11)         =      1.085141    -0.000001    -0.000000     1.085141
	   12 R(6,12)         =      1.086628     0.000025     0.000009     1.086636
	   13 R(7,13)         =      1.336026    -0.000115    -0.000001     1.336025
	   14 R(7,14)         =      1.328060     0.000075     0.000049     1.328109
	   15 R(13,17)        =      1.014348    -0.000029    -0.000002     1.014346
	   16 R(13,18)        =      1.012896     0.000118     0.000014     1.012910
	   17 R(14,15)        =      1.013521     0.000019     0.000009     1.013530
	   18 R(14,16)        =      1.011754    -0.000030     0.000002     1.011756
	   19 B(1,2,3)        =    119.612960     0.000000     0.001722   119.614682
	   20 B(1,2,8)        =    120.689276     0.000000     0.001301   120.690576
	   21 B(1,6,5)        =    119.681089     0.000001     0.003438   119.684527
	   22 B(1,6,12)       =    120.563168     0.000000     0.000520   120.563688
	   23 B(1,7,13)       =    119.957417    -0.000000     0.011072   119.968489
	   24 B(1,7,14)       =    119.960017     0.000001    -0.010050   119.949967
	   25 B(2,1,6)        =    120.151179    -0.000001    -0.004185   120.146994
	   26 B(2,1,7)        =    119.815627     0.000001     0.002781   119.818408
	   27 B(2,3,4)        =    120.119672     0.000000     0.001160   120.120832
	   28 B(2,3,9)        =    119.653141    -0.000000    -0.001783   119.651358
	   29 B(3,2,8)        =    119.610623    -0.000001    -0.002342   119.608282
	   30 B(3,4,5)        =    120.372412    -0.000000    -0.001559   120.370853
	   31 B(3,4,10)       =    119.809286     0.000000     0.001299   119.810585
	   32 B(4,3,9)        =    120.224844     0.000000     0.000686   120.225530
	   33 B(4,5,6)        =    120.058257    -0.000000    -0.000528   120.057729
	   34 B(4,5,11)       =    120.225873     0.000000     0.000275   120.226148
	   35 B(5,4,10)       =    119.818302     0.000000     0.000260   119.818562
	   36 B(5,6,12)       =    119.683897    -0.000001    -0.004268   119.679629
	   37 B(6,1,7)        =    120.031557     0.000000     0.001418   120.032975
	   38 B(6,5,11)       =    119.712926    -0.000000     0.000214   119.713140
	   39 B(7,13,17)      =    121.424401    -0.000000    -0.009767   121.414635
	   40 B(7,13,18)      =    117.553976     0.000002     0.008624   117.562600
	   41 B(7,14,15)      =    122.807370    -0.000000    -0.006779   122.800591
	   42 B(7,14,16)      =    119.908090     0.000000    -0.001107   119.906982
	   43 B(13,7,14)      =    120.055346    -0.000001    -0.001031   120.054316
	   44 B(15,14,16)     =    116.853203    -0.000000    -0.004087   116.849116
	   45 B(17,13,18)     =    114.235437    -0.000001    -0.006416   114.229021
	   46 D(1,2,3,4)      =      0.726051    -0.000000    -0.005505     0.720546
	   47 D(1,2,3,9)      =   -178.718332    -0.000000    -0.013020  -178.731352
	   48 D(1,6,5,4)      =      0.430845     0.000000     0.001943     0.432788
	   49 D(1,6,5,11)     =   -178.946462     0.000000     0.006064  -178.940398
	   50 *D(1,7,13,17)   =    160.000011     0.000000    -0.000000   160.000011
	   51 D(1,7,13,18)    =     10.528544    -0.000000     0.017368    10.545912
	   52 D(1,7,14,15)    =   -176.531615    -0.000000    -0.033260  -176.564875
	   53 D(1,7,14,16)    =     11.246803     0.000000     0.073710    11.320513
	   54 D(2,1,6,5)      =     -0.005460    -0.000000    -0.004692    -0.010152
	   55 D(2,1,6,12)     =   -176.913546     0.000000     0.002108  -176.911439
	   56 D(2,1,7,13)     =   -143.531570    -0.000000    -0.016701  -143.548271
	   57 D(2,1,7,14)     =     34.571953    -0.000000    -0.017005    34.554948
	   58 D(2,3,4,5)      =     -0.304397     0.000000     0.002816    -0.301581
	   59 D(2,3,4,10)     =    179.701293    -0.000000    -0.005414   179.695879
	   60 D(3,2,1,6)      =     -0.573418     0.000000     0.006474    -0.566945
	   61 D(3,2,1,7)      =    178.961249     0.000000     0.008558   178.969807
	   62 D(3,4,5,6)      =     -0.280467    -0.000000    -0.000998    -0.281465
	   63 D(3,4,5,11)     =    179.093617    -0.000000    -0.005140   179.088476
	   64 D(4,3,2,8)      =    177.355728     0.000000     0.007723   177.363451
	   65 D(4,5,6,12)     =    177.366367    -0.000000    -0.004649   177.361718
	   66 D(5,4,3,9)      =    179.136784     0.000000     0.010361   179.147144
	   67 D(5,6,1,7)      =   -179.539117    -0.000000    -0.006787  -179.545904
	   68 D(6,1,2,8)      =   -177.165994    -0.000000    -0.006776  -177.172769
	   69 D(6,1,7,13)     =     36.003660    -0.000000    -0.014645    35.989015
	   70 D(6,1,7,14)     =   -145.892817    -0.000000    -0.014949  -145.907766
	   71 D(6,5,4,10)     =    179.713842     0.000000     0.007233   179.721075
	   72 D(7,1,2,8)      =      2.368674     0.000000    -0.004691     2.363982
	   73 D(7,1,6,12)     =      3.552797     0.000000     0.000012     3.552809
	   74 D(8,2,3,9)      =     -2.088655     0.000000     0.000208    -2.088447
	   75 D(9,3,4,10)     =     -0.857526     0.000000     0.002131    -0.855395
	   76 D(10,4,5,11)    =     -0.912074    -0.000000     0.003090    -0.908984
	   77 D(11,5,6,12)    =     -2.010940    -0.000000    -0.000528    -2.011468
	   78 D(13,7,14,15)   =      1.570035    -0.000000    -0.033333     1.536702
	   79 D(13,7,14,16)   =   -170.651547     0.000000     0.073637  -170.577911
	   80 D(14,7,13,17)   =    -18.101688    -0.000000     0.000477   -18.101211
	   81 D(14,7,13,18)   =   -167.573155    -0.000000     0.017844  -167.555311
	 ---------------------------------------------------------------------------
	Successfully symmetrized geometry.

  ==> Convergence Check <==

  Measures of convergence in internal coordinates in au.
  Criteria marked as inactive (o), active & met (*), and active & unmet ( ).
  ---------------------------------------------------------------------------------------------
   Step     Total Energy     Delta E     MAX Force     RMS Force      MAX Disp      RMS Disp   
  ---------------------------------------------------------------------------------------------
    Convergence Criteria    1.00e-06 *    3.00e-04 *             o    1.20e-03 *             o
  ---------------------------------------------------------------------------------------------
      8    -381.46795894   -1.38e-07 *    2.29e-05 *    6.83e-06 o    1.29e-03      2.47e-04 o  ~
  ---------------------------------------------------------------------------------------------


  **** Optimization is complete! (in 8 steps) ****

  ==> Optimization Summary <==

  Measures of convergence in internal coordinates in au.
  --------------------------------------------------------------------------------------------------------------- ~
   Step         Total Energy             Delta E       MAX Force       RMS Force        MAX Disp        RMS Disp  ~
  --------------------------------------------------------------------------------------------------------------- ~
      1    -381.460715660298   -381.460715660298      0.01082819      0.00229856      0.33684810      0.05474004  ~
      2    -381.465085408774     -0.004369748476      0.02049186      0.00279983      0.26690224      0.04076844  ~
      3    -381.466798863763     -0.001713454989      0.02421783      0.00281026      0.12975517      0.02241085  ~
      4    -381.467854714400     -0.001055850636      0.00506251      0.00071595      0.04089485      0.00758400  ~
      5    -381.467941841015     -0.000087126615      0.00230727      0.00029771      0.01423959      0.00358912  ~
      6    -381.467957356645     -0.000015515630      0.00019478      0.00005236      0.00748641      0.00134613  ~
      7    -381.467958804998     -0.000001448353      0.00007330      0.00001536      0.00162454      0.00039370  ~
      8    -381.467958942887     -0.000000137888      0.00002291      0.00000683      0.00128648      0.00024658  ~
  --------------------------------------------------------------------------------------------------------------- ~

	Writing optimization data to binary file.
	Final energy is   -381.4679589428866
	Final (previous) structure:
	Cartesian Geometry (in Angstrom)
	    C     0.0388355618  -0.0209436212  -0.1837808954
	    C     0.0391852860   1.2016157346   0.5129757255
	    C     0.0061234945   1.2002320362   1.9043239093
	    C    -0.0118940578  -0.0095566580   2.6043322421
	    C    -0.0033036159  -1.2258015428   1.9144093918
	    C     0.0174081479  -1.2377496282   0.5234419644
	    C     0.0505519287  -0.0244613890  -1.6519737468
	    H     0.0094338924   2.1456227798  -0.0236868963
	    H    -0.0147164705   2.1427054677   2.4417978488
	    H    -0.0327668064  -0.0047670112   3.6897314169
	    H    -0.0025002233  -2.1635712354   2.4604110785
	    H     0.0673609495  -2.1854291673  -0.0058672667
	    N    -0.6366293557  -0.9535825157  -2.3224074358
	    N     0.7133152315   0.9181931189  -2.3121935587
	    H     0.7083052722   0.9871764390  -3.3233519571
	    H     1.3449509326   1.5328366789  -1.8153074201
	    H    -0.8972367462  -0.8204870905  -3.2936290055
	    H    -1.2789684211  -1.5327003957  -1.7951673948
	Saving final (previous) structure.
	Removing binary optimization data file.
			--------------------------
			 OPTKING Finished Execution 
			--------------------------

    Final optimized geometry and variables:
    Molecular point group: c1
    Full point group: C1

    Geometry (in Angstrom), charge = 1, multiplicity = 1:

    C            0.038835561753    -0.020943621225    -0.183780895445
    C            0.039185285993     1.201615734588     0.512975725510
    C            0.006123494471     1.200232036247     1.904323909331
    C           -0.011894057792    -0.009556657992     2.604332242090
    C           -0.003303615948    -1.225801542844     1.914409391779
    C            0.017408147936    -1.237749628219     0.523441964420
    C            0.050551928711    -0.024461388989    -1.651973746780
    H            0.009433892390     2.145622779757    -0.023686896254
    H           -0.014716470450     2.142705467712     2.441797848753
    H           -0.032766806357    -0.004767011235     3.689731416887
    H           -0.002500223301    -2.163571235368     2.460411078538
    H            0.067360949464    -2.185429167346    -0.005867266654
    N           -0.636629355736    -0.953582515692    -2.322407435849
    N            0.713315231498     0.918193118873    -2.312193558726
    H            0.708305272153     0.987176438993    -3.323351957135
    H            1.344950932590     1.532836678914    -1.815307420141
    H           -0.897236746236    -0.820487090501    -3.293629005543
    H           -1.278968421138    -1.532700395673    -1.795167394779

	Removing binary optimization data file.
	Cleaning optimization helper files.


Properties will be evaluated at   0.000000,   0.000000,   0.000000 [a0]
OEProp: No title given, name of density matrix used for the following properties is 'SCF density'
  Nuclear Dipole Moment: [e a0]
     X:     2.3850      Y:    -1.5993      Z:    -0.6896

  Electronic Dipole Moment: [e a0]
     X:    -2.4842      Y:     1.7502      Z:    -1.5379

  Dipole Moment: [e a0]
     X:    -0.0992      Y:     0.1508      Z:    -2.2274     Total:     2.2347

  Dipole Moment: [D]
     X:    -0.2521      Y:     0.3834      Z:    -5.6616     Total:     5.6802

  Quadrupole Moment: [D A]
    XX:   -49.0335     YY:   -38.5190     ZZ:   -13.7158
    XY:     6.2900     XZ:     0.9241     YZ:    -1.6056

  Traceless Quadrupole Moment: [D A]
    XX:   -15.2774     YY:    -4.7629     ZZ:    20.0403
    XY:     6.2900     XZ:     0.9241     YZ:    -1.6056

  Mulliken Charges: (a.u.)
   Center  Symbol    Alpha    Beta     Spin     Total
       1     C     2.95576  2.95576  0.00000  0.08849
       2     C     3.08286  3.08286  0.00000 -0.16573
       3     C     3.06246  3.06246  0.00000 -0.12492
       4     C     3.05162  3.05162  0.00000 -0.10325
       5     C     3.06234  3.06234  0.00000 -0.12468
       6     C     3.08439  3.08439  0.00000 -0.16877
       7     C     2.72887  2.72887  0.00000  0.54225
       8     H     0.41491  0.41491  0.00000  0.17018
       9     H     0.40539  0.40539  0.00000  0.18921
      10     H     0.40384  0.40384  0.00000  0.19231
      11     H     0.40518  0.40518  0.00000  0.18964
      12     H     0.41207  0.41207  0.00000  0.17586
      13     N     3.85811  3.85811  0.00000 -0.71622
      14     N     3.86038  3.86038  0.00000 -0.72076
      15     H     0.30472  0.30472  0.00000  0.39056
      16     H     0.29893  0.29893  0.00000  0.40214
      17     H     0.30625  0.30625  0.00000  0.38750
      18     H     0.30191  0.30191  0.00000  0.39619

   Total alpha = 32.00000, Total beta = 32.00000, Total charge =  1.00000


    Psi4 stopped on: Saturday, 29 September 2018 08:41PM
    Psi4 wall time for execution: 0:03:55.54

*** Psi4 exiting successfully. Buy a developer a beer!
