
    -----------------------------------------------------------------------
          Psi4: An Open-Source Ab Initio Electronic Structure Package
                               Psi4 1.2.1 release

                         Git: Rev {HEAD} 406f4de 


    R. M. Parrish, L. A. Burns, D. G. A. Smith, A. C. Simmonett,
    A. E. DePrince III, E. G. Hohenstein, U. Bozkaya, A. Yu. Sokolov,
    R. Di Remigio, R. M. Richard, J. F. Gonthier, A. M. James,
    H. R. McAlexander, A. Kumar, M. Saitow, X. Wang, B. P. Pritchard,
    P. Verma, H. F. Schaefer III, K. Patkowski, R. A. King, E. F. Valeev,
    F. A. Evangelista, J. M. Turney, T. D. Crawford, and C. D. Sherrill,
    J. Chem. Theory Comput. 13(7) pp 3185--3197 (2017).
    (doi: 10.1021/acs.jctc.7b00174)


                         Additional Contributions by
    P. Kraus, H. Kruse, M. H. Lechner, M. C. Schieber, and R. A. Shaw

    -----------------------------------------------------------------------


    Psi4 started on: Saturday, 29 September 2018 05:09PM

    Process ID: 12952
    Host:       loro.prib.upf.edu
    PSIDATADIR: /shared/joao/test_parameterize/miniconda3/share/psi4
    Memory:     500.0 MiB
    Threads:    1
    
  ==> Input File <==

--------------------------------------------------------------------------
set_num_threads(1)
set_memory('5348 MB')

set { scf_mem_safety_factor 0.7 }

set { reference rks }
set { basis cc-pVDZ }

molecule MOL {
    0 1
    noreorient
    nocom
    symmetry c1
    O    1.050400   0.042900  -0.048100
    C    2.474100   0.047400  -0.029000
    C    3.002600  -1.068900  -0.932000
    N    3.204339  -0.616067  -2.307407
    H    0.760400   0.728400   0.578000
    H    2.809900  -0.097900   1.003200
    H    2.817400   1.026800  -0.378600
    H    2.307612  -1.916594  -0.919932
    H    3.949997  -1.443346  -0.527915
    H    2.302584  -0.381319  -2.721186
    H    3.570137  -1.392686  -2.858138
}

set optking { frozen_dihedral = (" 1 2 3 4 ") }

energy, wfn = energy('B3LYP-D3', return_wfn=True)

import os
os.chdir(os.environ['HTMD_PSI4_WORKDIR'])

oeprop(wfn, 'DIPOLE', 'QUADRUPOLE', 'MULLIKEN_CHARGES')

with open('psi4out.xyz', 'w') as f:
    f.write('11 ' )
    f.write('%.12f\n' % energy)
    f.write(MOL.save_string_xyz())
--------------------------------------------------------------------------
  Threads set to 1 by Python driver.

  Memory set to   4.981 GiB by Python driver.

*** tstart() called on loro.prib.upf.edu
*** at Sat Sep 29 17:09:09 2018

   => Loading Basis Set <=

    Name: CC-PVDZ
    Role: ORBITAL
    Keyword: BASIS
    atoms 1    entry O          line   198 file /shared/joao/test_parameterize/miniconda3/share/psi4/basis/cc-pvdz.gbs 
    atoms 2-3  entry C          line   138 file /shared/joao/test_parameterize/miniconda3/share/psi4/basis/cc-pvdz.gbs 
    atoms 4    entry N          line   168 file /shared/joao/test_parameterize/miniconda3/share/psi4/basis/cc-pvdz.gbs 
    atoms 5-11 entry H          line    22 file /shared/joao/test_parameterize/miniconda3/share/psi4/basis/cc-pvdz.gbs 


         ---------------------------------------------------------
                                   SCF
            by Justin Turney, Rob Parrish, Andy Simmonett
                             and Daniel Smith
                              RKS Reference
                        1 Threads,   5100 MiB Core
         ---------------------------------------------------------

  ==> Geometry <==

    Molecular point group: c1
    Full point group: C1

    Geometry (in Angstrom), charge = 0, multiplicity = 1:

       Center              X                  Y                   Z               Mass       
    ------------   -----------------  -----------------  -----------------  -----------------
         O            1.050400000000     0.042900000000    -0.048100000000    15.994914619560
         C            2.474100000000     0.047400000000    -0.029000000000    12.000000000000
         C            3.002600000000    -1.068900000000    -0.932000000000    12.000000000000
         N            3.204339000000    -0.616067000000    -2.307407000000    14.003074004780
         H            0.760400000000     0.728400000000     0.578000000000     1.007825032070
         H            2.809900000000    -0.097900000000     1.003200000000     1.007825032070
         H            2.817400000000     1.026800000000    -0.378600000000     1.007825032070
         H            2.307612000000    -1.916594000000    -0.919932000000     1.007825032070
         H            3.949997000000    -1.443346000000    -0.527915000000     1.007825032070
         H            2.302584000000    -0.381319000000    -2.721186000000     1.007825032070
         H            3.570137000000    -1.392686000000    -2.858138000000     1.007825032070

  Running in c1 symmetry.

  Rotational constants: A =      0.35526  B =      0.03410  C =      0.03243 [cm^-1]
  Rotational constants: A =  10650.30837  B =   1022.22346  C =    972.22241 [MHz]
  Nuclear repulsion =  131.911781637019516

  Charge       = 0
  Multiplicity = 1
  Electrons    = 34
  Nalpha       = 17
  Nbeta        = 17

  ==> Algorithm <==

  SCF Algorithm Type is DF.
  DIIS enabled.
  MOM disabled.
  Fractional occupation disabled.
  Guess Type is SAD.
  Energy threshold   = 1.00e-06
  Density threshold  = 1.00e-06
  Integral threshold = 0.00e+00

  ==> Primary Basis <==

  Basis Set: CC-PVDZ
    Blend: CC-PVDZ
    Number of shells: 45
    Number of basis function: 91
    Number of Cartesian functions: 95
    Spherical Harmonics?: true
    Max angular momentum: 2

  ==> DFT Potential <==

   => Composite Functional: B3LYP-D3ZERO <= 

    B3LYP-d3zero Hyb-GGA Exchange-Correlation Functional

    P. J. Stephens, F. J. Devlin, C. F. Chabalowski, and M. J. Frisch, J. Phys. Chem. 98, 11623 (1994)

    Deriv               =              1
    GGA                 =           TRUE
    Meta                =          FALSE

    Exchange Hybrid     =           TRUE
    MP2 Hybrid          =          FALSE

   => Exchange Functionals <=

    0.0800   Slater exchange
    0.7200         Becke 88

   => Exact (HF) Exchange <=

    0.2000               HF 

   => Correlation Functionals <=

    0.1900   Vosko, Wilk & Nusair (VWN5_RPA)
    0.8100   Lee, Yang & Parr

   => Molecular Quadrature <=

    Radial Scheme       =       TREUTLER
    Pruning Scheme      =           FLAT
    Nuclear Scheme      =       TREUTLER

    BS radius alpha     =              1
    Pruning alpha       =              1
    Radial Points       =             75
    Spherical Points    =            302
    Total Points        =         245135
    Total Blocks        =           1894
    Max Points          =            256
    Max Functions       =             91

   => -D3ZERO: Empirical Dispersion <=

    Grimme's -D3 (zero-damping) Dispersion Correction
    Grimme S.; Antony J.; Ehrlich S.; Krieg H. (2010), J. Chem. Phys., 132: 154104

        S6 =   1.000000E+00
        S8 =   1.703000E+00
       SR6 =   1.261000E+00
       SR8 =   1.000000E+00
    ALPHA6 =   1.400000E+01

   => Loading Basis Set <=

    Name: (CC-PVDZ AUX)
    Role: JKFIT
    Keyword: DF_BASIS_SCF
    atoms 1    entry O          line   221 file /shared/joao/test_parameterize/miniconda3/share/psi4/basis/cc-pvdz-jkfit.gbs 
    atoms 2-3  entry C          line   121 file /shared/joao/test_parameterize/miniconda3/share/psi4/basis/cc-pvdz-jkfit.gbs 
    atoms 4    entry N          line   171 file /shared/joao/test_parameterize/miniconda3/share/psi4/basis/cc-pvdz-jkfit.gbs 
    atoms 5-11 entry H          line    51 file /shared/joao/test_parameterize/miniconda3/share/psi4/basis/cc-pvdz-jkfit.gbs 

  ==> Pre-Iterations <==

   -------------------------------------------------------
    Irrep   Nso     Nmo     Nalpha   Nbeta   Ndocc  Nsocc
   -------------------------------------------------------
     A         91      91       0       0       0       0
   -------------------------------------------------------
    Total      91      91      17      17      17       0
   -------------------------------------------------------

  ==> Integral Setup <==

  DFHelper Memory: AOs need 0.036 [GiB]; user supplied 3.486 [GiB]. Using in-core AOs.

  ==> MemDFJK: Density-Fitted J/K Matrices <==

    J tasked:                   Yes
    K tasked:                   Yes
    wK tasked:                   No
    OpenMP threads:               1
    Memory (MB):               3570
    Algorithm:                 Core
    Schwarz Cutoff:           1E-12
    Mask sparsity (%):       0.1449
    Fitting Condition:        1E-12

   => Auxiliary Basis Set <=

  Basis Set: (CC-PVDZ AUX)
    Blend: CC-PVDZ-JKFIT
    Number of shells: 159
    Number of basis function: 441
    Number of Cartesian functions: 499
    Spherical Harmonics?: true
    Max angular momentum: 3

  Minimum eigenvalue in the overlap matrix is 4.8317172857E-03.
  Using Symmetric Orthogonalization.

  SCF Guess: Superposition of Atomic Densities via on-the-fly atomic UHF.

  ==> Iterations <==

                           Total Energy        Delta E     RMS |[F,P]|

   @DF-RKS iter   0:  -210.94229565210020   -2.10942e+02   3.75845e-02 
   @DF-RKS iter   1:  -210.26397452362184    6.78321e-01   5.99482e-03 
   @DF-RKS iter   2:  -210.15685197790961    1.07123e-01   8.42430e-03 DIIS
   @DF-RKS iter   3:  -210.38946125961468   -2.32609e-01   6.08624e-04 DIIS
   @DF-RKS iter   4:  -210.39048363924394   -1.02238e-03   3.13721e-04 DIIS
   @DF-RKS iter   5:  -210.39084215639897   -3.58517e-04   5.62254e-05 DIIS
   @DF-RKS iter   6:  -210.39085348823838   -1.13318e-05   1.44787e-05 DIIS
   @DF-RKS iter   7:  -210.39085417178532   -6.83547e-07   4.72592e-06 DIIS
   @DF-RKS iter   8:  -210.39085425313786   -8.13525e-08   6.57883e-07 DIIS

  ==> Post-Iterations <==

    Orbital Energies [Eh]
    ---------------------

    Doubly Occupied:                                                      

       1A    -19.126109     2A    -14.299421     3A    -10.222097  
       4A    -10.201582     5A     -1.009169     6A     -0.872132  
       7A     -0.713040     8A     -0.594617     9A     -0.511875  
      10A     -0.479197    11A     -0.452887    12A     -0.405181  
      13A     -0.392976    14A     -0.363864    15A     -0.324656  
      16A     -0.260550    17A     -0.226877  

    Virtual:                                                              

      18A      0.050686    19A      0.072371    20A      0.098408  
      21A      0.124887    22A      0.131458    23A      0.145626  
      24A      0.158564    25A      0.199247    26A      0.227059  
      27A      0.260802    28A      0.451943    29A      0.481146  
      30A      0.491050    31A      0.503750    32A      0.527057  
      33A      0.573168    34A      0.601378    35A      0.614384  
      36A      0.641702    37A      0.656189    38A      0.674547  
      39A      0.696608    40A      0.708555    41A      0.797498  
      42A      0.838169    43A      0.849197    44A      0.920580  
      45A      0.955011    46A      0.991004    47A      1.011873  
      48A      1.062136    49A      1.179555    50A      1.205895  
      51A      1.235583    52A      1.271677    53A      1.352881  
      54A      1.363084    55A      1.437554    56A      1.470877  
      57A      1.535508    58A      1.570386    59A      1.601142  
      60A      1.615769    61A      1.630572    62A      1.657112  
      63A      1.684279    64A      1.740129    65A      1.772400  
      66A      1.818597    67A      1.846830    68A      1.893349  
      69A      1.927426    70A      1.961341    71A      1.982869  
      72A      1.999246    73A      2.046168    74A      2.108927  
      75A      2.159906    76A      2.257973    77A      2.289520  
      78A      2.380346    79A      2.393825    80A      2.456565  
      81A      2.464475    82A      2.530088    83A      2.612215  
      84A      2.679480    85A      2.818195    86A      2.963731  
      87A      3.017019    88A      3.059641    89A      3.101497  
      90A      3.201194    91A      3.695055  

    Final Occupation by Irrep:
              A 
    DOCC [    17 ]

  Energy converged.

  @DF-RKS Final Energy:  -210.39085425313786

   => Energetics <=

    Nuclear Repulsion Energy =            131.9117816370195158
    One-Electron Energy =                -546.8096839736319907
    Two-Electron Energy =                 227.9999125720773634
    DFT Exchange-Correlation Energy =     -23.4879551886027684
    Empirical Dispersion Energy =          -0.0049093000000000
    VV10 Nonlocal Energy =                  0.0000000000000000
    Total Energy =                       -210.3908542531378600



Properties will be evaluated at   0.000000,   0.000000,   0.000000 [a0]

Properties computed using the SCF density matrix

  Nuclear Dipole Moment: [e a0]
     X:   155.3578      Y:   -25.6529      Z:   -53.1527

  Electronic Dipole Moment: [e a0]
     X:  -155.3625      Y:    25.6201      Z:    53.4184

  Dipole Moment: [e a0]
     X:    -0.0047      Y:    -0.0327      Z:     0.2656     Total:     0.2677

  Dipole Moment: [D]
     X:    -0.0119      Y:    -0.0832      Z:     0.6752     Total:     0.6804


*** tstop() called on loro.prib.upf.edu at Sat Sep 29 17:09:26 2018
Module time:
	user time   =      15.14 seconds =       0.25 minutes
	system time =       0.23 seconds =       0.00 minutes
	total time  =         17 seconds =       0.28 minutes
Total time:
	user time   =      15.14 seconds =       0.25 minutes
	system time =       0.23 seconds =       0.00 minutes
	total time  =         17 seconds =       0.28 minutes


Properties will be evaluated at   0.000000,   0.000000,   0.000000 [a0]
OEProp: No title given, name of density matrix used for the following properties is 'SCF density'
  Nuclear Dipole Moment: [e a0]
     X:   155.3578      Y:   -25.6529      Z:   -53.1527

  Electronic Dipole Moment: [e a0]
     X:  -155.3625      Y:    25.6201      Z:    53.4184

  Dipole Moment: [e a0]
     X:    -0.0047      Y:    -0.0327      Z:     0.2656     Total:     0.2677

  Dipole Moment: [D]
     X:    -0.0119      Y:    -0.0832      Z:     0.6752     Total:     0.6804

  Quadrupole Moment: [D A]
    XX:   -27.2748     YY:   -23.2939     ZZ:   -23.1550
    XY:    -3.5690     XZ:     1.9314     YZ:     3.9019

  Traceless Quadrupole Moment: [D A]
    XX:    -2.7003     YY:     1.2806     ZZ:     1.4196
    XY:    -3.5690     XZ:     1.9314     YZ:     3.9019

  Mulliken Charges: (a.u.)
   Center  Symbol    Alpha    Beta     Spin     Total
       1     O     4.14182  4.14182  0.00000 -0.28365
       2     C     2.92941  2.92941  0.00000  0.14117
       3     C     2.97818  2.97818  0.00000  0.04365
       4     N     3.59247  3.59247  0.00000 -0.18495
       5     H     0.43115  0.43115  0.00000  0.13770
       6     H     0.50397  0.50397  0.00000 -0.00794
       7     H     0.49923  0.49923  0.00000  0.00155
       8     H     0.49867  0.49867  0.00000  0.00267
       9     H     0.49577  0.49577  0.00000  0.00847
      10     H     0.46265  0.46265  0.00000  0.07470
      11     H     0.46668  0.46668  0.00000  0.06664

   Total alpha = 17.00000, Total beta = 17.00000, Total charge = -0.00000


    Psi4 stopped on: Saturday, 29 September 2018 05:09PM
    Psi4 wall time for execution: 0:00:17.43

*** Psi4 exiting successfully. Buy a developer a beer!
