
    -----------------------------------------------------------------------
          Psi4: An Open-Source Ab Initio Electronic Structure Package
                               Psi4 1.2.1 release

                         Git: Rev {HEAD} 406f4de 


    R. M. Parrish, L. A. Burns, D. G. A. Smith, A. C. Simmonett,
    A. E. DePrince III, E. G. Hohenstein, U. Bozkaya, A. Yu. Sokolov,
    R. Di Remigio, R. M. Richard, J. F. Gonthier, A. M. James,
    H. R. McAlexander, A. Kumar, M. Saitow, X. Wang, B. P. Pritchard,
    P. Verma, H. F. Schaefer III, K. Patkowski, R. A. King, E. F. Valeev,
    F. A. Evangelista, J. M. Turney, T. D. Crawford, and C. D. Sherrill,
    J. Chem. Theory Comput. 13(7) pp 3185--3197 (2017).
    (doi: 10.1021/acs.jctc.7b00174)


                         Additional Contributions by
    P. Kraus, H. Kruse, M. H. Lechner, M. C. Schieber, and R. A. Shaw

    -----------------------------------------------------------------------


    Psi4 started on: Saturday, 29 September 2018 04:50PM

    Process ID: 5356
    Host:       loro.prib.upf.edu
    PSIDATADIR: /shared/joao/test_parameterize/miniconda3/share/psi4
    Memory:     500.0 MiB
    Threads:    1
    
  ==> Input File <==

--------------------------------------------------------------------------
set_num_threads(1)
set_memory('5348 MB')

set { scf_mem_safety_factor 0.7 }

set { reference rks }
set { basis cc-pVDZ }

molecule MOL {
    0 1
    noreorient
    nocom
    symmetry c1
    O    1.141000   0.017000   0.083000
    C    2.558000   0.086000  -0.005000
    C    3.192000  -0.789000   1.067000
    O    4.610000  -0.719000   0.979000
    H    0.789000   0.590000  -0.620000
    H    2.874000   1.128000   0.115000
    H    2.871000  -0.243000  -1.001000
    H    2.876000  -1.830000   0.947000
    H    2.879000  -0.459000   2.064000
    H    4.813586  -0.117785   0.241451
}

set optking { frozen_dihedral = (" 2 3 4 10 ") }

energy, wfn = energy('B3LYP-D3', return_wfn=True)

import os
os.chdir(os.environ['HTMD_PSI4_WORKDIR'])

oeprop(wfn, 'DIPOLE', 'QUADRUPOLE', 'MULLIKEN_CHARGES')

with open('psi4out.xyz', 'w') as f:
    f.write('10 ' )
    f.write('%.12f\n' % energy)
    f.write(MOL.save_string_xyz())
--------------------------------------------------------------------------
  Threads set to 1 by Python driver.

  Memory set to   4.981 GiB by Python driver.

*** tstart() called on loro.prib.upf.edu
*** at Sat Sep 29 16:50:24 2018

   => Loading Basis Set <=

    Name: CC-PVDZ
    Role: ORBITAL
    Keyword: BASIS
    atoms 1, 4 entry O          line   198 file /shared/joao/test_parameterize/miniconda3/share/psi4/basis/cc-pvdz.gbs 
    atoms 2-3  entry C          line   138 file /shared/joao/test_parameterize/miniconda3/share/psi4/basis/cc-pvdz.gbs 
    atoms 5-10 entry H          line    22 file /shared/joao/test_parameterize/miniconda3/share/psi4/basis/cc-pvdz.gbs 


         ---------------------------------------------------------
                                   SCF
            by Justin Turney, Rob Parrish, Andy Simmonett
                             and Daniel Smith
                              RKS Reference
                        1 Threads,   5100 MiB Core
         ---------------------------------------------------------

  ==> Geometry <==

    Molecular point group: c1
    Full point group: C1

    Geometry (in Angstrom), charge = 0, multiplicity = 1:

       Center              X                  Y                   Z               Mass       
    ------------   -----------------  -----------------  -----------------  -----------------
         O            1.141000000000     0.017000000000     0.083000000000    15.994914619560
         C            2.558000000000     0.086000000000    -0.005000000000    12.000000000000
         C            3.192000000000    -0.789000000000     1.067000000000    12.000000000000
         O            4.610000000000    -0.719000000000     0.979000000000    15.994914619560
         H            0.789000000000     0.590000000000    -0.620000000000     1.007825032070
         H            2.874000000000     1.128000000000     0.115000000000     1.007825032070
         H            2.871000000000    -0.243000000000    -1.001000000000     1.007825032070
         H            2.876000000000    -1.830000000000     0.947000000000     1.007825032070
         H            2.879000000000    -0.459000000000     2.064000000000     1.007825032070
         H            4.813586000000    -0.117785000000     0.241451000000     1.007825032070

  Running in c1 symmetry.

  Rotational constants: A =      0.81868  B =      0.02561  C =      0.02507 [cm^-1]
  Rotational constants: A =  24543.54214  B =    767.66824  C =    751.44523 [MHz]
  Nuclear repulsion =  130.146329558329057

  Charge       = 0
  Multiplicity = 1
  Electrons    = 34
  Nalpha       = 17
  Nbeta        = 17

  ==> Algorithm <==

  SCF Algorithm Type is DF.
  DIIS enabled.
  MOM disabled.
  Fractional occupation disabled.
  Guess Type is SAD.
  Energy threshold   = 1.00e-06
  Density threshold  = 1.00e-06
  Integral threshold = 0.00e+00

  ==> Primary Basis <==

  Basis Set: CC-PVDZ
    Blend: CC-PVDZ
    Number of shells: 42
    Number of basis function: 86
    Number of Cartesian functions: 90
    Spherical Harmonics?: true
    Max angular momentum: 2

  ==> DFT Potential <==

   => Composite Functional: B3LYP-D3ZERO <= 

    B3LYP-d3zero Hyb-GGA Exchange-Correlation Functional

    P. J. Stephens, F. J. Devlin, C. F. Chabalowski, and M. J. Frisch, J. Phys. Chem. 98, 11623 (1994)

    Deriv               =              1
    GGA                 =           TRUE
    Meta                =          FALSE

    Exchange Hybrid     =           TRUE
    MP2 Hybrid          =          FALSE

   => Exchange Functionals <=

    0.0800   Slater exchange
    0.7200         Becke 88

   => Exact (HF) Exchange <=

    0.2000               HF 

   => Correlation Functionals <=

    0.1900   Vosko, Wilk & Nusair (VWN5_RPA)
    0.8100   Lee, Yang & Parr

   => Molecular Quadrature <=

    Radial Scheme       =       TREUTLER
    Pruning Scheme      =           FLAT
    Nuclear Scheme      =       TREUTLER

    BS radius alpha     =              1
    Pruning alpha       =              1
    Radial Points       =             75
    Spherical Points    =            302
    Total Points        =         222524
    Total Blocks        =           1740
    Max Points          =            256
    Max Functions       =             86

   => -D3ZERO: Empirical Dispersion <=

    Grimme's -D3 (zero-damping) Dispersion Correction
    Grimme S.; Antony J.; Ehrlich S.; Krieg H. (2010), J. Chem. Phys., 132: 154104

        S6 =   1.000000E+00
        S8 =   1.703000E+00
       SR6 =   1.261000E+00
       SR8 =   1.000000E+00
    ALPHA6 =   1.400000E+01

   => Loading Basis Set <=

    Name: (CC-PVDZ AUX)
    Role: JKFIT
    Keyword: DF_BASIS_SCF
    atoms 1, 4 entry O          line   221 file /shared/joao/test_parameterize/miniconda3/share/psi4/basis/cc-pvdz-jkfit.gbs 
    atoms 2-3  entry C          line   121 file /shared/joao/test_parameterize/miniconda3/share/psi4/basis/cc-pvdz-jkfit.gbs 
    atoms 5-10 entry H          line    51 file /shared/joao/test_parameterize/miniconda3/share/psi4/basis/cc-pvdz-jkfit.gbs 

  ==> Pre-Iterations <==

   -------------------------------------------------------
    Irrep   Nso     Nmo     Nalpha   Nbeta   Ndocc  Nsocc
   -------------------------------------------------------
     A         86      86       0       0       0       0
   -------------------------------------------------------
    Total      86      86      17      17      17       0
   -------------------------------------------------------

  ==> Integral Setup <==

  DFHelper Memory: AOs need 0.030 [GiB]; user supplied 3.486 [GiB]. Using in-core AOs.

  ==> MemDFJK: Density-Fitted J/K Matrices <==

    J tasked:                   Yes
    K tasked:                   Yes
    wK tasked:                   No
    OpenMP threads:               1
    Memory (MB):               3570
    Algorithm:                 Core
    Schwarz Cutoff:           1E-12
    Mask sparsity (%):       0.2704
    Fitting Condition:        1E-12

   => Auxiliary Basis Set <=

  Basis Set: (CC-PVDZ AUX)
    Blend: CC-PVDZ-JKFIT
    Number of shells: 150
    Number of basis function: 418
    Number of Cartesian functions: 474
    Spherical Harmonics?: true
    Max angular momentum: 3

  Minimum eigenvalue in the overlap matrix is 4.9310644617E-03.
  Using Symmetric Orthogonalization.

  SCF Guess: Superposition of Atomic Densities via on-the-fly atomic UHF.

  ==> Iterations <==

                           Total Energy        Delta E     RMS |[F,P]|

   @DF-RKS iter   0:  -231.05681001711409   -2.31057e+02   4.14962e-02 
   @DF-RKS iter   1:  -230.18852865366694    8.68281e-01   4.72308e-03 
   @DF-RKS iter   2:  -230.15577623327030    3.27524e-02   6.09000e-03 DIIS
   @DF-RKS iter   3:  -230.25408964628519   -9.83134e-02   6.99119e-04 DIIS
   @DF-RKS iter   4:  -230.25541313989464   -1.32349e-03   2.10165e-04 DIIS
   @DF-RKS iter   5:  -230.25556793097675   -1.54791e-04   4.81516e-05 DIIS
   @DF-RKS iter   6:  -230.25557601012258   -8.07915e-06   5.53811e-06 DIIS
   @DF-RKS iter   7:  -230.25557607007912   -5.99565e-08   3.53785e-06 DIIS
   @DF-RKS iter   8:  -230.25557610235043   -3.22713e-08   5.62370e-07 DIIS

  ==> Post-Iterations <==

    Orbital Energies [Eh]
    ---------------------

    Doubly Occupied:                                                      

       1A    -19.139843     2A    -19.133213     3A    -10.237781  
       4A    -10.226740     5A     -1.026008     6A     -1.012488  
       7A     -0.733769     8A     -0.626365     9A     -0.518627  
      10A     -0.484771    11A     -0.479122    12A     -0.423168  
      13A     -0.399218    14A     -0.355598    15A     -0.323754  
      16A     -0.273615    17A     -0.265597  

    Virtual:                                                              

      18A      0.038747    19A      0.053992    20A      0.099994  
      21A      0.106849    22A      0.123400    23A      0.164830  
      24A      0.200850    25A      0.231475    26A      0.241790  
      27A      0.432456    28A      0.436981    29A      0.494750  
      30A      0.528089    31A      0.554887    32A      0.585095  
      33A      0.608006    34A      0.618633    35A      0.626007  
      36A      0.648030    37A      0.652603    38A      0.672029  
      39A      0.873318    40A      0.883377    41A      0.913407  
      42A      0.973196    43A      1.027020    44A      1.050098  
      45A      1.053930    46A      1.126196    47A      1.188778  
      48A      1.206810    49A      1.272357    50A      1.295799  
      51A      1.332161    52A      1.359362    53A      1.495903  
      54A      1.578915    55A      1.590070    56A      1.590959  
      57A      1.639223    58A      1.642697    59A      1.664919  
      60A      1.680393    61A      1.713970    62A      1.779615  
      63A      1.783688    64A      1.875058    65A      1.901842  
      66A      1.967656    67A      2.051342    68A      2.051378  
      69A      2.145628    70A      2.153282    71A      2.267466  
      72A      2.280891    73A      2.410699    74A      2.415434  
      75A      2.487446    76A      2.506546    77A      2.920229  
      78A      2.935485    79A      3.023763    80A      3.025598  
      81A      3.050945    82A      3.086616    83A      3.185567  
      84A      3.268135    85A      3.667606    86A      3.693416  

    Final Occupation by Irrep:
              A 
    DOCC [    17 ]

  Energy converged.

  @DF-RKS Final Energy:  -230.25557610235043

   => Energetics <=

    Nuclear Repulsion Energy =            130.1463295583290574
    One-Electron Energy =                -571.8516096379722740
    Two-Electron Energy =                 235.9929026313068903
    DFT Exchange-Correlation Energy =     -24.5385690140141257
    Empirical Dispersion Energy =          -0.0046296400000000
    VV10 Nonlocal Energy =                  0.0000000000000000
    Total Energy =                       -230.2555761023504317



Properties will be evaluated at   0.000000,   0.000000,   0.000000 [a0]

Properties computed using the SCF density matrix

  Nuclear Dipole Moment: [e a0]
     X:   184.4573      Y:   -20.3444      Z:    31.3968

  Electronic Dipole Moment: [e a0]
     X:  -184.6205      Y:    21.0143      Z:   -32.2199

  Dipole Moment: [e a0]
     X:    -0.1632      Y:     0.6699      Z:    -0.8231     Total:     1.0737

  Dipole Moment: [D]
     X:    -0.4148      Y:     1.7027      Z:    -2.0921     Total:     2.7291


*** tstop() called on loro.prib.upf.edu at Sat Sep 29 16:50:40 2018
Module time:
	user time   =      12.99 seconds =       0.22 minutes
	system time =       0.23 seconds =       0.00 minutes
	total time  =         16 seconds =       0.27 minutes
Total time:
	user time   =      12.99 seconds =       0.22 minutes
	system time =       0.23 seconds =       0.00 minutes
	total time  =         16 seconds =       0.27 minutes


Properties will be evaluated at   0.000000,   0.000000,   0.000000 [a0]
OEProp: No title given, name of density matrix used for the following properties is 'SCF density'
  Nuclear Dipole Moment: [e a0]
     X:   184.4573      Y:   -20.3444      Z:    31.3968

  Electronic Dipole Moment: [e a0]
     X:  -184.6205      Y:    21.0143      Z:   -32.2199

  Dipole Moment: [e a0]
     X:    -0.1632      Y:     0.6699      Z:    -0.8231     Total:     1.0737

  Dipole Moment: [D]
     X:    -0.4148      Y:     1.7027      Z:    -2.0921     Total:     2.7291

  Quadrupole Moment: [D A]
    XX:   -29.9299     YY:   -24.7580     ZZ:   -25.0579
    XY:     5.3556     XZ:    -6.6101     YZ:    -0.1271

  Traceless Quadrupole Moment: [D A]
    XX:    -3.3479     YY:     1.8239     ZZ:     1.5240
    XY:     5.3556     XZ:    -6.6101     YZ:    -0.1271

  Mulliken Charges: (a.u.)
   Center  Symbol    Alpha    Beta     Spin     Total
       1     O     4.13640  4.13640  0.00000 -0.27280
       2     C     2.96188  2.96188  0.00000  0.07624
       3     C     2.91968  2.91968  0.00000  0.16065
       4     O     4.13629  4.13629  0.00000 -0.27257
       5     H     0.42795  0.42795  0.00000  0.14410
       6     H     0.49993  0.49993  0.00000  0.00014
       7     H     0.49996  0.49996  0.00000  0.00007
       8     H     0.49234  0.49234  0.00000  0.01532
       9     H     0.49231  0.49231  0.00000  0.01539
      10     H     0.43327  0.43327  0.00000  0.13346

   Total alpha = 17.00000, Total beta = 17.00000, Total charge = -0.00000


    Psi4 stopped on: Saturday, 29 September 2018 04:50PM
    Psi4 wall time for execution: 0:00:16.00

*** Psi4 exiting successfully. Buy a developer a beer!
