
    -----------------------------------------------------------------------
          Psi4: An Open-Source Ab Initio Electronic Structure Package
                               Psi4 1.2.1 release

                         Git: Rev {HEAD} 406f4de 


    R. M. Parrish, L. A. Burns, D. G. A. Smith, A. C. Simmonett,
    A. E. DePrince III, E. G. Hohenstein, U. Bozkaya, A. Yu. Sokolov,
    R. Di Remigio, R. M. Richard, J. F. Gonthier, A. M. James,
    H. R. McAlexander, A. Kumar, M. Saitow, X. Wang, B. P. Pritchard,
    P. Verma, H. F. Schaefer III, K. Patkowski, R. A. King, E. F. Valeev,
    F. A. Evangelista, J. M. Turney, T. D. Crawford, and C. D. Sherrill,
    J. Chem. Theory Comput. 13(7) pp 3185--3197 (2017).
    (doi: 10.1021/acs.jctc.7b00174)


                         Additional Contributions by
    P. Kraus, H. Kruse, M. H. Lechner, M. C. Schieber, and R. A. Shaw

    -----------------------------------------------------------------------


    Psi4 started on: Saturday, 29 September 2018 05:08PM

    Process ID: 12824
    Host:       loro.prib.upf.edu
    PSIDATADIR: /shared/joao/test_parameterize/miniconda3/share/psi4
    Memory:     500.0 MiB
    Threads:    1
    
  ==> Input File <==

--------------------------------------------------------------------------
set_num_threads(1)
set_memory('5348 MB')

set { scf_mem_safety_factor 0.7 }

set { reference rks }
set { basis cc-pVDZ }

molecule MOL {
    0 1
    noreorient
    nocom
    symmetry c1
    O    1.050400   0.042900  -0.048100
    C    2.474100   0.047400  -0.029000
    C    3.002600  -1.068900  -0.932000
    N    2.384832  -1.044932  -2.256873
    H    0.760400   0.728400   0.578000
    H    2.809900  -0.097900   1.003200
    H    2.817400   1.026800  -0.378600
    H    2.827469  -2.042633  -0.459864
    H    4.089167  -0.968388  -1.033611
    H    1.391654  -1.258362  -2.170117
    H    2.783666  -1.797141  -2.818446
}

set optking { frozen_dihedral = (" 1 2 3 4 ") }

energy, wfn = energy('B3LYP-D3', return_wfn=True)

import os
os.chdir(os.environ['HTMD_PSI4_WORKDIR'])

oeprop(wfn, 'DIPOLE', 'QUADRUPOLE', 'MULLIKEN_CHARGES')

with open('psi4out.xyz', 'w') as f:
    f.write('11 ' )
    f.write('%.12f\n' % energy)
    f.write(MOL.save_string_xyz())
--------------------------------------------------------------------------
  Threads set to 1 by Python driver.

  Memory set to   4.981 GiB by Python driver.

*** tstart() called on loro.prib.upf.edu
*** at Sat Sep 29 17:08:50 2018

   => Loading Basis Set <=

    Name: CC-PVDZ
    Role: ORBITAL
    Keyword: BASIS
    atoms 1    entry O          line   198 file /shared/joao/test_parameterize/miniconda3/share/psi4/basis/cc-pvdz.gbs 
    atoms 2-3  entry C          line   138 file /shared/joao/test_parameterize/miniconda3/share/psi4/basis/cc-pvdz.gbs 
    atoms 4    entry N          line   168 file /shared/joao/test_parameterize/miniconda3/share/psi4/basis/cc-pvdz.gbs 
    atoms 5-11 entry H          line    22 file /shared/joao/test_parameterize/miniconda3/share/psi4/basis/cc-pvdz.gbs 


         ---------------------------------------------------------
                                   SCF
            by Justin Turney, Rob Parrish, Andy Simmonett
                             and Daniel Smith
                              RKS Reference
                        1 Threads,   5100 MiB Core
         ---------------------------------------------------------

  ==> Geometry <==

    Molecular point group: c1
    Full point group: C1

    Geometry (in Angstrom), charge = 0, multiplicity = 1:

       Center              X                  Y                   Z               Mass       
    ------------   -----------------  -----------------  -----------------  -----------------
         O            1.050400000000     0.042900000000    -0.048100000000    15.994914619560
         C            2.474100000000     0.047400000000    -0.029000000000    12.000000000000
         C            3.002600000000    -1.068900000000    -0.932000000000    12.000000000000
         N            2.384832000000    -1.044932000000    -2.256873000000    14.003074004780
         H            0.760400000000     0.728400000000     0.578000000000     1.007825032070
         H            2.809900000000    -0.097900000000     1.003200000000     1.007825032070
         H            2.817400000000     1.026800000000    -0.378600000000     1.007825032070
         H            2.827469000000    -2.042633000000    -0.459864000000     1.007825032070
         H            4.089167000000    -0.968388000000    -1.033611000000     1.007825032070
         H            1.391654000000    -1.258362000000    -2.170117000000     1.007825032070
         H            2.783666000000    -1.797141000000    -2.818446000000     1.007825032070

  Running in c1 symmetry.

  Rotational constants: A =      0.29633  B =      0.04030  C =      0.03656 [cm^-1]
  Rotational constants: A =   8883.85364  B =   1208.26350  C =   1095.98265 [MHz]
  Nuclear repulsion =  133.274072742238019

  Charge       = 0
  Multiplicity = 1
  Electrons    = 34
  Nalpha       = 17
  Nbeta        = 17

  ==> Algorithm <==

  SCF Algorithm Type is DF.
  DIIS enabled.
  MOM disabled.
  Fractional occupation disabled.
  Guess Type is SAD.
  Energy threshold   = 1.00e-06
  Density threshold  = 1.00e-06
  Integral threshold = 0.00e+00

  ==> Primary Basis <==

  Basis Set: CC-PVDZ
    Blend: CC-PVDZ
    Number of shells: 45
    Number of basis function: 91
    Number of Cartesian functions: 95
    Spherical Harmonics?: true
    Max angular momentum: 2

  ==> DFT Potential <==

   => Composite Functional: B3LYP-D3ZERO <= 

    B3LYP-d3zero Hyb-GGA Exchange-Correlation Functional

    P. J. Stephens, F. J. Devlin, C. F. Chabalowski, and M. J. Frisch, J. Phys. Chem. 98, 11623 (1994)

    Deriv               =              1
    GGA                 =           TRUE
    Meta                =          FALSE

    Exchange Hybrid     =           TRUE
    MP2 Hybrid          =          FALSE

   => Exchange Functionals <=

    0.0800   Slater exchange
    0.7200         Becke 88

   => Exact (HF) Exchange <=

    0.2000               HF 

   => Correlation Functionals <=

    0.1900   Vosko, Wilk & Nusair (VWN5_RPA)
    0.8100   Lee, Yang & Parr

   => Molecular Quadrature <=

    Radial Scheme       =       TREUTLER
    Pruning Scheme      =           FLAT
    Nuclear Scheme      =       TREUTLER

    BS radius alpha     =              1
    Pruning alpha       =              1
    Radial Points       =             75
    Spherical Points    =            302
    Total Points        =         245130
    Total Blocks        =           1877
    Max Points          =            256
    Max Functions       =             91

   => -D3ZERO: Empirical Dispersion <=

    Grimme's -D3 (zero-damping) Dispersion Correction
    Grimme S.; Antony J.; Ehrlich S.; Krieg H. (2010), J. Chem. Phys., 132: 154104

        S6 =   1.000000E+00
        S8 =   1.703000E+00
       SR6 =   1.261000E+00
       SR8 =   1.000000E+00
    ALPHA6 =   1.400000E+01

   => Loading Basis Set <=

    Name: (CC-PVDZ AUX)
    Role: JKFIT
    Keyword: DF_BASIS_SCF
    atoms 1    entry O          line   221 file /shared/joao/test_parameterize/miniconda3/share/psi4/basis/cc-pvdz-jkfit.gbs 
    atoms 2-3  entry C          line   121 file /shared/joao/test_parameterize/miniconda3/share/psi4/basis/cc-pvdz-jkfit.gbs 
    atoms 4    entry N          line   171 file /shared/joao/test_parameterize/miniconda3/share/psi4/basis/cc-pvdz-jkfit.gbs 
    atoms 5-11 entry H          line    51 file /shared/joao/test_parameterize/miniconda3/share/psi4/basis/cc-pvdz-jkfit.gbs 

  ==> Pre-Iterations <==

   -------------------------------------------------------
    Irrep   Nso     Nmo     Nalpha   Nbeta   Ndocc  Nsocc
   -------------------------------------------------------
     A         91      91       0       0       0       0
   -------------------------------------------------------
    Total      91      91      17      17      17       0
   -------------------------------------------------------

  ==> Integral Setup <==

  DFHelper Memory: AOs need 0.036 [GiB]; user supplied 3.486 [GiB]. Using in-core AOs.

  ==> MemDFJK: Density-Fitted J/K Matrices <==

    J tasked:                   Yes
    K tasked:                   Yes
    wK tasked:                   No
    OpenMP threads:               1
    Memory (MB):               3570
    Algorithm:                 Core
    Schwarz Cutoff:           1E-12
    Mask sparsity (%):       0.0000
    Fitting Condition:        1E-12

   => Auxiliary Basis Set <=

  Basis Set: (CC-PVDZ AUX)
    Blend: CC-PVDZ-JKFIT
    Number of shells: 159
    Number of basis function: 441
    Number of Cartesian functions: 499
    Spherical Harmonics?: true
    Max angular momentum: 3

  Minimum eigenvalue in the overlap matrix is 4.8233483055E-03.
  Using Symmetric Orthogonalization.

  SCF Guess: Superposition of Atomic Densities via on-the-fly atomic UHF.

  ==> Iterations <==

                           Total Energy        Delta E     RMS |[F,P]|

   @DF-RKS iter   0:  -210.89237196497345   -2.10892e+02   3.71098e-02 
   @DF-RKS iter   1:  -210.24643739119225    6.45935e-01   6.43513e-03 
   @DF-RKS iter   2:  -210.10975661634916    1.36681e-01   9.16463e-03 DIIS
   @DF-RKS iter   3:  -210.39147419397560   -2.81718e-01   6.05030e-04 DIIS
   @DF-RKS iter   4:  -210.39247294732527   -9.98753e-04   3.25493e-04 DIIS
   @DF-RKS iter   5:  -210.39285313754905   -3.80190e-04   6.07858e-05 DIIS
   @DF-RKS iter   6:  -210.39286595005277   -1.28125e-05   1.55660e-05 DIIS
   @DF-RKS iter   7:  -210.39286676356798   -8.13515e-07   4.27682e-06 DIIS
   @DF-RKS iter   8:  -210.39286682948000   -6.59120e-08   6.15684e-07 DIIS

  ==> Post-Iterations <==

    Orbital Energies [Eh]
    ---------------------

    Doubly Occupied:                                                      

       1A    -19.128340     2A    -14.295074     3A    -10.223983  
       4A    -10.202307     5A     -1.011070     6A     -0.867710  
       7A     -0.714073     8A     -0.592604     9A     -0.514752  
      10A     -0.470491    11A     -0.457929    12A     -0.404657  
      13A     -0.393910    14A     -0.360113    15A     -0.327238  
      16A     -0.262412    17A     -0.222824  

    Virtual:                                                              

      18A      0.047342    19A      0.080933    20A      0.095411  
      21A      0.118432    22A      0.135373    23A      0.142872  
      24A      0.173162    25A      0.201193    26A      0.234140  
      27A      0.252610    28A      0.462040    29A      0.467763  
      30A      0.493657    31A      0.496286    32A      0.526955  
      33A      0.558204    34A      0.596754    35A      0.619137  
      36A      0.639086    37A      0.652847    38A      0.671663  
      39A      0.698640    40A      0.710733    41A      0.801987  
      42A      0.837965    43A      0.860656    44A      0.937216  
      45A      0.964377    46A      0.997623    47A      1.024151  
      48A      1.068519    49A      1.166227    50A      1.196565  
      51A      1.219690    52A      1.281912    53A      1.332004  
      54A      1.362311    55A      1.447678    56A      1.494594  
      57A      1.531747    58A      1.589082    59A      1.603616  
      60A      1.625690    61A      1.641508    62A      1.663838  
      63A      1.697508    64A      1.716693    65A      1.747506  
      66A      1.784657    67A      1.872531    68A      1.876522  
      69A      1.905852    70A      1.974387    71A      1.980008  
      72A      2.008870    73A      2.048843    74A      2.139147  
      75A      2.146545    76A      2.209628    77A      2.272027  
      78A      2.359670    79A      2.397497    80A      2.440236  
      81A      2.508216    82A      2.535123    83A      2.625160  
      84A      2.698686    85A      2.826393    86A      2.962060  
      87A      3.016597    88A      3.065118    89A      3.104006  
      90A      3.203774    91A      3.697951  

    Final Occupation by Irrep:
              A 
    DOCC [    17 ]

  Energy converged.

  @DF-RKS Final Energy:  -210.39286682948000

   => Energetics <=

    Nuclear Repulsion Energy =            133.2740727422380189
    One-Electron Energy =                -549.5529737247977664
    Two-Electron Energy =                 229.3768170383619633
    DFT Exchange-Correlation Energy =     -23.4856396052821843
    Empirical Dispersion Energy =          -0.0051432800000000
    VV10 Nonlocal Energy =                  0.0000000000000000
    Total Energy =                       -210.3928668294799991



Properties will be evaluated at   0.000000,   0.000000,   0.000000 [a0]

Properties computed using the SCF density matrix

  Nuclear Dipole Moment: [e a0]
     X:   142.5550      Y:   -33.0883      Z:   -51.4541

  Electronic Dipole Moment: [e a0]
     X:  -142.3795      Y:    33.0000      Z:    51.9457

  Dipole Moment: [e a0]
     X:     0.1756      Y:    -0.0882      Z:     0.4916     Total:     0.5294

  Dipole Moment: [D]
     X:     0.4463      Y:    -0.2242      Z:     1.2496     Total:     1.3457


*** tstop() called on loro.prib.upf.edu at Sat Sep 29 17:09:08 2018
Module time:
	user time   =      15.23 seconds =       0.25 minutes
	system time =       0.26 seconds =       0.00 minutes
	total time  =         18 seconds =       0.30 minutes
Total time:
	user time   =      15.23 seconds =       0.25 minutes
	system time =       0.26 seconds =       0.00 minutes
	total time  =         18 seconds =       0.30 minutes


Properties will be evaluated at   0.000000,   0.000000,   0.000000 [a0]
OEProp: No title given, name of density matrix used for the following properties is 'SCF density'
  Nuclear Dipole Moment: [e a0]
     X:   142.5550      Y:   -33.0883      Z:   -51.4541

  Electronic Dipole Moment: [e a0]
     X:  -142.3795      Y:    33.0000      Z:    51.9457

  Dipole Moment: [e a0]
     X:     0.1756      Y:    -0.0882      Z:     0.4916     Total:     0.5294

  Dipole Moment: [D]
     X:     0.4463      Y:    -0.2242      Z:     1.2496     Total:     1.3457

  Quadrupole Moment: [D A]
    XX:   -22.8214     YY:   -22.3062     ZZ:   -26.3799
    XY:    -2.2378     XZ:     1.7568     YZ:     4.4295

  Traceless Quadrupole Moment: [D A]
    XX:     1.0144     YY:     1.5297     ZZ:    -2.5441
    XY:    -2.2378     XZ:     1.7568     YZ:     4.4295

  Mulliken Charges: (a.u.)
   Center  Symbol    Alpha    Beta     Spin     Total
       1     O     4.14059  4.14059  0.00000 -0.28119
       2     C     2.92625  2.92625  0.00000  0.14751
       3     C     2.98268  2.98268  0.00000  0.03463
       4     N     3.59080  3.59080  0.00000 -0.18159
       5     H     0.42912  0.42912  0.00000  0.14177
       6     H     0.50419  0.50419  0.00000 -0.00838
       7     H     0.49972  0.49972  0.00000  0.00055
       8     H     0.50323  0.50323  0.00000 -0.00646
       9     H     0.49530  0.49530  0.00000  0.00940
      10     H     0.46130  0.46130  0.00000  0.07741
      11     H     0.46682  0.46682  0.00000  0.06636

   Total alpha = 17.00000, Total beta = 17.00000, Total charge =  0.00000


    Psi4 stopped on: Saturday, 29 September 2018 05:09PM
    Psi4 wall time for execution: 0:00:18.14

*** Psi4 exiting successfully. Buy a developer a beer!
