
    -----------------------------------------------------------------------
          Psi4: An Open-Source Ab Initio Electronic Structure Package
                               Psi4 1.2.1 release

                         Git: Rev {HEAD} 406f4de 


    R. M. Parrish, L. A. Burns, D. G. A. Smith, A. C. Simmonett,
    A. E. DePrince III, E. G. Hohenstein, U. Bozkaya, A. Yu. Sokolov,
    R. Di Remigio, R. M. Richard, J. F. Gonthier, A. M. James,
    H. R. McAlexander, A. Kumar, M. Saitow, X. Wang, B. P. Pritchard,
    P. Verma, H. F. Schaefer III, K. Patkowski, R. A. King, E. F. Valeev,
    F. A. Evangelista, J. M. Turney, T. D. Crawford, and C. D. Sherrill,
    J. Chem. Theory Comput. 13(7) pp 3185--3197 (2017).
    (doi: 10.1021/acs.jctc.7b00174)


                         Additional Contributions by
    P. Kraus, H. Kruse, M. H. Lechner, M. C. Schieber, and R. A. Shaw

    -----------------------------------------------------------------------


    Psi4 started on: Saturday, 29 September 2018 05:08PM

    Process ID: 12262
    Host:       loro.prib.upf.edu
    PSIDATADIR: /shared/joao/test_parameterize/miniconda3/share/psi4
    Memory:     500.0 MiB
    Threads:    1
    
  ==> Input File <==

--------------------------------------------------------------------------
set_num_threads(1)
set_memory('5348 MB')

set { scf_mem_safety_factor 0.7 }

set { reference rks }
set { basis cc-pVDZ }

molecule MOL {
    0 1
    noreorient
    nocom
    symmetry c1
    O    1.050400   0.042900  -0.048100
    C    2.474100   0.047400  -0.029000
    C    3.002600  -1.068900  -0.932000
    N    4.442451  -1.268785  -0.775877
    H    0.760400   0.728400   0.578000
    H    2.809900  -0.097900   1.003200
    H    2.817400   1.026800  -0.378600
    H    2.772430  -0.839802  -1.979031
    H    2.476843  -2.001959  -0.699544
    H    4.936084  -0.440380  -1.106864
    H    4.735972  -2.030950  -1.386780
}

set optking { frozen_dihedral = (" 1 2 3 4 ") }

energy, wfn = energy('B3LYP-D3', return_wfn=True)

import os
os.chdir(os.environ['HTMD_PSI4_WORKDIR'])

oeprop(wfn, 'DIPOLE', 'QUADRUPOLE', 'MULLIKEN_CHARGES')

with open('psi4out.xyz', 'w') as f:
    f.write('11 ' )
    f.write('%.12f\n' % energy)
    f.write(MOL.save_string_xyz())
--------------------------------------------------------------------------
  Threads set to 1 by Python driver.

  Memory set to   4.981 GiB by Python driver.

*** tstart() called on loro.prib.upf.edu
*** at Sat Sep 29 17:08:29 2018

   => Loading Basis Set <=

    Name: CC-PVDZ
    Role: ORBITAL
    Keyword: BASIS
    atoms 1    entry O          line   198 file /shared/joao/test_parameterize/miniconda3/share/psi4/basis/cc-pvdz.gbs 
    atoms 2-3  entry C          line   138 file /shared/joao/test_parameterize/miniconda3/share/psi4/basis/cc-pvdz.gbs 
    atoms 4    entry N          line   168 file /shared/joao/test_parameterize/miniconda3/share/psi4/basis/cc-pvdz.gbs 
    atoms 5-11 entry H          line    22 file /shared/joao/test_parameterize/miniconda3/share/psi4/basis/cc-pvdz.gbs 


         ---------------------------------------------------------
                                   SCF
            by Justin Turney, Rob Parrish, Andy Simmonett
                             and Daniel Smith
                              RKS Reference
                        1 Threads,   5100 MiB Core
         ---------------------------------------------------------

  ==> Geometry <==

    Molecular point group: c1
    Full point group: C1

    Geometry (in Angstrom), charge = 0, multiplicity = 1:

       Center              X                  Y                   Z               Mass       
    ------------   -----------------  -----------------  -----------------  -----------------
         O            1.050400000000     0.042900000000    -0.048100000000    15.994914619560
         C            2.474100000000     0.047400000000    -0.029000000000    12.000000000000
         C            3.002600000000    -1.068900000000    -0.932000000000    12.000000000000
         N            4.442451000000    -1.268785000000    -0.775877000000    14.003074004780
         H            0.760400000000     0.728400000000     0.578000000000     1.007825032070
         H            2.809900000000    -0.097900000000     1.003200000000     1.007825032070
         H            2.817400000000     1.026800000000    -0.378600000000     1.007825032070
         H            2.772430000000    -0.839802000000    -1.979031000000     1.007825032070
         H            2.476843000000    -2.001959000000    -0.699544000000     1.007825032070
         H            4.936084000000    -0.440380000000    -1.106864000000     1.007825032070
         H            4.735972000000    -2.030950000000    -1.386780000000     1.007825032070

  Running in c1 symmetry.

  Rotational constants: A =      0.71137  B =      0.02770  C =      0.02700 [cm^-1]
  Rotational constants: A =  21326.24928  B =    830.30564  C =    809.58927 [MHz]
  Nuclear repulsion =  130.412822685367331

  Charge       = 0
  Multiplicity = 1
  Electrons    = 34
  Nalpha       = 17
  Nbeta        = 17

  ==> Algorithm <==

  SCF Algorithm Type is DF.
  DIIS enabled.
  MOM disabled.
  Fractional occupation disabled.
  Guess Type is SAD.
  Energy threshold   = 1.00e-06
  Density threshold  = 1.00e-06
  Integral threshold = 0.00e+00

  ==> Primary Basis <==

  Basis Set: CC-PVDZ
    Blend: CC-PVDZ
    Number of shells: 45
    Number of basis function: 91
    Number of Cartesian functions: 95
    Spherical Harmonics?: true
    Max angular momentum: 2

  ==> DFT Potential <==

   => Composite Functional: B3LYP-D3ZERO <= 

    B3LYP-d3zero Hyb-GGA Exchange-Correlation Functional

    P. J. Stephens, F. J. Devlin, C. F. Chabalowski, and M. J. Frisch, J. Phys. Chem. 98, 11623 (1994)

    Deriv               =              1
    GGA                 =           TRUE
    Meta                =          FALSE

    Exchange Hybrid     =           TRUE
    MP2 Hybrid          =          FALSE

   => Exchange Functionals <=

    0.0800   Slater exchange
    0.7200         Becke 88

   => Exact (HF) Exchange <=

    0.2000               HF 

   => Correlation Functionals <=

    0.1900   Vosko, Wilk & Nusair (VWN5_RPA)
    0.8100   Lee, Yang & Parr

   => Molecular Quadrature <=

    Radial Scheme       =       TREUTLER
    Pruning Scheme      =           FLAT
    Nuclear Scheme      =       TREUTLER

    BS radius alpha     =              1
    Pruning alpha       =              1
    Radial Points       =             75
    Spherical Points    =            302
    Total Points        =         245100
    Total Blocks        =           1887
    Max Points          =            256
    Max Functions       =             91

   => -D3ZERO: Empirical Dispersion <=

    Grimme's -D3 (zero-damping) Dispersion Correction
    Grimme S.; Antony J.; Ehrlich S.; Krieg H. (2010), J. Chem. Phys., 132: 154104

        S6 =   1.000000E+00
        S8 =   1.703000E+00
       SR6 =   1.261000E+00
       SR8 =   1.000000E+00
    ALPHA6 =   1.400000E+01

   => Loading Basis Set <=

    Name: (CC-PVDZ AUX)
    Role: JKFIT
    Keyword: DF_BASIS_SCF
    atoms 1    entry O          line   221 file /shared/joao/test_parameterize/miniconda3/share/psi4/basis/cc-pvdz-jkfit.gbs 
    atoms 2-3  entry C          line   121 file /shared/joao/test_parameterize/miniconda3/share/psi4/basis/cc-pvdz-jkfit.gbs 
    atoms 4    entry N          line   171 file /shared/joao/test_parameterize/miniconda3/share/psi4/basis/cc-pvdz-jkfit.gbs 
    atoms 5-11 entry H          line    51 file /shared/joao/test_parameterize/miniconda3/share/psi4/basis/cc-pvdz-jkfit.gbs 

  ==> Pre-Iterations <==

   -------------------------------------------------------
    Irrep   Nso     Nmo     Nalpha   Nbeta   Ndocc  Nsocc
   -------------------------------------------------------
     A         91      91       0       0       0       0
   -------------------------------------------------------
    Total      91      91      17      17      17       0
   -------------------------------------------------------

  ==> Integral Setup <==

  DFHelper Memory: AOs need 0.036 [GiB]; user supplied 3.486 [GiB]. Using in-core AOs.

  ==> MemDFJK: Density-Fitted J/K Matrices <==

    J tasked:                   Yes
    K tasked:                   Yes
    wK tasked:                   No
    OpenMP threads:               1
    Memory (MB):               3570
    Algorithm:                 Core
    Schwarz Cutoff:           1E-12
    Mask sparsity (%):       0.4589
    Fitting Condition:        1E-12

   => Auxiliary Basis Set <=

  Basis Set: (CC-PVDZ AUX)
    Blend: CC-PVDZ-JKFIT
    Number of shells: 159
    Number of basis function: 441
    Number of Cartesian functions: 499
    Spherical Harmonics?: true
    Max angular momentum: 3

  Minimum eigenvalue in the overlap matrix is 4.4953307145E-03.
  Using Symmetric Orthogonalization.

  SCF Guess: Superposition of Atomic Densities via on-the-fly atomic UHF.

  ==> Iterations <==

                           Total Energy        Delta E     RMS |[F,P]|

   @DF-RKS iter   0:  -210.83462771894776   -2.10835e+02   3.65988e-02 
   @DF-RKS iter   1:  -210.20987394777760    6.24754e-01   7.15014e-03 
   @DF-RKS iter   2:  -210.06041936726800    1.49455e-01   9.78511e-03 DIIS
   @DF-RKS iter   3:  -210.38984603371139   -3.29427e-01   5.64997e-04 DIIS
   @DF-RKS iter   4:  -210.39047503787683   -6.29004e-04   3.69869e-04 DIIS
   @DF-RKS iter   5:  -210.39096191177066   -4.86874e-04   4.78012e-05 DIIS
   @DF-RKS iter   6:  -210.39096783631180   -5.92454e-06   2.34215e-05 DIIS
   @DF-RKS iter   7:  -210.39096982897561   -1.99266e-06   2.03570e-06 DIIS
   @DF-RKS iter   8:  -210.39096984386893   -1.48933e-08   6.47712e-07 DIIS

  ==> Post-Iterations <==

    Orbital Energies [Eh]
    ---------------------

    Doubly Occupied:                                                      

       1A    -19.126663     2A    -14.305169     3A    -10.223257  
       4A    -10.201667     5A     -1.009047     6A     -0.876969  
       7A     -0.712063     8A     -0.596931     9A     -0.505947  
      10A     -0.482966    11A     -0.460116    12A     -0.411886  
      13A     -0.388386    14A     -0.363934    15A     -0.323009  
      16A     -0.260201    17A     -0.231331  

    Virtual:                                                              

      18A      0.050556    19A      0.058321    20A      0.102916  
      21A      0.120056    22A      0.123820    23A      0.152796  
      24A      0.167438    25A      0.206655    26A      0.242106  
      27A      0.254570    28A      0.443304    29A      0.453925  
      30A      0.481348    31A      0.499727    32A      0.564693  
      33A      0.578470    34A      0.611325    35A      0.616525  
      36A      0.638518    37A      0.651347    38A      0.658384  
      39A      0.679277    40A      0.704629    41A      0.819993  
      42A      0.825816    43A      0.850446    44A      0.904700  
      45A      0.965068    46A      0.994089    47A      1.016752  
      48A      1.063214    49A      1.186325    50A      1.215657  
      51A      1.235167    52A      1.244060    53A      1.341911  
      54A      1.354350    55A      1.418628    56A      1.482421  
      57A      1.515633    58A      1.597671    59A      1.614498  
      60A      1.630860    61A      1.647875    62A      1.664486  
      63A      1.717185    64A      1.738620    65A      1.755900  
      66A      1.783883    67A      1.813176    68A      1.853572  
      69A      1.920105    70A      1.949417    71A      1.981915  
      72A      2.019333    73A      2.050075    74A      2.145873  
      75A      2.153916    76A      2.239403    77A      2.303156  
      78A      2.370915    79A      2.394509    80A      2.446626  
      81A      2.461830    82A      2.539686    83A      2.607983  
      84A      2.683445    85A      2.819733    86A      2.958912  
      87A      3.025440    88A      3.032208    89A      3.121572  
      90A      3.203666    91A      3.696134  

    Final Occupation by Irrep:
              A 
    DOCC [    17 ]

  Energy converged.

  @DF-RKS Final Energy:  -210.39096984386893

   => Energetics <=

    Nuclear Repulsion Energy =            130.4128226853673311
    One-Electron Energy =                -543.7664057936885911
    Two-Electron Energy =                 226.4540424296086485
    DFT Exchange-Correlation Energy =     -23.4865355951563508
    Empirical Dispersion Energy =          -0.0048935700000000
    VV10 Nonlocal Energy =                  0.0000000000000000
    Total Energy =                       -210.3909698438689304



Properties will be evaluated at   0.000000,   0.000000,   0.000000 [a0]

Properties computed using the SCF density matrix

  Nuclear Dipole Moment: [e a0]
     X:   177.0099      Y:   -34.6256      Z:   -29.3882

  Electronic Dipole Moment: [e a0]
     X:  -176.7391      Y:    35.0541      Z:    29.2366

  Dipole Moment: [e a0]
     X:     0.2708      Y:     0.4285      Z:    -0.1516     Total:     0.5290

  Dipole Moment: [D]
     X:     0.6882      Y:     1.0891      Z:    -0.3852     Total:     1.3447


*** tstop() called on loro.prib.upf.edu at Sat Sep 29 17:08:49 2018
Module time:
	user time   =      15.36 seconds =       0.26 minutes
	system time =       0.22 seconds =       0.00 minutes
	total time  =         20 seconds =       0.33 minutes
Total time:
	user time   =      15.36 seconds =       0.26 minutes
	system time =       0.22 seconds =       0.00 minutes
	total time  =         20 seconds =       0.33 minutes


Properties will be evaluated at   0.000000,   0.000000,   0.000000 [a0]
OEProp: No title given, name of density matrix used for the following properties is 'SCF density'
  Nuclear Dipole Moment: [e a0]
     X:   177.0099      Y:   -34.6256      Z:   -29.3882

  Electronic Dipole Moment: [e a0]
     X:  -176.7391      Y:    35.0541      Z:    29.2366

  Dipole Moment: [e a0]
     X:     0.2708      Y:     0.4285      Z:    -0.1516     Total:     0.5290

  Dipole Moment: [D]
     X:     0.6882      Y:     1.0891      Z:    -0.3852     Total:     1.3447

  Quadrupole Moment: [D A]
    XX:   -22.7945     YY:   -23.7409     ZZ:   -23.4018
    XY:     1.3545     XZ:    -6.3112     YZ:     2.8957

  Traceless Quadrupole Moment: [D A]
    XX:     0.5179     YY:    -0.4285     ZZ:    -0.0894
    XY:     1.3545     XZ:    -6.3112     YZ:     2.8957

  Mulliken Charges: (a.u.)
   Center  Symbol    Alpha    Beta     Spin     Total
       1     O     4.13943  4.13943  0.00000 -0.27887
       2     C     2.93014  2.93014  0.00000  0.13973
       3     C     2.98480  2.98480  0.00000  0.03039
       4     N     3.59248  3.59248  0.00000 -0.18497
       5     H     0.42988  0.42988  0.00000  0.14024
       6     H     0.49874  0.49874  0.00000  0.00253
       7     H     0.50422  0.50422  0.00000 -0.00845
       8     H     0.50144  0.50144  0.00000 -0.00289
       9     H     0.48932  0.48932  0.00000  0.02137
      10     H     0.46614  0.46614  0.00000  0.06771
      11     H     0.46340  0.46340  0.00000  0.07320

   Total alpha = 17.00000, Total beta = 17.00000, Total charge = -0.00000


    Psi4 stopped on: Saturday, 29 September 2018 05:08PM
    Psi4 wall time for execution: 0:00:19.31

*** Psi4 exiting successfully. Buy a developer a beer!
