
    -----------------------------------------------------------------------
          Psi4: An Open-Source Ab Initio Electronic Structure Package
                               Psi4 1.2.1 release

                         Git: Rev {HEAD} 406f4de 


    R. M. Parrish, L. A. Burns, D. G. A. Smith, A. C. Simmonett,
    A. E. DePrince III, E. G. Hohenstein, U. Bozkaya, A. Yu. Sokolov,
    R. Di Remigio, R. M. Richard, J. F. Gonthier, A. M. James,
    H. R. McAlexander, A. Kumar, M. Saitow, X. Wang, B. P. Pritchard,
    P. Verma, H. F. Schaefer III, K. Patkowski, R. A. King, E. F. Valeev,
    F. A. Evangelista, J. M. Turney, T. D. Crawford, and C. D. Sherrill,
    J. Chem. Theory Comput. 13(7) pp 3185--3197 (2017).
    (doi: 10.1021/acs.jctc.7b00174)


                         Additional Contributions by
    P. Kraus, H. Kruse, M. H. Lechner, M. C. Schieber, and R. A. Shaw

    -----------------------------------------------------------------------


    Psi4 started on: Saturday, 29 September 2018 08:31PM

    Process ID: 26351
    Host:       oliva.prib.upf.edu
    PSIDATADIR: /shared/joao/test_parameterize/miniconda3/share/psi4
    Memory:     500.0 MiB
    Threads:    1
    
  ==> Input File <==

--------------------------------------------------------------------------
set_num_threads(4)
set_memory('3000 MB')

set { scf_mem_safety_factor 0.7 }

set { reference rks }
set { basis 6-31G* }

molecule MOL {
    1 1
    noreorient
    nocom
    symmetry c1
    C   -0.000000  -0.000000  -0.177864
    C    0.036678   1.219374   0.524165
    C    0.031765   1.213120   1.915444
    C    0.000000   0.000000   2.610107
    C   -0.031765  -1.213120   1.915444
    C   -0.036678  -1.219375   0.524165
    C   -0.000000   0.000000  -1.644734
    H    0.018170   2.164705  -0.010854
    H    0.042402   2.152895   2.457886
    H    0.000000   0.000000   3.695756
    H   -0.042402  -2.152895   2.457886
    H   -0.018170  -2.164705  -0.010853
    N   -0.712590  -0.905950  -2.308461
    N    0.712590   0.905950  -2.308460
    H    0.673432   1.006470  -3.315997
    H    1.377190   1.485970  -1.813316
    H   -1.722964  -0.857406  -2.300040
    H   -0.289980  -1.621096  -2.888748
}

set optking { frozen_dihedral = (" 1 7 13 17 ") }

set optking { dynamic_level = 1 
 geom_maxiter = 250
 print_trajectory_xyz_file = True }

energy, wfn = optimize('B3LYP-D3', return_wfn=True)

import os
os.chdir(os.environ['HTMD_PSI4_WORKDIR'])

oeprop(wfn, 'DIPOLE', 'QUADRUPOLE', 'MULLIKEN_CHARGES')

with open('psi4out.xyz', 'w') as f:
    f.write('18 ' )
    f.write('%.12f\n' % energy)
    f.write(MOL.save_string_xyz())
--------------------------------------------------------------------------
  Threads set to 4 by Python driver.

  Memory set to   2.794 GiB by Python driver.
gradient() will perform analytic gradient computation.

*** tstart() called on oliva.prib.upf.edu
*** at Sat Sep 29 20:31:37 2018

   => Loading Basis Set <=

    Name: 6-31G*
    Role: ORBITAL
    Keyword: BASIS
    atoms 1-7         entry C          line   111 file /shared/joao/test_parameterize/miniconda3/share/psi4/basis/6-31gs.gbs 
    atoms 8-12, 15-18 entry H          line    44 file /shared/joao/test_parameterize/miniconda3/share/psi4/basis/6-31gs.gbs 
    atoms 13-14       entry N          line   128 file /shared/joao/test_parameterize/miniconda3/share/psi4/basis/6-31gs.gbs 


         ---------------------------------------------------------
                                   SCF
            by Justin Turney, Rob Parrish, Andy Simmonett
                             and Daniel Smith
                              RKS Reference
                        4 Threads,   2861 MiB Core
         ---------------------------------------------------------

  ==> Geometry <==

    Molecular point group: c1
    Full point group: C1

    Geometry (in Angstrom), charge = 1, multiplicity = 1:

       Center              X                  Y                   Z               Mass       
    ------------   -----------------  -----------------  -----------------  -----------------
         C            0.000000000000     0.000000000000    -0.177864000000    12.000000000000
         C            0.036678000000     1.219374000000     0.524165000000    12.000000000000
         C            0.031765000000     1.213120000000     1.915444000000    12.000000000000
         C            0.000000000000     0.000000000000     2.610107000000    12.000000000000
         C           -0.031765000000    -1.213120000000     1.915444000000    12.000000000000
         C           -0.036678000000    -1.219375000000     0.524165000000    12.000000000000
         C            0.000000000000     0.000000000000    -1.644734000000    12.000000000000
         H            0.018170000000     2.164705000000    -0.010854000000     1.007825032070
         H            0.042402000000     2.152895000000     2.457886000000     1.007825032070
         H            0.000000000000     0.000000000000     3.695756000000     1.007825032070
         H           -0.042402000000    -2.152895000000     2.457886000000     1.007825032070
         H           -0.018170000000    -2.164705000000    -0.010853000000     1.007825032070
         N           -0.712590000000    -0.905950000000    -2.308461000000    14.003074004780
         N            0.712590000000     0.905950000000    -2.308460000000    14.003074004780
         H            0.673432000000     1.006470000000    -3.315997000000     1.007825032070
         H            1.377190000000     1.485970000000    -1.813316000000     1.007825032070
         H           -1.722964000000    -0.857406000000    -2.300040000000     1.007825032070
         H           -0.289980000000    -1.621096000000    -2.888748000000     1.007825032070

  Running in c1 symmetry.

  Rotational constants: A =      0.12116  B =      0.03954  C =      0.03134 [cm^-1]
  Rotational constants: A =   3632.16816  B =   1185.35066  C =    939.50445 [MHz]
  Nuclear repulsion =  416.587856920387935

  Charge       = 1
  Multiplicity = 1
  Electrons    = 64
  Nalpha       = 32
  Nbeta        = 32

  ==> Algorithm <==

  SCF Algorithm Type is DF.
  DIIS enabled.
  MOM disabled.
  Fractional occupation disabled.
  Guess Type is SAD.
  Energy threshold   = 1.00e-08
  Density threshold  = 1.00e-08
  Integral threshold = 0.00e+00

  ==> Primary Basis <==

  Basis Set: 6-31G*
    Blend: 6-31G*
    Number of shells: 72
    Number of basis function: 153
    Number of Cartesian functions: 153
    Spherical Harmonics?: false
    Max angular momentum: 2

  ==> DFT Potential <==

   => Composite Functional: B3LYP-D3ZERO <= 

    B3LYP-d3zero Hyb-GGA Exchange-Correlation Functional

    P. J. Stephens, F. J. Devlin, C. F. Chabalowski, and M. J. Frisch, J. Phys. Chem. 98, 11623 (1994)

    Deriv               =              1
    GGA                 =           TRUE
    Meta                =          FALSE

    Exchange Hybrid     =           TRUE
    MP2 Hybrid          =          FALSE

   => Exchange Functionals <=

    0.0800   Slater exchange
    0.7200         Becke 88

   => Exact (HF) Exchange <=

    0.2000               HF 

   => Correlation Functionals <=

    0.1900   Vosko, Wilk & Nusair (VWN5_RPA)
    0.8100   Lee, Yang & Parr

   => Molecular Quadrature <=

    Radial Scheme       =       TREUTLER
    Pruning Scheme      =           FLAT
    Nuclear Scheme      =       TREUTLER

    BS radius alpha     =              1
    Pruning alpha       =              1
    Radial Points       =             75
    Spherical Points    =            302
    Total Points        =         397105
    Total Blocks        =           3014
    Max Points          =            256
    Max Functions       =            149

   => -D3ZERO: Empirical Dispersion <=

    Grimme's -D3 (zero-damping) Dispersion Correction
    Grimme S.; Antony J.; Ehrlich S.; Krieg H. (2010), J. Chem. Phys., 132: 154104

        S6 =   1.000000E+00
        S8 =   1.703000E+00
       SR6 =   1.261000E+00
       SR8 =   1.000000E+00
    ALPHA6 =   1.400000E+01

   => Loading Basis Set <=

    Name: (6-31G* AUX)
    Role: JKFIT
    Keyword: DF_BASIS_SCF
    atoms 1-7         entry C          line   121 file /shared/joao/test_parameterize/miniconda3/share/psi4/basis/cc-pvdz-jkfit.gbs 
    atoms 8-12, 15-18 entry H          line    51 file /shared/joao/test_parameterize/miniconda3/share/psi4/basis/cc-pvdz-jkfit.gbs 
    atoms 13-14       entry N          line   171 file /shared/joao/test_parameterize/miniconda3/share/psi4/basis/cc-pvdz-jkfit.gbs 

  ==> Pre-Iterations <==

   -------------------------------------------------------
    Irrep   Nso     Nmo     Nalpha   Nbeta   Ndocc  Nsocc
   -------------------------------------------------------
     A        153     153       0       0       0       0
   -------------------------------------------------------
    Total     153     153      32      32      32       0
   -------------------------------------------------------

  ==> Integral Setup <==

  ==> DiskDFJK: Density-Fitted J/K Matrices <==

    J tasked:                  Yes
    K tasked:                  Yes
    wK tasked:                  No
    OpenMP threads:              4
    Integrals threads:           4
    Memory (MB):              2002
    Algorithm:                Core
    Integral Cache:           NONE
    Schwarz Cutoff:          1E-12
    Fitting Condition:       1E-12

   => Auxiliary Basis Set <=

  Basis Set: (6-31G* AUX)
    Blend: CC-PVDZ-JKFIT
    Number of shells: 297
    Number of basis function: 954
    Number of Cartesian functions: 954
    Spherical Harmonics?: false
    Max angular momentum: 3

  Minimum eigenvalue in the overlap matrix is 4.8718543537E-04.
  Using Symmetric Orthogonalization.

  SCF Guess: Superposition of Atomic Densities via on-the-fly atomic UHF.

  ==> Iterations <==

                           Total Energy        Delta E     RMS |[F,P]|

   @DF-RKS iter   0:  -379.61237127259523   -3.79612e+02   6.81829e-02 
   @DF-RKS iter   1:  -380.98976761369823   -1.37740e+00   1.20780e-02 
   @DF-RKS iter   2:  -380.79181957368559    1.97948e-01   1.43570e-02 DIIS
   @DF-RKS iter   3:  -381.41414615518693   -6.22327e-01   2.89124e-03 DIIS
   @DF-RKS iter   4:  -381.43668863408681   -2.25425e-02   9.47613e-04 DIIS
   @DF-RKS iter   5:  -381.43868714196924   -1.99851e-03   3.86509e-04 DIIS
   @DF-RKS iter   6:  -381.43909640120330   -4.09259e-04   1.09157e-04 DIIS
   @DF-RKS iter   7:  -381.43912922974999   -3.28285e-05   3.51227e-05 DIIS
   @DF-RKS iter   8:  -381.43913275674345   -3.52699e-06   7.68886e-06 DIIS
   @DF-RKS iter   9:  -381.43913291147481   -1.54731e-07   4.23606e-06 DIIS
   @DF-RKS iter  10:  -381.43913296556269   -5.40879e-08   6.90151e-07 DIIS
   @DF-RKS iter  11:  -381.43913296662106   -1.05837e-09   3.90891e-07 DIIS
   @DF-RKS iter  12:  -381.43913296712151   -5.00449e-10   9.00519e-08 DIIS
   @DF-RKS iter  13:  -381.43913296714982   -2.83080e-11   2.25739e-08 DIIS
   @DF-RKS iter  14:  -381.43913296715135   -1.53477e-12   8.38849e-09 DIIS

  ==> Post-Iterations <==

    Orbital Energies [Eh]
    ---------------------

    Doubly Occupied:                                                      

       1A    -14.580215     2A    -14.529000     3A    -10.495569  
       4A    -10.370241     5A    -10.357896     6A    -10.356444  
       7A    -10.347701     8A    -10.342080     9A    -10.341055  
      10A     -1.177084    11A     -1.081266    12A     -1.014531  
      13A     -0.924850    14A     -0.902836    15A     -0.840909  
      16A     -0.776783    17A     -0.767181    18A     -0.740641  
      19A     -0.722318    20A     -0.706516    21A     -0.670747  
      22A     -0.627531    23A     -0.606252    24A     -0.583647  
      25A     -0.577281    26A     -0.552702    27A     -0.518320  
      28A     -0.507412    29A     -0.498477    30A     -0.449314  
      31A     -0.415316    32A     -0.406266  

    Virtual:                                                              

      33A     -0.246860    34A     -0.155913    35A     -0.139412  
      36A     -0.096748    37A     -0.071864    38A     -0.047783  
      39A     -0.036884    40A     -0.006841    41A      0.006503  
      42A      0.008960    43A      0.022466    44A      0.055282  
      45A      0.060851    46A      0.094275    47A      0.134317  
      48A      0.139183    49A      0.156822    50A      0.159634  
      51A      0.209419    52A      0.242019    53A      0.299662  
      54A      0.356963    55A      0.358538    56A      0.382131  
      57A      0.396489    58A      0.400130    59A      0.414613  
      60A      0.424047    61A      0.441337    62A      0.449036  
      63A      0.454560    64A      0.470086    65A      0.472269  
      66A      0.483642    67A      0.490245    68A      0.508145  
      69A      0.529747    70A      0.544628    71A      0.551761  
      72A      0.582600    73A      0.619965    74A      0.630126  
      75A      0.668238    76A      0.685347    77A      0.694195  
      78A      0.702575    79A      0.712453    80A      0.725790  
      81A      0.732101    82A      0.741392    83A      0.771504  
      84A      0.777708    85A      0.808462    86A      0.824818  
      87A      0.851860    88A      0.902644    89A      0.952618  
      90A      0.966248    91A      0.994717    92A      1.018223  
      93A      1.048927    94A      1.079581    95A      1.133499  
      96A      1.143074    97A      1.249345    98A      1.274945  
      99A      1.280246   100A      1.310219   101A      1.321899  
     102A      1.340961   103A      1.360113   104A      1.389973  
     105A      1.430570   106A      1.491945   107A      1.537573  
     108A      1.559333   109A      1.627003   110A      1.665646  
     111A      1.712401   112A      1.728404   113A      1.750315  
     114A      1.774844   115A      1.808333   116A      1.827585  
     117A      1.893178   118A      1.944915   119A      1.970062  
     120A      1.976574   121A      1.996933   122A      2.007851  
     123A      2.021655   124A      2.028883   125A      2.118259  
     126A      2.130361   127A      2.153479   128A      2.192158  
     129A      2.232897   130A      2.346426   131A      2.368387  
     132A      2.405836   133A      2.448390   134A      2.453756  
     135A      2.486110   136A      2.512148   137A      2.558107  
     138A      2.583691   139A      2.599101   140A      2.627872  
     141A      2.734136   142A      2.842270   143A      2.979224  
     144A      3.256880   145A      3.622647   146A      3.695933  
     147A      3.912462   148A      3.944885   149A      3.962958  
     150A      4.042616   151A      4.172722   152A      4.251279  
     153A      4.545189  

    Final Occupation by Irrep:
              A 
    DOCC [    32 ]

  Energy converged.

  @DF-RKS Final Energy:  -381.43913296715135

   => Energetics <=

    Nuclear Repulsion Energy =            416.5878569203879351
    One-Electron Energy =               -1328.5267699988260119
    Two-Electron Energy =                 574.9213874007890581
    DFT Exchange-Correlation Energy =     -44.4097439495023210
    Empirical Dispersion Energy =          -0.0118633400000000
    VV10 Nonlocal Energy =                  0.0000000000000000
    Total Energy =                       -381.4391329671513517



Properties will be evaluated at   0.000000,   0.000000,   0.000000 [a0]

Properties computed using the SCF density matrix

  Nuclear Dipole Moment: [e a0]
     X:     0.0712      Y:     0.0263      Z:    -0.0876

  Electronic Dipole Moment: [e a0]
     X:     0.1157      Y:     0.1364      Z:    -1.9816

  Dipole Moment: [e a0]
     X:     0.1869      Y:     0.1627      Z:    -2.0692     Total:     2.0840

  Dipole Moment: [D]
     X:     0.4751      Y:     0.4136      Z:    -5.2595     Total:     5.2970


*** tstop() called on oliva.prib.upf.edu at Sat Sep 29 20:32:06 2018
Module time:
	user time   =     100.30 seconds =       1.67 minutes
	system time =       0.86 seconds =       0.01 minutes
	total time  =         29 seconds =       0.48 minutes
Total time:
	user time   =     100.30 seconds =       1.67 minutes
	system time =       0.86 seconds =       0.01 minutes
	total time  =         29 seconds =       0.48 minutes

*** tstart() called on oliva.prib.upf.edu
*** at Sat Sep 29 20:32:06 2018


         ------------------------------------------------------------
                                   SCF GRAD                          
                          Rob Parrish, Justin Turney,                
                       Andy Simmonett, and Alex Sokolov              
         ------------------------------------------------------------

  ==> Geometry <==

    Molecular point group: c1
    Full point group: C1

    Geometry (in Angstrom), charge = 1, multiplicity = 1:

       Center              X                  Y                   Z               Mass       
    ------------   -----------------  -----------------  -----------------  -----------------
         C            0.000000000000     0.000000000000    -0.177864000000    12.000000000000
         C            0.036678000000     1.219374000000     0.524165000000    12.000000000000
         C            0.031765000000     1.213120000000     1.915444000000    12.000000000000
         C            0.000000000000     0.000000000000     2.610107000000    12.000000000000
         C           -0.031765000000    -1.213120000000     1.915444000000    12.000000000000
         C           -0.036678000000    -1.219375000000     0.524165000000    12.000000000000
         C            0.000000000000     0.000000000000    -1.644734000000    12.000000000000
         H            0.018170000000     2.164705000000    -0.010854000000     1.007825032070
         H            0.042402000000     2.152895000000     2.457886000000     1.007825032070
         H            0.000000000000     0.000000000000     3.695756000000     1.007825032070
         H           -0.042402000000    -2.152895000000     2.457886000000     1.007825032070
         H           -0.018170000000    -2.164705000000    -0.010853000000     1.007825032070
         N           -0.712590000000    -0.905950000000    -2.308461000000    14.003074004780
         N            0.712590000000     0.905950000000    -2.308460000000    14.003074004780
         H            0.673432000000     1.006470000000    -3.315997000000     1.007825032070
         H            1.377190000000     1.485970000000    -1.813316000000     1.007825032070
         H           -1.722964000000    -0.857406000000    -2.300040000000     1.007825032070
         H           -0.289980000000    -1.621096000000    -2.888748000000     1.007825032070

  Nuclear repulsion =  416.587856920387935

  ==> Basis Set <==

  Basis Set: 6-31G*
    Blend: 6-31G*
    Number of shells: 72
    Number of basis function: 153
    Number of Cartesian functions: 153
    Spherical Harmonics?: false
    Max angular momentum: 2

  ==> DFJKGrad: Density-Fitted SCF Gradients <==

    Gradient:                    1
    J tasked:                  Yes
    K tasked:                  Yes
    wK tasked:                  No
    OpenMP threads:              4
    Integrals threads:           4
    Memory (MB):              2002
    Schwarz Cutoff:          0E+00
    Fitting Condition:       1E-12

   => Auxiliary Basis Set <=

  Basis Set: (6-31G* AUX)
    Blend: CC-PVDZ-JKFIT
    Number of shells: 297
    Number of basis function: 954
    Number of Cartesian functions: 954
    Spherical Harmonics?: false
    Max angular momentum: 3

  ==> DFT Potential <==

   => Composite Functional: B3LYP-D3ZERO <= 

    B3LYP-d3zero Hyb-GGA Exchange-Correlation Functional

    P. J. Stephens, F. J. Devlin, C. F. Chabalowski, and M. J. Frisch, J. Phys. Chem. 98, 11623 (1994)

    Deriv               =              1
    GGA                 =           TRUE
    Meta                =          FALSE

    Exchange Hybrid     =           TRUE
    MP2 Hybrid          =          FALSE

   => Exchange Functionals <=

    0.0800   Slater exchange
    0.7200         Becke 88

   => Exact (HF) Exchange <=

    0.2000               HF 

   => Correlation Functionals <=

    0.1900   Vosko, Wilk & Nusair (VWN5_RPA)
    0.8100   Lee, Yang & Parr

   => Molecular Quadrature <=

    Radial Scheme       =       TREUTLER
    Pruning Scheme      =           FLAT
    Nuclear Scheme      =       TREUTLER

    BS radius alpha     =              1
    Pruning alpha       =              1
    Radial Points       =             75
    Spherical Points    =            302
    Total Points        =         397105
    Total Blocks        =           3014
    Max Points          =            256
    Max Functions       =            149


  -Total Gradient:
     Atom            X                  Y                   Z
    ------   -----------------  -----------------  -----------------
       1        0.004253483873    -0.010715666475     0.010081519402
       2       -0.001562148534    -0.002035934474    -0.006766382904
       3       -0.000495153630    -0.003245454218     0.002082592569
       4        0.000063523494     0.000602536196    -0.000244859331
       5       -0.001211935356     0.000627234191     0.001641564763
       6        0.001612505773     0.004452607284    -0.001248657050
       7       -0.018479720314    -0.025419142174    -0.025039010499
       8        0.000486219995    -0.000173222833     0.000072013170
       9        0.000217200060     0.000042188889    -0.000285017104
      10        0.000263059668    -0.000091813513    -0.000111035644
      11       -0.000112845592    -0.000008346079     0.000033228486
      12        0.002233355228    -0.001649994646     0.000983048748
      13        0.015910156890     0.026827282222     0.024890843529
      14       -0.003521603470     0.009280486279    -0.006599177215
      15        0.002741251034     0.002757081559     0.001865107433
      16       -0.003424497736    -0.001622086151    -0.000631835160
      17        0.000675739903     0.009651618999    -0.010998626634
      18        0.000351548293    -0.009272591328     0.010275600725


*** tstop() called on oliva.prib.upf.edu at Sat Sep 29 20:32:14 2018
Module time:
	user time   =      30.36 seconds =       0.51 minutes
	system time =       0.26 seconds =       0.00 minutes
	total time  =          8 seconds =       0.13 minutes
Total time:
	user time   =     130.71 seconds =       2.18 minutes
	system time =       1.13 seconds =       0.02 minutes
	total time  =         37 seconds =       0.62 minutes

			-----------------------------------------
			 OPTKING 2.0: for geometry optimizations 
			  - R.A. King,  Bethel University        
			-----------------------------------------
	At level 1: Red. Int., RFO, no backsteps, dynamic trust

	Internal coordinates to be generated automatically.
	Detected frag 1 with atoms:  1 2 3 4 5 6 7 8 9 10 11 12 13 14 15 16 17 18
	---Fragment 1 Bond Connectivity---
	 1 : 2 6 7
	 2 : 1 3 8
	 3 : 2 4 9
	 4 : 3 5 10
	 5 : 4 6 11
	 6 : 1 5 12
	 7 : 1 13 14
	 8 : 2
	 9 : 3
	 10 : 4
	 11 : 5
	 12 : 6
	 13 : 7 17 18
	 14 : 7 15 16
	 15 : 14
	 16 : 14
	 17 : 13
	 18 : 13

	Assuming in current code that numbering for constraints corresponds to unified fragment.
	Frozen dihedral atom list: 
	     1     7    13    17
	---Fragment 1 Geometry and Gradient---
	 C           0.0000000000        0.0000000000       -0.3361142489
	 C           0.0693113751        2.3042829136        0.9905282984
	 C           0.0600271506        2.2924645663        3.6196645829
	 C           0.0000000000        0.0000000000        4.9323874075
	 C          -0.0600271506       -2.2924645663        3.6196645829
	 C          -0.0693113751       -2.3042848033        0.9905282984
	 C           0.0000000000        0.0000000000       -3.1080968214
	 H           0.0343363238        4.0906996085       -0.0205110874
	 H           0.0801281675        4.0683819429        4.6447314059
	 H           0.0000000000        0.0000000000        6.9839666940
	 H          -0.0801281675       -4.0683819429        4.6447314059
	 H          -0.0343363238       -4.0906996085       -0.0205091977
	 N          -1.3465999450       -1.7119973901       -4.3623590784
	 N           1.3465999450        1.7119973901       -4.3623571887
	 H           1.2726020491        1.9019526610       -6.2663261875
	 H           2.6025119329        2.8080763417       -3.4266706324
	 H          -3.2559300968       -1.6202625247       -4.3464456947
	 H          -0.5479827840       -3.0634274751       -5.4589425869
	             0.0042534839       -0.0107156665        0.0100815194
	            -0.0015621485       -0.0020359345       -0.0067663829
	            -0.0004951536       -0.0032454542        0.0020825926
	             0.0000635235        0.0006025362       -0.0002448593
	            -0.0012119354        0.0006272342        0.0016415648
	             0.0016125058        0.0044526073       -0.0012486570
	            -0.0184797203       -0.0254191422       -0.0250390105
	             0.0004862200       -0.0001732228        0.0000720132
	             0.0002172001        0.0000421889       -0.0002850171
	             0.0002630597       -0.0000918135       -0.0001110356
	            -0.0001128456       -0.0000083461        0.0000332285
	             0.0022333552       -0.0016499946        0.0009830487
	             0.0159101569        0.0268272822        0.0248908435
	            -0.0035216035        0.0092804863       -0.0065991772
	             0.0027412510        0.0027570816        0.0018651074
	            -0.0034244977       -0.0016220862       -0.0006318352
	             0.0006757399        0.0096516190       -0.0109986266
	             0.0003515483       -0.0092725913        0.0102756007

	Previous optimization step data not found.  Starting new optimization.

	---Fragment 1 Intrafragment Coordinates---
	 - Coordinate -           - BOHR/RAD -       - ANG/DEG -
	 R(1,2)           =         2.659794	       1.407502
	 R(1,6)           =         2.659796	       1.407503
	 R(1,7)           =         2.771983	       1.466870
	 R(2,3)           =         2.629179	       1.391302
	 R(2,8)           =         2.052976	       1.086388
	 R(3,4)           =         2.642393	       1.398294
	 R(3,9)           =         2.050622	       1.085142
	 R(4,5)           =         2.642393	       1.398294
	 R(4,10)          =         2.051579	       1.085649
	 R(5,6)           =         2.629179	       1.391302
	 R(5,11)          =         2.050622	       1.085142
	 R(6,12)          =         2.052973	       1.086386
	 R(7,13)          =         2.513452	       1.330061
	 R(7,14)          =         2.513451	       1.330061
	 R(13,17)         =         1.911599	       1.011575
	 R(13,18)         =         1.914849	       1.013295
	 R(14,15)         =         1.914852	       1.013296
	 R(14,16)         =         1.911600	       1.011575
	 B(1,2,3)         =         2.088380	     119.655376
	 B(1,2,8)         =         2.103396	     120.515689
	 B(1,6,5)         =         2.088379	     119.655315
	 B(1,6,12)        =         2.103396	     120.515729
	 B(1,7,13)        =         2.093264	     119.935172
	 B(1,7,14)        =         2.093263	     119.935135
	 B(2,1,6)         =         2.097220	     120.161857
	 B(2,1,7)         =         2.092983	     119.919082
	 B(2,3,4)         =         2.095279	     120.050636
	 B(2,3,9)         =         2.089719	     119.732108
	 B(3,2,8)         =         2.090149	     119.756722
	 B(3,4,5)         =         2.101793	     120.423859
	 B(3,4,10)        =         2.090696	     119.788070
	 B(4,3,9)         =         2.098135	     120.214297
	 B(4,5,6)         =         2.095280	     120.050677
	 B(4,5,11)        =         2.098135	     120.214297
	 B(5,4,10)        =         2.090696	     119.788070
	 B(5,6,12)        =         2.090149	     119.756743
	 B(6,1,7)         =         2.092982	     119.919061
	 B(6,5,11)        =         2.089719	     119.732067
	 B(7,13,17)       =         2.092411	     119.886308
	 B(7,13,18)       =         2.144860	     122.891435
	 B(7,14,15)       =         2.144860	     122.891405
	 B(7,14,16)       =         2.092412	     119.886393
	 B(13,7,14)       =         2.096659	     120.129694
	 B(15,14,16)      =         2.043399	     117.078146
	 B(17,13,18)      =         2.043400	     117.078199
	 D(1,2,3,4)       =         0.007799	       0.446825
	 D(1,2,3,9)       =        -3.122896	    -178.928735
	 D(1,6,5,4)       =         0.007799	       0.446822
	 D(1,6,5,11)      =        -3.122896	    -178.928737
	*D(1,7,13,17)     =         1.221730	      69.999964
	 D(1,7,13,18)     =        -1.998279	    -114.492957
	 D(1,7,14,15)     =        -3.032165	    -173.730230
	 D(1,7,14,16)     =         0.187844	      10.762681
	 D(2,1,6,5)       =        -0.003906	      -0.223802
	 D(2,1,6,12)      =        -3.091437	    -177.126283
	 D(2,1,7,13)      =        -2.505167	    -143.535494
	 D(2,1,7,14)      =         0.636426	      36.464506
	 D(2,3,4,5)       =        -0.003942	      -0.225875
	 D(2,3,4,10)      =         3.137650	     179.774125
	 D(3,2,1,6)       =        -0.003906	      -0.223806
	 D(3,2,1,7)       =         3.137687	     179.776196
	 D(3,4,5,6)       =        -0.003942	      -0.225874
	 D(3,4,5,11)      =         3.126699	     179.146646
	 D(4,3,2,8)       =         3.095744	     177.373058
	 D(4,5,6,12)      =         3.095744	     177.373055
	 D(5,4,3,9)       =         3.126699	     179.146646
	 D(5,6,1,7)       =         3.137687	     179.776197
	 D(6,1,2,8)       =        -3.091437	    -177.126287
	 D(6,1,7,13)      =         0.636426	      36.464508
	 D(6,1,7,14)      =        -2.505167	    -143.535492
	 D(6,5,4,10)      =         3.137650	     179.774126
	 D(7,1,2,8)       =         0.050156	       2.873714
	 D(7,1,6,12)      =         0.050156	       2.873716
	 D(8,2,3,9)       =        -0.034950	      -2.002503
	 D(9,3,4,10)      =        -0.014894	      -0.853354
	 D(10,4,5,11)     =        -0.014894	      -0.853354
	 D(11,5,6,12)     =        -0.034950	      -2.002504
	 D(13,7,14,15)    =         0.109428	       6.269770
	 D(13,7,14,16)    =        -2.953748	    -169.237319
	 D(14,7,13,17)    =        -1.919863	    -110.000036
	 D(14,7,13,18)    =         1.143314	      65.507043

	Current energy   :      -381.4391329672

	Generating empirical Hessian (Schlegel '84) for each fragment.
	Taking RFO optimization step.
	Going to follow RFO solution 1.
	Using RFO vector 1.

	Determining step-restricting scale parameter for RS-RFO.
	Maximum step size allowed    0.50000

	 Iter      |step|        alpha        rfo_root  
	------------------------------------------------
	    0     0.57632       1.00000           1
	    1     0.51288       1.40098           1
	    2     0.50048       1.49839           1
	    3     0.50000       1.50230           1
	------------------------------------------------
	Norm of target step-size    0.50000
	Projected energy change by RFO approximation:        -0.0180368543

	Back-transformation to cartesian coordinates...
	Could not converge backtransformation.
	Using first guess instead.

	Back-transformation to cartesian coordinates to adjust frozen coordinates...
	Successfully converged to displaced geometry.

	--- Internal Coordinate Step in ANG or DEG, aJ/ANG or AJ/DEG ---
	 ---------------------------------------------------------------------------
	   Coordinate                Previous        Force       Change         New 
	   ----------                --------       ------       ------       ------
	    1 R(1,2)          =      1.407502     0.042798     0.006975     1.414477
	    2 R(1,6)          =      1.407503     0.009205     0.001923     1.409426
	    3 R(1,7)          =      1.466870    -0.051389    -0.008508     1.458362
	    4 R(2,3)          =      1.391302    -0.015991    -0.001724     1.389577
	    5 R(2,8)          =      1.086388     0.001605     0.000481     1.086869
	    6 R(3,4)          =      1.398294     0.015157     0.002302     1.400596
	    7 R(3,9)          =      1.085142     0.000858     0.000861     1.086003
	    8 R(4,5)          =      1.398294     0.014034     0.003003     1.401297
	    9 R(4,10)         =      1.085649     0.000915     0.000380     1.086029
	   10 R(5,6)          =      1.391302    -0.009667    -0.000793     1.390509
	   11 R(5,11)         =      1.085142    -0.000208     0.000355     1.085497
	   12 R(6,12)         =      1.086386    -0.008157     0.000994     1.087380
	   13 R(7,13)         =      1.330061     0.326791     0.040834     1.370896
	   14 R(7,14)         =      1.330061    -0.061946    -0.006414     1.323647
	   15 R(13,17)        =      1.011575     0.002501     0.008132     1.019707
	   16 R(13,18)        =      1.013295    -0.006646     0.028301     1.041595
	   17 R(14,15)        =      1.013296     0.013899     0.003998     1.017293
	   18 R(14,16)        =      1.011575     0.028746     0.004641     1.016216
	   19 B(1,2,3)        =    119.655376     0.000031     0.144266   119.799642
	   20 B(1,2,8)        =    120.515689    -0.000016    -0.048079   120.467610
	   21 B(1,6,5)        =    119.655315    -0.000038    -0.187280   119.468035
	   22 B(1,6,12)       =    120.515729    -0.000107    -0.421990   120.093740
	   23 B(1,7,13)       =    119.935172     0.000594     1.465797   121.400969
	   24 B(1,7,14)       =    119.935135    -0.000107    -0.294042   119.641092
	   25 B(2,1,6)        =    120.161857    -0.000014     0.016814   120.178671
	   26 B(2,1,7)        =    119.919082     0.000447     1.238668   121.157749
	   27 B(2,3,4)        =    120.050636    -0.000088    -0.307957   119.742679
	   28 B(2,3,9)        =    119.732108     0.000065     0.244903   119.977011
	   29 B(3,2,8)        =    119.756722    -0.000016    -0.094358   119.662364
	   30 B(3,4,5)        =    120.423859     0.000084     0.242665   120.666525
	   31 B(3,4,10)       =    119.788070    -0.000048    -0.170113   119.617957
	   32 B(4,3,9)        =    120.214297     0.000023     0.061759   120.276056
	   33 B(4,5,6)        =    120.050677     0.000026     0.078069   120.128746
	   34 B(4,5,11)       =    120.214297    -0.000011     0.017963   120.232260
	   35 B(5,4,10)       =    119.788070    -0.000035    -0.074364   119.713706
	   36 B(5,6,12)       =    119.756743     0.000147     0.638452   120.395195
	   37 B(6,1,7)        =    119.919061    -0.000433    -1.255546   118.663516
	   38 B(6,5,11)       =    119.732067    -0.000015    -0.093103   119.638963
	   39 B(7,13,17)      =    119.886308     0.000163     0.637233   120.523541
	   40 B(7,13,18)      =    122.891435    -0.000152    -2.144925   120.746510
	   41 B(7,14,15)      =    122.891405    -0.000437    -1.884970   121.006435
	   42 B(7,14,16)      =    119.886393     0.000290     1.164056   121.050449
	   43 B(13,7,14)      =    120.129694    -0.000488    -1.501134   118.628560
	   44 B(15,14,16)     =    117.078146     0.000142     0.608751   117.686897
	   45 B(17,13,18)     =    117.078199    -0.000054    -0.197763   116.880436
	   46 D(1,2,3,4)      =      0.446825    -0.000000    -0.052098     0.394727
	   47 D(1,2,3,9)      =   -178.928735     0.000001     0.071701  -178.857034
	   48 D(1,6,5,4)      =      0.446822     0.000010     0.834173     1.280995
	   49 D(1,6,5,11)     =   -178.928737     0.000002     0.146426  -178.782311
	   50 *D(1,7,13,17)   =     69.999964    -0.000000     0.000000    69.999964
	   51 D(1,7,13,18)    =   -114.492957    -0.000155   -11.471194  -125.964151
	   52 D(1,7,14,15)    =   -173.730230    -0.000039    -3.325344  -177.055574
	   53 D(1,7,14,16)    =     10.762681    -0.000020    -1.868761     8.893920
	   54 D(2,1,6,5)      =     -0.223802    -0.000013    -1.194918    -1.418720
	   55 D(2,1,6,12)     =   -177.126283    -0.000022    -1.916326  -179.042609
	   56 D(2,1,7,13)     =   -143.535494    -0.000085    -8.606710  -152.142204
	   57 D(2,1,7,14)     =     36.464506    -0.000008    -1.925506    34.539000
	   58 D(2,3,4,5)      =     -0.225875    -0.000003    -0.310359    -0.536234
	   59 D(2,3,4,10)     =    179.774125     0.000002     0.180674   179.954798
	   60 D(3,2,1,6)      =     -0.223806     0.000009     0.803849     0.580043
	   61 D(3,2,1,7)      =    179.776196     0.000007     0.710775   180.486971
	   62 D(3,4,5,6)      =     -0.225874    -0.000001    -0.086540    -0.312415
	   63 D(3,4,5,11)     =    179.146646     0.000006     0.604624   179.751270
	   64 D(4,3,2,8)      =    177.373058    -0.000000    -0.014424   177.358634
	   65 D(4,5,6,12)     =    177.373055     0.000017     1.524525   178.897580
	   66 D(5,4,3,9)      =    179.146646    -0.000005    -0.433389   178.713257
	   67 D(5,6,1,7)      =    179.776197    -0.000012    -1.104146   178.672051
	   68 D(6,1,2,8)      =   -177.126287     0.000009     0.767248  -176.359039
	   69 D(6,1,7,13)     =     36.464508    -0.000087    -8.698406    27.766101
	   70 D(6,1,7,14)     =   -143.535492    -0.000010    -2.017202  -145.552694
	   71 D(6,5,4,10)     =    179.774126    -0.000007    -0.578040   179.196085
	   72 D(7,1,2,8)      =      2.873714     0.000007     0.674174     3.547888
	   73 D(7,1,6,12)     =      2.873716    -0.000021    -1.825555     1.048161
	   74 D(8,2,3,9)      =     -2.002503     0.000001     0.109376    -1.893127
	   75 D(9,3,4,10)     =     -0.853354     0.000000     0.057643    -0.795710
	   76 D(10,4,5,11)    =     -0.853354     0.000001     0.113124    -0.740230
	   77 D(11,5,6,12)    =     -2.002504     0.000009     0.836778    -1.165726
	   78 D(13,7,14,15)   =      6.269770     0.000038     3.170833     9.440603
	   79 D(13,7,14,16)   =   -169.237319     0.000057     4.627416  -164.609903
	   80 D(14,7,13,17)   =   -110.000036    -0.000077    -6.615420  -116.615456
	   81 D(14,7,13,18)   =     65.507043    -0.000232   -18.086614    47.420429
	 ---------------------------------------------------------------------------
	Successfully symmetrized geometry.

  ==> Convergence Check <==

  Measures of convergence in internal coordinates in au.
  Criteria marked as inactive (o), active & met (*), and active & unmet ( ).
  --------------------------------------------------------------------------------------------- ~
   Step     Total Energy     Delta E     MAX Force     RMS Force      MAX Disp      RMS Disp    ~
  --------------------------------------------------------------------------------------------- ~
    Convergence Criteria    1.00e-06 *    3.00e-04 *             o    1.20e-03 *             o  ~
  --------------------------------------------------------------------------------------------- ~
      1    -381.43913297   -3.81e+02      3.97e-02      5.35e-03 o    3.16e-01      5.39e-02 o  ~
  ---------------------------------------------------------------------------------------------

	Writing optimization data to binary file.
	Structure for next step:
	Cartesian Geometry (in Angstrom)
	    C    -0.0273247223   0.0317569234  -0.1641856186
	    C     0.0588939698   1.2474126092   0.5537933950
	    C     0.0809760256   1.2288450737   1.9430710993
	    C     0.0260271327   0.0053630415   2.6225858606
	    C    -0.0623529323  -1.2013966752   1.9157956990
	    C    -0.1030408012  -1.1948376723   0.5258973787
	    C    -0.0420218249   0.0160712698  -1.6223891134
	    H     0.0580878870   2.1989273518   0.0285288032
	    H     0.1283778712   2.1614431679   2.4975229093
	    H     0.0441573135  -0.0068284549   3.7083946326
	    H    -0.1004634040  -2.1458572649   2.4495043183
	    H    -0.1535882273  -2.1295299682  -0.0274480478
	    N    -0.6621864124  -0.9881858031  -2.3196832527
	    N     0.6639484851   0.9120599627  -2.2938434501
	    H     0.6339156632   0.9483510935  -3.3100455587
	    H     1.3201919540   1.5254382462  -1.8186513814
	    H    -1.6789429847  -1.0656637711  -2.3220130925
	    H    -0.1469769931  -1.5294321300  -3.0453085807
			--------------------------
			 OPTKING Finished Execution 
			--------------------------

    Structure for next step:
    Molecular point group: c1
    Full point group: C1

    Geometry (in Angstrom), charge = 1, multiplicity = 1:

    C           -0.027324722312     0.031756923370    -0.164185618618
    C            0.058893969811     1.247412609210     0.553793395028
    C            0.080976025617     1.228845073750     1.943071099292
    C            0.026027132685     0.005363041512     2.622585860586
    C           -0.062352932334    -1.201396675171     1.915795698971
    C           -0.103040801201    -1.194837672348     0.525897378712
    C           -0.042021824872     0.016071269800    -1.622389113352
    H            0.058087887026     2.198927351828     0.028528803237
    H            0.128377871218     2.161443167903     2.497522909269
    H            0.044157313521    -0.006828454879     3.708394632627
    H           -0.100463404040    -2.145857264916     2.449504318262
    H           -0.153588227298    -2.129529968245    -0.027448047782
    N           -0.662186412391    -0.988185803064    -2.319683252741
    N            0.663948485114     0.912059962702    -2.293843450091
    H            0.633915663239     0.948351093452    -3.310045558741
    H            1.320191954035     1.525438246190    -1.818651381435
    H           -1.678942984732    -1.065663771112    -2.322013092549
    H           -0.146976993087    -1.529432129983    -3.045308580675

gradient() will perform analytic gradient computation.

*** tstart() called on oliva.prib.upf.edu
*** at Sat Sep 29 20:32:15 2018

   => Loading Basis Set <=

    Name: 6-31G*
    Role: ORBITAL
    Keyword: BASIS
    atoms 1-7         entry C          line   111 file /shared/joao/test_parameterize/miniconda3/share/psi4/basis/6-31gs.gbs 
    atoms 8-12, 15-18 entry H          line    44 file /shared/joao/test_parameterize/miniconda3/share/psi4/basis/6-31gs.gbs 
    atoms 13-14       entry N          line   128 file /shared/joao/test_parameterize/miniconda3/share/psi4/basis/6-31gs.gbs 


         ---------------------------------------------------------
                                   SCF
            by Justin Turney, Rob Parrish, Andy Simmonett
                             and Daniel Smith
                              RKS Reference
                        4 Threads,   2861 MiB Core
         ---------------------------------------------------------

  ==> Geometry <==

    Molecular point group: c1
    Full point group: C1

    Geometry (in Angstrom), charge = 1, multiplicity = 1:

       Center              X                  Y                   Z               Mass       
    ------------   -----------------  -----------------  -----------------  -----------------
         C           -0.027324722312     0.031756923370    -0.164185618618    12.000000000000
         C            0.058893969811     1.247412609210     0.553793395028    12.000000000000
         C            0.080976025617     1.228845073750     1.943071099292    12.000000000000
         C            0.026027132685     0.005363041512     2.622585860586    12.000000000000
         C           -0.062352932334    -1.201396675171     1.915795698971    12.000000000000
         C           -0.103040801201    -1.194837672348     0.525897378712    12.000000000000
         C           -0.042021824872     0.016071269800    -1.622389113352    12.000000000000
         H            0.058087887026     2.198927351828     0.028528803237     1.007825032070
         H            0.128377871218     2.161443167903     2.497522909269     1.007825032070
         H            0.044157313521    -0.006828454879     3.708394632627     1.007825032070
         H           -0.100463404040    -2.145857264916     2.449504318262     1.007825032070
         H           -0.153588227298    -2.129529968245    -0.027448047782     1.007825032070
         N           -0.662186412391    -0.988185803064    -2.319683252741    14.003074004780
         N            0.663948485114     0.912059962702    -2.293843450091    14.003074004780
         H            0.633915663239     0.948351093452    -3.310045558741     1.007825032070
         H            1.320191954035     1.525438246190    -1.818651381435     1.007825032070
         H           -1.678942984732    -1.065663771112    -2.322013092549     1.007825032070
         H           -0.146976993087    -1.529432129983    -3.045308580675     1.007825032070

  Running in c1 symmetry.

  Rotational constants: A =      0.12065  B =      0.03956  C =      0.03098 [cm^-1]
  Rotational constants: A =   3617.07812  B =   1185.94387  C =    928.66788 [MHz]
  Nuclear repulsion =  415.405037501087236

  Charge       = 1
  Multiplicity = 1
  Electrons    = 64
  Nalpha       = 32
  Nbeta        = 32

  ==> Algorithm <==

  SCF Algorithm Type is DF.
  DIIS enabled.
  MOM disabled.
  Fractional occupation disabled.
  Guess Type is READ.
  Energy threshold   = 1.00e-08
  Density threshold  = 1.00e-08
  Integral threshold = 0.00e+00

  ==> Primary Basis <==

  Basis Set: 6-31G*
    Blend: 6-31G*
    Number of shells: 72
    Number of basis function: 153
    Number of Cartesian functions: 153
    Spherical Harmonics?: false
    Max angular momentum: 2

  ==> DFT Potential <==

   => Composite Functional: B3LYP-D3ZERO <= 

    B3LYP-d3zero Hyb-GGA Exchange-Correlation Functional

    P. J. Stephens, F. J. Devlin, C. F. Chabalowski, and M. J. Frisch, J. Phys. Chem. 98, 11623 (1994)

    Deriv               =              1
    GGA                 =           TRUE
    Meta                =          FALSE

    Exchange Hybrid     =           TRUE
    MP2 Hybrid          =          FALSE

   => Exchange Functionals <=

    0.0800   Slater exchange
    0.7200         Becke 88

   => Exact (HF) Exchange <=

    0.2000               HF 

   => Correlation Functionals <=

    0.1900   Vosko, Wilk & Nusair (VWN5_RPA)
    0.8100   Lee, Yang & Parr

   => Molecular Quadrature <=

    Radial Scheme       =       TREUTLER
    Pruning Scheme      =           FLAT
    Nuclear Scheme      =       TREUTLER

    BS radius alpha     =              1
    Pruning alpha       =              1
    Radial Points       =             75
    Spherical Points    =            302
    Total Points        =         397072
    Total Blocks        =           3009
    Max Points          =            256
    Max Functions       =            149

   => -D3ZERO: Empirical Dispersion <=

    Grimme's -D3 (zero-damping) Dispersion Correction
    Grimme S.; Antony J.; Ehrlich S.; Krieg H. (2010), J. Chem. Phys., 132: 154104

        S6 =   1.000000E+00
        S8 =   1.703000E+00
       SR6 =   1.261000E+00
       SR8 =   1.000000E+00
    ALPHA6 =   1.400000E+01

   => Loading Basis Set <=

    Name: (6-31G* AUX)
    Role: JKFIT
    Keyword: DF_BASIS_SCF
    atoms 1-7         entry C          line   121 file /shared/joao/test_parameterize/miniconda3/share/psi4/basis/cc-pvdz-jkfit.gbs 
    atoms 8-12, 15-18 entry H          line    51 file /shared/joao/test_parameterize/miniconda3/share/psi4/basis/cc-pvdz-jkfit.gbs 
    atoms 13-14       entry N          line   171 file /shared/joao/test_parameterize/miniconda3/share/psi4/basis/cc-pvdz-jkfit.gbs 

  Reading orbitals from file 180, no projection.

  ==> Pre-Iterations <==

   -------------------------------------------------------
    Irrep   Nso     Nmo     Nalpha   Nbeta   Ndocc  Nsocc
   -------------------------------------------------------
     A        153     153       0       0       0       0
   -------------------------------------------------------
    Total     153     153      32      32      32       0
   -------------------------------------------------------

  ==> Integral Setup <==

  ==> DiskDFJK: Density-Fitted J/K Matrices <==

    J tasked:                  Yes
    K tasked:                  Yes
    wK tasked:                  No
    OpenMP threads:              4
    Integrals threads:           4
    Memory (MB):              2002
    Algorithm:                Core
    Integral Cache:           NONE
    Schwarz Cutoff:          1E-12
    Fitting Condition:       1E-12

   => Auxiliary Basis Set <=

  Basis Set: (6-31G* AUX)
    Blend: CC-PVDZ-JKFIT
    Number of shells: 297
    Number of basis function: 954
    Number of Cartesian functions: 954
    Spherical Harmonics?: false
    Max angular momentum: 3

  Minimum eigenvalue in the overlap matrix is 4.9285392867E-04.
  Using Symmetric Orthogonalization.

  SCF Guess: Orbitals guess was supplied from a previous computation.

  ==> Iterations <==

                           Total Energy        Delta E     RMS |[F,P]|

   @DF-RKS iter   0:  -381.39056670432331   -3.81391e+02   2.70343e-03 
   @DF-RKS iter   1:  -381.44735013529896   -5.67834e-02   3.90970e-04 
   @DF-RKS iter   2:  -381.44727823102261    7.19043e-05   4.69464e-04 DIIS
   @DF-RKS iter   3:  -381.44791771834144   -6.39487e-04   8.69336e-05 DIIS
   @DF-RKS iter   4:  -381.44793329360510   -1.55753e-05   5.23955e-05 DIIS
   @DF-RKS iter   5:  -381.44794135297826   -8.05937e-06   1.62628e-05 DIIS
   @DF-RKS iter   6:  -381.44794216789177   -8.14914e-07   4.55736e-06 DIIS
   @DF-RKS iter   7:  -381.44794223311379   -6.52220e-08   1.15799e-06 DIIS
   @DF-RKS iter   8:  -381.44794223611927   -3.00548e-09   5.66160e-07 DIIS
   @DF-RKS iter   9:  -381.44794223717395   -1.05467e-09   1.91343e-07 DIIS
   @DF-RKS iter  10:  -381.44794223727826   -1.04308e-10   6.01314e-08 DIIS
   @DF-RKS iter  11:  -381.44794223728928   -1.10276e-11   9.03915e-09 DIIS

  ==> Post-Iterations <==

    Orbital Energies [Eh]
    ---------------------

    Doubly Occupied:                                                      

       1A    -14.578274     2A    -14.539783     3A    -10.495535  
       4A    -10.371859     5A    -10.359398     6A    -10.355960  
       7A    -10.348628     8A    -10.343061     9A    -10.340968  
      10A     -1.173411    11A     -1.072211    12A     -1.014057  
      13A     -0.925456    14A     -0.903081    15A     -0.838912  
      16A     -0.775974    17A     -0.767296    18A     -0.735365  
      19A     -0.718357    20A     -0.698341    21A     -0.668070  
      22A     -0.626644    23A     -0.605351    24A     -0.581977  
      25A     -0.578033    26A     -0.557574    27A     -0.516523  
      28A     -0.507124    29A     -0.498441    30A     -0.455256  
      31A     -0.414840    32A     -0.406845  

    Virtual:                                                              

      33A     -0.242880    34A     -0.155780    35A     -0.135602  
      36A     -0.101687    37A     -0.076052    38A     -0.053879  
      39A     -0.035956    40A     -0.014157    41A      0.006943  
      42A      0.010093    43A      0.022824    44A      0.053256  
      45A      0.060520    46A      0.088940    47A      0.127164  
      48A      0.134289    49A      0.156807    50A      0.160826  
      51A      0.207709    52A      0.237736    53A      0.300326  
      54A      0.352219    55A      0.362460    56A      0.380961  
      57A      0.394905    58A      0.398805    59A      0.414093  
      60A      0.422511    61A      0.440066    62A      0.447782  
      63A      0.455202    64A      0.470109    65A      0.472759  
      66A      0.482573    67A      0.489339    68A      0.510880  
      69A      0.526410    70A      0.544490    71A      0.547893  
      72A      0.590268    73A      0.612713    74A      0.651515  
      75A      0.675129    76A      0.687196    77A      0.697486  
      78A      0.701913    79A      0.712212    80A      0.722677  
      81A      0.727261    82A      0.740414    83A      0.772435  
      84A      0.778209    85A      0.805981    86A      0.825843  
      87A      0.854966    88A      0.885569    89A      0.946030  
      90A      0.972420    91A      0.992754    92A      1.021190  
      93A      1.073528    94A      1.079279    95A      1.122285  
      96A      1.141693    97A      1.235256    98A      1.273469  
      99A      1.279920   100A      1.303002   101A      1.327653  
     102A      1.339791   103A      1.357511   104A      1.389792  
     105A      1.408086   106A      1.461309   107A      1.542606  
     108A      1.592196   109A      1.622376   110A      1.652826  
     111A      1.712486   112A      1.731817   113A      1.752566  
     114A      1.777802   115A      1.797686   116A      1.815179  
     117A      1.887423   118A      1.909807   119A      1.965822  
     120A      1.970293   121A      1.989109   122A      1.997955  
     123A      2.024651   124A      2.027743   125A      2.113408  
     126A      2.132714   127A      2.154100   128A      2.174011  
     129A      2.232623   130A      2.329757   131A      2.349474  
     132A      2.380138   133A      2.445290   134A      2.450663  
     135A      2.479918   136A      2.503086   137A      2.542251  
     138A      2.584002   139A      2.596045   140A      2.626288  
     141A      2.733169   142A      2.818033   143A      2.984887  
     144A      3.251686   145A      3.618698   146A      3.676641  
     147A      3.908849   148A      3.942943   149A      3.962779  
     150A      4.041009   151A      4.170454   152A      4.251917  
     153A      4.544418  

    Final Occupation by Irrep:
              A 
    DOCC [    32 ]

  Energy converged.

  @DF-RKS Final Energy:  -381.44794223728928

   => Energetics <=

    Nuclear Repulsion Energy =            415.4050375010872358
    One-Electron Energy =               -1326.2334680121825841
    Two-Electron Energy =                 573.7684130845144637
    DFT Exchange-Correlation Energy =     -44.3761172207084940
    Empirical Dispersion Energy =          -0.0118075900000000
    VV10 Nonlocal Energy =                  0.0000000000000000
    Total Energy =                       -381.4479422372893396



Properties will be evaluated at   0.000000,   0.000000,   0.000000 [a0]

Properties computed using the SCF density matrix

  Nuclear Dipole Moment: [e a0]
     X:    -0.5593      Y:     0.4219      Z:     0.9698

  Electronic Dipole Moment: [e a0]
     X:     0.7266      Y:    -0.2525      Z:    -3.0854

  Dipole Moment: [e a0]
     X:     0.1673      Y:     0.1694      Z:    -2.1156     Total:     2.1289

  Dipole Moment: [D]
     X:     0.4253      Y:     0.4307      Z:    -5.3772     Total:     5.4112


*** tstop() called on oliva.prib.upf.edu at Sat Sep 29 20:32:36 2018
Module time:
	user time   =      77.09 seconds =       1.28 minutes
	system time =       0.53 seconds =       0.01 minutes
	total time  =         21 seconds =       0.35 minutes
Total time:
	user time   =     208.80 seconds =       3.48 minutes
	system time =       1.74 seconds =       0.03 minutes
	total time  =         59 seconds =       0.98 minutes

*** tstart() called on oliva.prib.upf.edu
*** at Sat Sep 29 20:32:36 2018


         ------------------------------------------------------------
                                   SCF GRAD                          
                          Rob Parrish, Justin Turney,                
                       Andy Simmonett, and Alex Sokolov              
         ------------------------------------------------------------

  ==> Geometry <==

    Molecular point group: c1
    Full point group: C1

    Geometry (in Angstrom), charge = 1, multiplicity = 1:

       Center              X                  Y                   Z               Mass       
    ------------   -----------------  -----------------  -----------------  -----------------
         C           -0.027324722312     0.031756923370    -0.164185618618    12.000000000000
         C            0.058893969811     1.247412609210     0.553793395028    12.000000000000
         C            0.080976025617     1.228845073750     1.943071099292    12.000000000000
         C            0.026027132685     0.005363041512     2.622585860586    12.000000000000
         C           -0.062352932334    -1.201396675171     1.915795698971    12.000000000000
         C           -0.103040801201    -1.194837672348     0.525897378712    12.000000000000
         C           -0.042021824872     0.016071269800    -1.622389113352    12.000000000000
         H            0.058087887026     2.198927351828     0.028528803237     1.007825032070
         H            0.128377871218     2.161443167903     2.497522909269     1.007825032070
         H            0.044157313521    -0.006828454879     3.708394632627     1.007825032070
         H           -0.100463404040    -2.145857264916     2.449504318262     1.007825032070
         H           -0.153588227298    -2.129529968245    -0.027448047782     1.007825032070
         N           -0.662186412391    -0.988185803064    -2.319683252741    14.003074004780
         N            0.663948485114     0.912059962702    -2.293843450091    14.003074004780
         H            0.633915663239     0.948351093452    -3.310045558741     1.007825032070
         H            1.320191954035     1.525438246190    -1.818651381435     1.007825032070
         H           -1.678942984732    -1.065663771112    -2.322013092549     1.007825032070
         H           -0.146976993087    -1.529432129983    -3.045308580675     1.007825032070

  Nuclear repulsion =  415.405037501087236

  ==> Basis Set <==

  Basis Set: 6-31G*
    Blend: 6-31G*
    Number of shells: 72
    Number of basis function: 153
    Number of Cartesian functions: 153
    Spherical Harmonics?: false
    Max angular momentum: 2

  ==> DFJKGrad: Density-Fitted SCF Gradients <==

    Gradient:                    1
    J tasked:                  Yes
    K tasked:                  Yes
    wK tasked:                  No
    OpenMP threads:              4
    Integrals threads:           4
    Memory (MB):              2002
    Schwarz Cutoff:          0E+00
    Fitting Condition:       1E-12

   => Auxiliary Basis Set <=

  Basis Set: (6-31G* AUX)
    Blend: CC-PVDZ-JKFIT
    Number of shells: 297
    Number of basis function: 954
    Number of Cartesian functions: 954
    Spherical Harmonics?: false
    Max angular momentum: 3

  ==> DFT Potential <==

   => Composite Functional: B3LYP-D3ZERO <= 

    B3LYP-d3zero Hyb-GGA Exchange-Correlation Functional

    P. J. Stephens, F. J. Devlin, C. F. Chabalowski, and M. J. Frisch, J. Phys. Chem. 98, 11623 (1994)

    Deriv               =              1
    GGA                 =           TRUE
    Meta                =          FALSE

    Exchange Hybrid     =           TRUE
    MP2 Hybrid          =          FALSE

   => Exchange Functionals <=

    0.0800   Slater exchange
    0.7200         Becke 88

   => Exact (HF) Exchange <=

    0.2000               HF 

   => Correlation Functionals <=

    0.1900   Vosko, Wilk & Nusair (VWN5_RPA)
    0.8100   Lee, Yang & Parr

   => Molecular Quadrature <=

    Radial Scheme       =       TREUTLER
    Pruning Scheme      =           FLAT
    Nuclear Scheme      =       TREUTLER

    BS radius alpha     =              1
    Pruning alpha       =              1
    Radial Points       =             75
    Spherical Points    =            302
    Total Points        =         397072
    Total Blocks        =           3009
    Max Points          =            256
    Max Functions       =            149


  -Total Gradient:
     Atom            X                  Y                   Z
    ------   -----------------  -----------------  -----------------
       1        0.011732731939    -0.005467004825     0.004300159593
       2       -0.000581629270     0.000631379409    -0.000811587913
       3       -0.000790015424    -0.000380894535     0.001783155459
       4        0.000347733185     0.002023638206     0.000505162244
       5       -0.000207445290    -0.001001359036    -0.000766760110
       6        0.000936751474     0.002084121322    -0.001295941538
       7       -0.005424466258     0.007097983106    -0.002272548669
       8        0.000463080512     0.000087365357     0.000137250573
       9        0.000024490884     0.000600835789     0.000291112256
      10       -0.000032069145     0.000119417441     0.000119630174
      11       -0.000146192325    -0.000412073828    -0.000207484088
      12        0.000613952825    -0.002241318948    -0.000408371998
      13       -0.008704715328     0.007838675909     0.013396798579
      14       -0.005466126897     0.002178850117     0.003711377418
      15        0.000742614404    -0.000751412011    -0.002289584928
      16        0.000098198705     0.001251549059     0.001201094934
      17       -0.007484101327     0.006946706256    -0.009234948621
      18        0.013874192797    -0.020613480857    -0.008166973172


*** tstop() called on oliva.prib.upf.edu at Sat Sep 29 20:32:45 2018
Module time:
	user time   =      30.52 seconds =       0.51 minutes
	system time =       0.27 seconds =       0.00 minutes
	total time  =          9 seconds =       0.15 minutes
Total time:
	user time   =     239.39 seconds =       3.99 minutes
	system time =       2.01 seconds =       0.03 minutes
	total time  =         68 seconds =       1.13 minutes

			-----------------------------------------
			 OPTKING 2.0: for geometry optimizations 
			  - R.A. King,  Bethel University        
			-----------------------------------------
	At level 1: Red. Int., RFO, no backsteps, dynamic trust

	Previous internal coordinate definitions found.
	---Fragment 1 Geometry and Gradient---
	 C          -0.0516362418        0.0600118880       -0.3102658541
	 C           0.1112934738        2.3572682061        1.0465178508
	 C           0.1530225117        2.3221806491        3.6718722344
	 C           0.0491841528        0.0101346797        4.9559690365
	 C          -0.1178299657       -2.2703106930        3.6203291976
	 C          -0.1947188948       -2.2579159740        0.9938020198
	 C          -0.0794097406        0.0303702985       -3.0658711052
	 H           0.1097701981        4.1553704811        0.0539116250
	 H           0.2425990181        4.0845356391        4.7196343091
	 H           0.0834452293       -0.0129039096        7.0078502483
	 H          -0.1898483200       -4.0550825510        4.6288923228
	 H          -0.2902396868       -4.0242284318       -0.0518692932
	 N          -1.2513509683       -1.8674005362       -4.3835660627
	 N           1.2546808032        1.7235435463       -4.3347359124
	 H           1.1979269949        1.7921238444       -6.2550795934
	 H           2.4948012360        2.8826605179       -3.4367530421
	 H          -3.1727424339       -2.0138126771       -4.3879688219
	 H          -0.2777462648       -2.8902078645       -5.7547992076
	             0.0117327319       -0.0054670048        0.0043001596
	            -0.0005816293        0.0006313794       -0.0008115879
	            -0.0007900154       -0.0003808945        0.0017831555
	             0.0003477332        0.0020236382        0.0005051622
	            -0.0002074453       -0.0010013590       -0.0007667601
	             0.0009367515        0.0020841213       -0.0012959415
	            -0.0054244663        0.0070979831       -0.0022725487
	             0.0004630805        0.0000873654        0.0001372506
	             0.0000244909        0.0006008358        0.0002911123
	            -0.0000320691        0.0001194174        0.0001196302
	            -0.0001461923       -0.0004120738       -0.0002074841
	             0.0006139528       -0.0022413189       -0.0004083720
	            -0.0087047153        0.0078386759        0.0133967986
	            -0.0054661269        0.0021788501        0.0037113774
	             0.0007426144       -0.0007514120       -0.0022895849
	             0.0000981987        0.0012515491        0.0012010949
	            -0.0074841013        0.0069467063       -0.0092349486
	             0.0138741928       -0.0206134809       -0.0081669732

	---Fragment 1 Intrafragment Coordinates---
	 - Coordinate -           - BOHR/RAD -       - ANG/DEG -
	 R(1,2)           =         2.672975	       1.414477
	 R(1,6)           =         2.663429	       1.409426
	 R(1,7)           =         2.755905	       1.458362
	 R(2,3)           =         2.625920	       1.389577
	 R(2,8)           =         2.053884	       1.086869
	 R(3,4)           =         2.646742	       1.400596
	 R(3,9)           =         2.052249	       1.086003
	 R(4,5)           =         2.648067	       1.401297
	 R(4,10)          =         2.052297	       1.086029
	 R(5,6)           =         2.627682	       1.390509
	 R(5,11)          =         2.051291	       1.085497
	 R(6,12)          =         2.054851	       1.087380
	 R(7,13)          =         2.590618	       1.370896
	 R(7,14)          =         2.501330	       1.323647
	 R(13,17)         =         1.926967	       1.019707
	 R(13,18)         =         1.968330	       1.041595
	 R(14,15)         =         1.922406	       1.017293
	 R(14,16)         =         1.920371	       1.016216
	 B(1,2,3)         =         2.090898	     119.799642
	 B(1,2,8)         =         2.102556	     120.467610
	 B(1,6,5)         =         2.085111	     119.468035
	 B(1,6,12)        =         2.096031	     120.093740
	 B(1,7,13)        =         2.118847	     121.400969
	 B(1,7,14)        =         2.088131	     119.641092
	 B(2,1,6)         =         2.097514	     120.178671
	 B(2,1,7)         =         2.114602	     121.157749
	 B(2,3,4)         =         2.089904	     119.742679
	 B(2,3,9)         =         2.093994	     119.977011
	 B(3,2,8)         =         2.088502	     119.662364
	 B(3,4,5)         =         2.106028	     120.666525
	 B(3,4,10)        =         2.087727	     119.617957
	 B(4,3,9)         =         2.099213	     120.276056
	 B(4,5,6)         =         2.096642	     120.128746
	 B(4,5,11)        =         2.098449	     120.232260
	 B(5,4,10)        =         2.089398	     119.713706
	 B(5,6,12)        =         2.101293	     120.395195
	 B(6,1,7)         =         2.071069	     118.663516
	 B(6,5,11)        =         2.088094	     119.638963
	 B(7,13,17)       =         2.103533	     120.523541
	 B(7,13,18)       =         2.107424	     120.746510
	 B(7,14,15)       =         2.111961	     121.006435
	 B(7,14,16)       =         2.112729	     121.050449
	 B(13,7,14)       =         2.070459	     118.628560
	 B(15,14,16)      =         2.054024	     117.686897
	 B(17,13,18)      =         2.039948	     116.880436
	 D(1,2,3,4)       =         0.006889	       0.394727
	 D(1,2,3,9)       =        -3.121644	    -178.857034
	 D(1,6,5,4)       =         0.022358	       1.280995
	 D(1,6,5,11)      =        -3.120340	    -178.782311
	*D(1,7,13,17)     =         1.221730	      69.999964
	 D(1,7,13,18)     =        -2.198489	    -125.964151
	 D(1,7,14,15)     =        -3.090203	    -177.055574
	 D(1,7,14,16)     =         0.155228	       8.893920
	 D(2,1,6,5)       =        -0.024761	      -1.418720
	 D(2,1,6,12)      =        -3.124883	    -179.042609
	 D(2,1,7,13)      =        -2.655382	    -152.142204
	 D(2,1,7,14)      =         0.602819	      34.539000
	 D(2,3,4,5)       =        -0.009359	      -0.536234
	 D(2,3,4,10)      =         3.140804	     179.954798
	 D(3,2,1,6)       =         0.010124	       0.580043
	 D(3,2,1,7)       =        -3.133093	    -179.513029
	 D(3,4,5,6)       =        -0.005453	      -0.312415
	 D(3,4,5,11)      =         3.137252	     179.751270
	 D(4,3,2,8)       =         3.095492	     177.358634
	 D(4,5,6,12)      =         3.122352	     178.897580
	 D(5,4,3,9)       =         3.119135	     178.713257
	 D(5,6,1,7)       =         3.118416	     178.672051
	 D(6,1,2,8)       =        -3.078046	    -176.359039
	 D(6,1,7,13)      =         0.484610	      27.766101
	 D(6,1,7,14)      =        -2.540374	    -145.552694
	 D(6,5,4,10)      =         3.127562	     179.196085
	 D(7,1,2,8)       =         0.061922	       3.547888
	 D(7,1,6,12)      =         0.018294	       1.048161
	 D(8,2,3,9)       =        -0.033041	      -1.893127
	 D(9,3,4,10)      =        -0.013888	      -0.795710
	 D(10,4,5,11)     =        -0.012919	      -0.740230
	 D(11,5,6,12)     =        -0.020346	      -1.165726
	 D(13,7,14,15)    =         0.164770	       9.440603
	 D(13,7,14,16)    =        -2.872985	    -164.609903
	 D(14,7,13,17)    =        -2.035324	    -116.615456
	 D(14,7,13,18)    =         0.827643	      47.420429

	Current energy   :      -381.4479422373

	Energy change for the previous step:
		Projected    :        -0.0180368543
		Actual       :        -0.0088092701

	Performing BFGS update.
	Previous computed or guess Hessian on step 1.
	Steps to be used in Hessian update: 1
	Taking RFO optimization step.
	Going to follow RFO solution 1.
	Using RFO vector 1.

	Determining step-restricting scale parameter for RS-RFO.
	Maximum step size allowed    0.50000

	 Iter      |step|        alpha        rfo_root  
	------------------------------------------------
	    0     0.61685       1.00000           1
	    1     0.52636       1.59157           1
	    2     0.50189       1.81185           1
	    3     0.50001       1.83016           1
	    4     0.50000       1.83026           1
	------------------------------------------------
	Norm of target step-size    0.50000
	Projected energy change by RFO approximation:        -0.0023884605

	Back-transformation to cartesian coordinates...
	Could not converge backtransformation.
	Using first guess instead.

	Back-transformation to cartesian coordinates to adjust frozen coordinates...
	Successfully converged to displaced geometry.

	--- Internal Coordinate Step in ANG or DEG, aJ/ANG or AJ/DEG ---
	 ---------------------------------------------------------------------------
	   Coordinate                Previous        Force       Change         New 
	   ----------                --------       ------       ------       ------
	    1 R(1,2)          =      1.414477    -0.011732     0.000241     1.414718
	    2 R(1,6)          =      1.409426     0.008092     0.002097     1.411523
	    3 R(1,7)          =      1.458362    -0.030757    -0.007898     1.450464
	    4 R(2,3)          =      1.389577    -0.011654    -0.002036     1.387541
	    5 R(2,8)          =      1.086869    -0.000081     0.000184     1.087052
	    6 R(3,4)          =      1.400596     0.004930     0.001445     1.402041
	    7 R(3,9)          =      1.086003    -0.005488    -0.000502     1.085501
	    8 R(4,5)          =      1.401297    -0.018290    -0.001417     1.399879
	    9 R(4,10)         =      1.086029    -0.000974     0.000001     1.086030
	   10 R(5,6)          =      1.390509    -0.002373    -0.000375     1.390134
	   11 R(5,11)         =      1.085497    -0.002156    -0.000151     1.085346
	   12 R(6,12)         =      1.087380    -0.017346    -0.002335     1.085045
	   13 R(7,13)         =      1.370896    -0.060568     0.006526     1.377421
	   14 R(7,14)         =      1.323647     0.016343     0.000611     1.324258
	   15 R(13,17)        =      1.019707    -0.057308    -0.003938     1.015769
	   16 R(13,18)        =      1.041595    -0.191656     0.022543     1.064138
	   17 R(14,15)        =      1.017293    -0.018438    -0.001194     1.016099
	   18 R(14,16)        =      1.016216    -0.011378     0.000063     1.016279
	   19 B(1,2,3)        =    119.799642    -0.000015    -0.019098   119.780544
	   20 B(1,2,8)        =    120.467610    -0.000007    -0.038482   120.429128
	   21 B(1,6,5)        =    119.468035     0.000036     0.072236   119.540271
	   22 B(1,6,12)       =    120.093740    -0.000078    -0.437310   119.656430
	   23 B(1,7,13)       =    121.400969    -0.000134    -0.166441   121.234529
	   24 B(1,7,14)       =    119.641092     0.000334     0.947704   120.588796
	   25 B(2,1,6)        =    120.178671    -0.000033    -0.080338   120.098333
	   26 B(2,1,7)        =    121.157749    -0.000030     0.186592   121.344342
	   27 B(2,3,4)        =    119.742679     0.000047     0.051582   119.794260
	   28 B(2,3,9)        =    119.977011    -0.000019     0.015317   119.992328
	   29 B(3,2,8)        =    119.662364     0.000023     0.072968   119.735332
	   30 B(3,4,5)        =    120.666525     0.000002     0.059701   120.726225
	   31 B(3,4,10)       =    119.617957     0.000008    -0.009081   119.608877
	   32 B(4,3,9)        =    120.276056    -0.000028    -0.070056   120.206000
	   33 B(4,5,6)        =    120.128746    -0.000036    -0.097350   120.031397
	   34 B(4,5,11)       =    120.232260    -0.000012    -0.066172   120.166088
	   35 B(5,4,10)       =    119.713706    -0.000010    -0.051444   119.662262
	   36 B(5,6,12)       =    120.395195     0.000042     0.372276   120.767470
	   37 B(6,1,7)        =    118.663516     0.000063    -0.107104   118.556412
	   38 B(6,5,11)       =    119.638963     0.000048     0.163544   119.802507
	   39 B(7,13,17)      =    120.523541     0.000067    -0.390515   120.133026
	   40 B(7,13,18)      =    120.746510    -0.000214    -4.424734   116.321776
	   41 B(7,14,15)      =    121.006435    -0.000012    -0.479829   120.526606
	   42 B(7,14,16)      =    121.050449     0.000043     0.484576   121.535025
	   43 B(13,7,14)      =    118.628560    -0.000209    -1.084520   117.544040
	   44 B(15,14,16)     =    117.686897    -0.000029     0.018318   117.705215
	   45 B(17,13,18)     =    116.880436    -0.000025    -1.333508   115.546928
	   46 D(1,2,3,4)      =      0.394727    -0.000005    -0.558661    -0.163934
	   47 D(1,2,3,9)      =   -178.857034    -0.000003    -0.318676  -179.175710
	   48 D(1,6,5,4)      =      1.280995     0.000001     0.155722     1.436717
	   49 D(1,6,5,11)     =   -178.782311     0.000002     0.186844  -178.595467
	   50 *D(1,7,13,17)   =     69.999964     0.000000     0.000000    69.999964
	   51 D(1,7,13,18)    =   -125.964151    -0.000167   -16.528014  -142.492165
	   52 D(1,7,14,15)    =   -177.055574     0.000006     0.436273  -176.619301
	   53 D(1,7,14,16)    =      8.893920     0.000002     0.162208     9.056128
	   54 D(2,1,6,5)      =     -1.418720    -0.000006    -0.682267    -2.100987
	   55 D(2,1,6,12)     =   -179.042609    -0.000007    -0.898313  -179.940922
	   56 D(2,1,7,13)     =   -152.142204    -0.000038    -5.114407  -157.256611
	   57 D(2,1,7,14)     =     34.539000    -0.000014    -2.453967    32.085033
	   58 D(2,3,4,5)      =     -0.536234     0.000001     0.032250    -0.503984
	   59 D(2,3,4,10)     =    179.954798     0.000001     0.133875   180.088673
	   60 D(3,2,1,6)      =      0.580043     0.000008     0.884946     1.464989
	   61 D(3,2,1,7)      =   -179.513029     0.000011     1.330827  -178.182203
	   62 D(3,4,5,6)      =     -0.312415     0.000002     0.171442    -0.140973
	   63 D(3,4,5,11)     =    179.751270     0.000001     0.140059   179.891329
	   64 D(4,3,2,8)      =    177.358634    -0.000002    -0.207612   177.151022
	   65 D(4,5,6,12)     =    178.897580     0.000002     0.354531   179.252110
	   66 D(5,4,3,9)      =    178.713257    -0.000002    -0.207604   178.505653
	   67 D(5,6,1,7)      =    178.672051    -0.000009    -1.116089   177.555962
	   68 D(6,1,2,8)      =   -176.359039     0.000004     0.527986  -175.831052
	   69 D(6,1,7,13)     =     27.766101    -0.000034    -4.675198    23.090903
	   70 D(6,1,7,14)     =   -145.552694    -0.000010    -2.014759  -147.567453
	   71 D(6,5,4,10)     =    179.196085     0.000001     0.069970   179.266055
	   72 D(7,1,2,8)      =      3.547888     0.000008     0.973867     4.521756
	   73 D(7,1,6,12)     =      1.048161    -0.000011    -1.332134    -0.283973
	   74 D(8,2,3,9)      =     -1.893127     0.000000     0.032373    -1.860754
	   75 D(9,3,4,10)     =     -0.795710    -0.000001    -0.105979    -0.901690
	   76 D(10,4,5,11)    =     -0.740230     0.000000     0.038587    -0.701643
	   77 D(11,5,6,12)    =     -1.165726     0.000003     0.385653    -0.780074
	   78 D(13,7,14,15)   =      9.440603     0.000028     2.945947    12.386550
	   79 D(13,7,14,16)   =   -164.609903     0.000024     2.671881  -161.938022
	   80 D(14,7,13,17)   =   -116.615456    -0.000015    -2.451922  -119.067378
	   81 D(14,7,13,18)   =     47.420429    -0.000182   -18.979936    28.440493
	 ---------------------------------------------------------------------------
	Successfully symmetrized geometry.

  ==> Convergence Check <==

  Measures of convergence in internal coordinates in au.
  Criteria marked as inactive (o), active & met (*), and active & unmet ( ).
  ---------------------------------------------------------------------------------------------
   Step     Total Energy     Delta E     MAX Force     RMS Force      MAX Disp      RMS Disp   
  ---------------------------------------------------------------------------------------------
    Convergence Criteria    1.00e-06 *    3.00e-04 *             o    1.20e-03 *             o
  ---------------------------------------------------------------------------------------------
      2    -381.44794224   -8.81e-03      2.33e-02      3.42e-03 o    3.31e-01      5.33e-02 o  ~
  ---------------------------------------------------------------------------------------------

	Writing optimization data to binary file.
	Structure for next step:
	Cartesian Geometry (in Angstrom)
	    C    -0.0436979039   0.0311263375  -0.1542322164
	    C     0.0670114334   1.2471235080   0.5602762106
	    C     0.1071464296   1.2303517194   1.9471353153
	    C     0.0342649839   0.0088398304   2.6314706585
	    C    -0.0893878339  -1.1970173082   1.9312699375
	    C    -0.1442000565  -1.1924935155   0.5422245795
	    C    -0.0493857332   0.0059831617  -1.6044668747
	    H     0.0767414061   2.1971562134   0.0320468311
	    H     0.1785564224   2.1622342152   2.4992298716
	    H     0.0644907231  -0.0006732332   3.7170381520
	    H    -0.1432688073  -2.1375714797   2.4701853376
	    H    -0.2278304022  -2.1209655001  -0.0129942853
	    N    -0.6026275120  -1.0474270556  -2.2983980209
	    N     0.6372731751   0.9020843603  -2.2966816268
	    H     0.5919863068   0.9154399856  -3.3116833215
	    H     1.2875686931   1.5387206959  -1.8443169724
	    H    -1.6090560855  -1.1848549177  -2.2995739337
	    H    -0.0979072390  -1.3441200174  -3.1870036420
			--------------------------
			 OPTKING Finished Execution 
			--------------------------

    Structure for next step:
    Molecular point group: c1
    Full point group: C1

    Geometry (in Angstrom), charge = 1, multiplicity = 1:

    C           -0.043697903931     0.031126337532    -0.154232216392
    C            0.067011433393     1.247123507971     0.560276210598
    C            0.107146429624     1.230351719392     1.947135315277
    C            0.034264983904     0.008839830449     2.631470658540
    C           -0.089387833919    -1.197017308211     1.931269937477
    C           -0.144200056471    -1.192493515533     0.542224579527
    C           -0.049385733153     0.005983161731    -1.604466874686
    H            0.076741406103     2.197156213402     0.032046831101
    H            0.178556422446     2.162234215161     2.499229871586
    H            0.064490723085    -0.000673233230     3.717038151981
    H           -0.143268807319    -2.137571479710     2.470185337626
    H           -0.227830402228    -2.120965500130    -0.012994285291
    N           -0.602627512034    -1.047427055593    -2.298398020858
    N            0.637273175063     0.902084360340    -2.296681626826
    H            0.591986306834     0.915439985614    -3.311683321547
    H            1.287568693052     1.538720695889    -1.844316972389
    H           -1.609056085477    -1.184854917710    -2.299573933750
    H           -0.097907238972    -1.344120017362    -3.187003641975

gradient() will perform analytic gradient computation.

*** tstart() called on oliva.prib.upf.edu
*** at Sat Sep 29 20:32:45 2018

   => Loading Basis Set <=

    Name: 6-31G*
    Role: ORBITAL
    Keyword: BASIS
[...]
	 H           2.4506056788        2.8743570630       -3.4398876969
	 H          -2.9601000460       -2.2740960714       -4.2015781872
	 H          -0.4858771834       -2.2414877419       -6.1251553480
	             0.0093076897       -0.0046068442       -0.0000019737
	             0.0000233734        0.0000047154        0.0000083597
	            -0.0000042416        0.0000080515       -0.0000101464
	            -0.0000029135        0.0000004617        0.0000053304
	            -0.0000212138       -0.0000040871       -0.0000123643
	             0.0000410023       -0.0000073459        0.0000174062
	            -0.0147346530        0.0097717296       -0.0040068217
	             0.0000053550        0.0000025680        0.0000021275
	            -0.0000023039        0.0000022040       -0.0000027410
	             0.0000051390        0.0000005043       -0.0000013625
	            -0.0000039472       -0.0000019232       -0.0000030093
	            -0.0000003283       -0.0000040958       -0.0000000443
	             0.0068715249       -0.0131535886        0.0158674476
	            -0.0000156197       -0.0000238248        0.0000220445
	             0.0000084792       -0.0000049007        0.0000041283
	             0.0000111431        0.0000076958       -0.0000018121
	            -0.0014944425        0.0080015834       -0.0118999974
	             0.0000058580       -0.0000000073        0.0000032665

	---Fragment 1 Intrafragment Coordinates---
	 - Coordinate -           - BOHR/RAD -       - ANG/DEG -
	 R(1,2)           =         2.669376	       1.412573
	 R(1,6)           =         2.666148	       1.410865
	 R(1,7)           =         2.747125	       1.453716
	 R(2,3)           =         2.623190	       1.388132
	 R(2,8)           =         2.053860	       1.086856
	 R(3,4)           =         2.647002	       1.400733
	 R(3,9)           =         2.050487	       1.085071
	 R(4,5)           =         2.643168	       1.398704
	 R(4,10)          =         2.051914	       1.085826
	 R(5,6)           =         2.626924	       1.390108
	 R(5,11)          =         2.050571	       1.085115
	 R(6,12)          =         2.049369	       1.084480
	 R(7,13)          =         2.579411	       1.364966
	 R(7,14)          =         2.508405	       1.327391
	 R(13,17)         =         1.923515	       1.017881
	 R(13,18)         =         1.924797	       1.018559
	 R(14,15)         =         1.916146	       1.013981
	 R(14,16)         =         1.915377	       1.013574
	 B(1,2,3)         =         2.091204	     119.817182
	 B(1,2,8)         =         2.104043	     120.552780
	 B(1,6,5)         =         2.087438	     119.601408
	 B(1,6,12)        =         2.090875	     119.798320
	 B(1,7,13)        =         2.086772	     119.563212
	 B(1,7,14)        =         2.097889	     120.200214
	 B(2,1,6)         =         2.094508	     120.006475
	 B(2,1,7)         =         2.106397	     120.687651
	 B(2,3,4)         =         2.092280	     119.878818
	 B(2,3,9)         =         2.093247	     119.934232
	 B(3,2,8)         =         2.086753	     119.562153
	 B(3,4,5)         =         2.104758	     120.593726
	 B(3,4,10)        =         2.088374	     119.655006
	 B(4,3,9)         =         2.097534	     120.179858
	 B(4,5,6)         =         2.095956	     120.089452
	 B(4,5,11)        =         2.097129	     120.156630
	 B(5,4,10)        =         2.090046	     119.750789
	 B(5,6,12)        =         2.103919	     120.545666
	 B(6,1,7)         =         2.082277	     119.305672
	 B(6,5,11)        =         2.090056	     119.751360
	 B(7,13,17)       =         2.032973	     116.480786
	 B(7,13,18)       =         2.004996	     114.877804
	 B(7,14,15)       =         2.135273	     122.342111
	 B(7,14,16)       =         2.107206	     120.734005
	 B(13,7,14)       =         2.081439	     119.257683
	 B(15,14,16)      =         2.039732	     116.868027
	 B(17,13,18)      =         1.903478	     109.061244
	 D(1,2,3,4)       =        -0.006663	      -0.381765
	 D(1,2,3,9)       =        -3.131378	    -179.414769
	 D(1,6,5,4)       =         0.010646	       0.609955
	 D(1,6,5,11)      =        -3.120809	    -178.809161
	*D(1,7,13,17)     =         1.221730	      69.999964
	 D(1,7,13,18)     =        -2.805001	    -160.714731
	 D(1,7,14,15)     =        -3.055525	    -175.068700
	 D(1,7,14,16)     =         0.135006	       7.735262
	 D(2,1,6,5)       =        -0.023127	      -1.325107
	 D(2,1,6,12)      =        -3.118079	    -178.652741
	 D(2,1,7,13)      =        -2.767390	    -158.559744
	 D(2,1,7,14)      =         0.573184	      32.841047
	 D(2,3,4,5)       =        -0.005886	      -0.337271
	 D(2,3,4,10)      =         3.140112	     179.915147
	 D(3,2,1,6)       =         0.021166	       1.212751
	 D(3,2,1,7)       =        -3.117550	    -178.622471
	 D(3,4,5,6)       =         0.003871	       0.221791
	 D(3,4,5,11)      =         3.135284	     179.638535
	 D(4,3,2,8)       =         3.082932	     176.639017
	 D(4,5,6,12)      =         3.105241	     177.917232
	 D(5,4,3,9)       =         3.118787	     178.693330
	 D(5,6,1,7)       =         3.115629	     178.512394
	 D(6,1,2,8)       =        -3.067906	    -175.778045
	 D(6,1,7,13)      =         0.377059	      21.603890
	 D(6,1,7,14)      =        -2.565552	    -146.995318
	 D(6,5,4,10)      =         3.141054	     179.969132
	 D(7,1,2,8)       =         0.076563	       4.386733
	 D(7,1,6,12)      =         0.020678	       1.184760
	 D(8,2,3,9)       =        -0.041783	      -2.393987
	 D(9,3,4,10)      =        -0.018400	      -1.054252
	 D(10,4,5,11)     =        -0.010718	      -0.614124
	 D(11,5,6,12)     =        -0.026213	      -1.501884
	 D(13,7,14,15)    =         0.284444	      16.297415
	 D(13,7,14,16)    =        -2.808211	    -160.898623
	 D(14,7,13,17)    =        -2.116959	    -121.292817
	 D(14,7,13,18)    =         0.139495	       7.992488

	Current energy   :      -381.4575792053

	Energy change for the previous step:
		Projected    :        -0.0000014825
		Actual       :        -0.0000001222

	Performing BFGS update.
	Previous computed or guess Hessian on step 1.
	Steps to be used in Hessian update: 1
	Taking RFO optimization step.
	Going to follow RFO solution 1.
	Rejecting RFO root 1 because normalization gives large value.
	Using RFO vector 2.
	Norm of target step-size    0.00150
	Projected energy change by RFO approximation:        -0.0000000900

	Back-transformation to cartesian coordinates...
	Successfully converged to displaced geometry.

	Back-transformation to cartesian coordinates to adjust frozen coordinates...
	Successfully converged to displaced geometry.

	--- Internal Coordinate Step in ANG or DEG, aJ/ANG or AJ/DEG ---
	 ---------------------------------------------------------------------------
	   Coordinate                Previous        Force       Change         New 
	   ----------                --------       ------       ------       ------
	    1 R(1,2)          =      1.412573    -0.000097    -0.000012     1.412561
	    2 R(1,6)          =      1.410865    -0.000074    -0.000010     1.410855
	    3 R(1,7)          =      1.453716     0.000475     0.000074     1.453790
	    4 R(2,3)          =      1.388132     0.000077     0.000007     1.388139
	    5 R(2,8)          =      1.086856    -0.000009    -0.000001     1.086855
	    6 R(3,4)          =      1.400733    -0.000065    -0.000004     1.400729
	    7 R(3,9)          =      1.085071    -0.000007    -0.000000     1.085070
	    8 R(4,5)          =      1.398704    -0.000076    -0.000006     1.398698
	    9 R(4,10)         =      1.085826     0.000006     0.000002     1.085828
	   10 R(5,6)          =      1.390108     0.000100     0.000011     1.390119
	   11 R(5,11)         =      1.085115    -0.000004     0.000000     1.085116
	   12 R(6,12)         =      1.084480    -0.000026     0.000001     1.084481
	   13 R(7,13)         =      1.364966    -0.000665    -0.000078     1.364888
	   14 R(7,14)         =      1.327391     0.000201     0.000019     1.327410
	   15 R(13,17)        =      1.017881    -0.000083    -0.000004     1.017876
	   16 R(13,18)        =      1.018559     0.000016     0.000006     1.018565
	   17 R(14,15)        =      1.013981     0.000044     0.000006     1.013987
	   18 R(14,16)        =      1.013574    -0.000095    -0.000006     1.013567
	   19 B(1,2,3)        =    119.817182    -0.000000    -0.000945   119.816237
	   20 B(1,2,8)        =    120.552780    -0.000000    -0.001275   120.551505
	   21 B(1,6,5)        =    119.601408    -0.000000    -0.001112   119.600296
	   22 B(1,6,12)       =    119.798320    -0.000000    -0.000419   119.797901
	   23 B(1,7,13)       =    119.563212     0.000002     0.003359   119.566572
	   24 B(1,7,14)       =    120.200214     0.000000     0.001803   120.202017
	   25 B(2,1,6)        =    120.006475     0.000000     0.001440   120.007915
	   26 B(2,1,7)        =    120.687651     0.000000     0.001145   120.688796
	   27 B(2,3,4)        =    119.878818     0.000000    -0.000221   119.878597
	   28 B(2,3,9)        =    119.934232     0.000000     0.000706   119.934937
	   29 B(3,2,8)        =    119.562153     0.000000     0.002580   119.564733
	   30 B(3,4,5)        =    120.593726    -0.000000     0.000585   120.594311
	   31 B(3,4,10)       =    119.655006     0.000000     0.000121   119.655127
	   32 B(4,3,9)        =    120.179858    -0.000000    -0.000455   120.179402
	   33 B(4,5,6)        =    120.089452    -0.000000    -0.000357   120.089095
	   34 B(4,5,11)       =    120.156630    -0.000000    -0.000863   120.155767
	   35 B(5,4,10)       =    119.750789    -0.000000    -0.000733   119.750056
	   36 B(5,6,12)       =    120.545666     0.000000     0.000617   120.546283
	   37 B(6,1,7)        =    119.305672    -0.000001    -0.002560   119.303112
	   38 B(6,5,11)       =    119.751360     0.000000     0.001271   119.752631
	   39 B(7,13,17)      =    116.480786     0.000000     0.005226   116.486012
	   40 B(7,13,18)      =    114.877804     0.000000    -0.000560   114.877245
	   41 B(7,14,15)      =    122.342111     0.000000    -0.001597   122.340515
	   42 B(7,14,16)      =    120.734005    -0.000001    -0.001154   120.732851
	   43 B(13,7,14)      =    119.257683    -0.000002    -0.005393   119.252291
	   44 B(15,14,16)     =    116.868027     0.000000     0.003580   116.871607
	   45 B(17,13,18)     =    109.061244    -0.000001    -0.002048   109.059197
	   46 D(1,2,3,4)      =     -0.381765    -0.000000    -0.005262    -0.387028
	   47 D(1,2,3,9)      =   -179.414769    -0.000000    -0.007242  -179.422010
	   48 D(1,6,5,4)      =      0.609955     0.000000     0.023510     0.633465
	   49 D(1,6,5,11)     =   -178.809161     0.000000     0.017738  -178.791424
	   50 *D(1,7,13,17)   =     69.999964     0.000000     0.000000    69.999964
	   51 D(1,7,13,18)    =   -160.714731    -0.000000     0.001609  -160.713123
	   52 D(1,7,14,15)    =   -175.068700     0.000000     0.014489  -175.054211
	   53 D(1,7,14,16)    =      7.735262     0.000000    -0.006503     7.728759
	   54 D(2,1,6,5)      =     -1.325107    -0.000000    -0.034429    -1.359536
	   55 D(2,1,6,12)     =   -178.652741    -0.000000    -0.012179  -178.664920
	   56 D(2,1,7,13)     =   -158.559744     0.000000     0.028002  -158.531742
	   57 D(2,1,7,14)     =     32.841047     0.000000     0.029946    32.870994
	   58 D(2,3,4,5)      =     -0.337271    -0.000000    -0.005703    -0.342975
	   59 D(2,3,4,10)     =    179.915147     0.000000     0.001300   179.916447
	   60 D(3,2,1,6)      =      1.212751     0.000000     0.025326     1.238076
	   61 D(3,2,1,7)      =   -178.622471     0.000000     0.014508  -178.607963
	   62 D(3,4,5,6)      =      0.221791    -0.000000    -0.003542     0.218249
	   63 D(3,4,5,11)     =    179.638535     0.000000     0.002266   179.640801
	   64 D(4,3,2,8)      =    176.639017     0.000000     0.002606   176.641622
	   65 D(4,5,6,12)     =    177.917232    -0.000000     0.001062   177.918294
	   66 D(5,4,3,9)      =    178.693330    -0.000000    -0.003708   178.689622
	   67 D(5,6,1,7)      =    178.512394    -0.000000    -0.023756   178.488638
	   68 D(6,1,2,8)      =   -175.778045     0.000000     0.017262  -175.760783
	   69 D(6,1,7,13)     =     21.603890     0.000000     0.017254    21.621145
	   70 D(6,1,7,14)     =   -146.995318    -0.000000     0.019198  -146.976120
	   71 D(6,5,4,10)     =    179.969132    -0.000000    -0.010550   179.958582
	   72 D(7,1,2,8)      =      4.386733     0.000000     0.006445     4.393178
	   73 D(7,1,6,12)     =      1.184760     0.000000    -0.001506     1.183254
	   74 D(8,2,3,9)      =     -2.393987    -0.000000     0.000626    -2.393360
	   75 D(9,3,4,10)     =     -1.054252     0.000000     0.003296    -1.050956
	   76 D(10,4,5,11)    =     -0.614124    -0.000000    -0.004742    -0.618866
	   77 D(11,5,6,12)    =     -1.501884    -0.000000    -0.004711    -1.506595
	   78 D(13,7,14,15)   =     16.297415    -0.000000     0.015436    16.312852
	   79 D(13,7,14,16)   =   -160.898623    -0.000000    -0.005555  -160.904178
	   80 D(14,7,13,17)   =   -121.292817     0.000000    -0.001112  -121.293929
	   81 D(14,7,13,18)   =      7.992488     0.000000     0.000496     7.992985
	 ---------------------------------------------------------------------------
	Successfully symmetrized geometry.

  ==> Convergence Check <==

  Measures of convergence in internal coordinates in au.
  Criteria marked as inactive (o), active & met (*), and active & unmet ( ).
  ---------------------------------------------------------------------------------------------
   Step     Total Energy     Delta E     MAX Force     RMS Force      MAX Disp      RMS Disp   
  ---------------------------------------------------------------------------------------------
    Convergence Criteria    1.00e-06 *    3.00e-04 *             o    1.20e-03 *             o
  ---------------------------------------------------------------------------------------------
      2    -381.45757921   -1.22e-07 *    8.08e-05 *    1.35e-05 o    6.01e-04 *    1.67e-04 o  ~
  ---------------------------------------------------------------------------------------------


  **** Optimization is complete! (in 2 steps) ****

  ==> Optimization Summary <==

  Measures of convergence in internal coordinates in au.
  --------------------------------------------------------------------------------------------------------------- ~
   Step         Total Energy             Delta E       MAX Force       RMS Force        MAX Disp        RMS Disp  ~
  --------------------------------------------------------------------------------------------------------------- ~
      1    -381.457579083118   -381.457579083118      0.00010844      0.00002508      0.00159692      0.00040504  ~
      2    -381.457579205296     -0.000000122178      0.00008077      0.00001346      0.00060090      0.00016701  ~
  --------------------------------------------------------------------------------------------------------------- ~

	Writing optimization data to binary file.
	Final energy is   -381.4575792052959
	Final (previous) structure:
	Cartesian Geometry (in Angstrom)
	    C    -0.0323386572   0.0081046312  -0.1614770965
	    C     0.0675718129   1.2293042774   0.5414112516
	    C     0.0951154673   1.2266313136   1.9292676644
	    C     0.0156917956   0.0143254179   2.6264469757
	    C    -0.0985109202  -1.1972388165   1.9369228821
	    C    -0.1296111741  -1.2079741254   0.5472042027
	    C    -0.0327624006  -0.0134141721  -1.6150339537
	    H     0.0741563039   2.1755490287   0.0067770394
	    H     0.1622402145   2.1642176674   2.4713052693
	    H     0.0389555545   0.0163557656   3.7120218411
	    H    -0.1536303408  -2.1327252695   2.4840082538
	    H    -0.1840968861  -2.1452234067   0.0043495670
	    N    -0.5561763946  -1.0890208862  -2.2724832334
	    N     0.6662067593   0.8861608193  -2.2963368376
	    H     0.6315948042   0.9473845456  -3.3078756305
	    H     1.2968046724   1.5210442471  -1.8203101693
	    H    -1.5664174795  -1.2033998111  -2.2233794168
	    H    -0.2571151316  -1.1861442263  -3.2412926092
	Saving final (previous) structure.
	Removing binary optimization data file.
			--------------------------
			 OPTKING Finished Execution 
			--------------------------

    Final optimized geometry and variables:
    Molecular point group: c1
    Full point group: C1

    Geometry (in Angstrom), charge = 1, multiplicity = 1:

    C           -0.032338657230     0.008104631225    -0.161477096491
    C            0.067571812932     1.229304277363     0.541411251582
    C            0.095115467340     1.226631313633     1.929267664417
    C            0.015691795605     0.014325417949     2.626446975733
    C           -0.098510920197    -1.197238816484     1.936922882068
    C           -0.129611174088    -1.207974125418     0.547204202702
    C           -0.032762400554    -0.013414172118    -1.615033953742
    H            0.074156303907     2.175549028722     0.006777039361
    H            0.162240214457     2.164217667406     2.471305269264
    H            0.038955554459     0.016355765587     3.712021841105
    H           -0.153630340801    -2.132725269512     2.484008253762
    H           -0.184096886058    -2.145223406692     0.004349567019
    N           -0.556176394552    -1.089020886202    -2.272483233359
    N            0.666206759257     0.886160819288    -2.296336837613
    H            0.631594804214     0.947384545635    -3.307875630496
    H            1.296804672444     1.521044247103    -1.820310169319
    H           -1.566417479492    -1.203399811137    -2.223379416776
    H           -0.257115131641    -1.186144226348    -3.241292609218

	Removing binary optimization data file.
	Cleaning optimization helper files.


Properties will be evaluated at   0.000000,   0.000000,   0.000000 [a0]
OEProp: No title given, name of density matrix used for the following properties is 'SCF density'
  Nuclear Dipole Moment: [e a0]
     X:     0.2336      Y:    -1.7093      Z:     1.7618

  Electronic Dipole Moment: [e a0]
     X:    -0.2436      Y:     2.0404      Z:    -3.9749

  Dipole Moment: [e a0]
     X:    -0.0099      Y:     0.3311      Z:    -2.2130     Total:     2.2377

  Dipole Moment: [D]
     X:    -0.0252      Y:     0.8415      Z:    -5.6250     Total:     5.6876

  Quadrupole Moment: [D A]
    XX:   -48.4896     YY:   -39.8175     ZZ:   -12.2508
    XY:     5.8525     XZ:     0.2052     YZ:    -0.9376

  Traceless Quadrupole Moment: [D A]
    XX:   -14.9703     YY:    -6.2982     ZZ:    21.2685
    XY:     5.8525     XZ:     0.2052     YZ:    -0.9376

  Mulliken Charges: (a.u.)
   Center  Symbol    Alpha    Beta     Spin     Total
       1     C     2.95082  2.95082  0.00000  0.09836
       2     C     3.08467  3.08467  0.00000 -0.16933
       3     C     3.06274  3.06274  0.00000 -0.12548
       4     C     3.04974  3.04974  0.00000 -0.09948
       5     C     3.06260  3.06260  0.00000 -0.12519
       6     C     3.07164  3.07164  0.00000 -0.14329
       7     C     2.75681  2.75681  0.00000  0.48637
       8     H     0.41548  0.41548  0.00000  0.16904
       9     H     0.40495  0.40495  0.00000  0.19010
      10     H     0.40259  0.40259  0.00000  0.19481
      11     H     0.40443  0.40443  0.00000  0.19114
      12     H     0.40418  0.40418  0.00000  0.19163
      13     N     3.85798  3.85798  0.00000 -0.71596
      14     N     3.84887  3.84887  0.00000 -0.69775
      15     H     0.30472  0.30472  0.00000  0.39056
      16     H     0.29929  0.29929  0.00000  0.40142
      17     H     0.30248  0.30248  0.00000  0.39504
      18     H     0.31600  0.31600  0.00000  0.36799

   Total alpha = 32.00000, Total beta = 32.00000, Total charge =  1.00000


    Psi4 stopped on: Saturday, 29 September 2018 08:37PM
    Psi4 wall time for execution: 0:05:27.81

*** Psi4 exiting successfully. Buy a developer a beer!
