
    -----------------------------------------------------------------------
          Psi4: An Open-Source Ab Initio Electronic Structure Package
                               Psi4 1.2.1 release

                         Git: Rev {HEAD} 406f4de 


    R. M. Parrish, L. A. Burns, D. G. A. Smith, A. C. Simmonett,
    A. E. DePrince III, E. G. Hohenstein, U. Bozkaya, A. Yu. Sokolov,
    R. Di Remigio, R. M. Richard, J. F. Gonthier, A. M. James,
    H. R. McAlexander, A. Kumar, M. Saitow, X. Wang, B. P. Pritchard,
    P. Verma, H. F. Schaefer III, K. Patkowski, R. A. King, E. F. Valeev,
    F. A. Evangelista, J. M. Turney, T. D. Crawford, and C. D. Sherrill,
    J. Chem. Theory Comput. 13(7) pp 3185--3197 (2017).
    (doi: 10.1021/acs.jctc.7b00174)


                         Additional Contributions by
    P. Kraus, H. Kruse, M. H. Lechner, M. C. Schieber, and R. A. Shaw

    -----------------------------------------------------------------------


    Psi4 started on: Saturday, 29 September 2018 05:09PM

    Process ID: 13456
    Host:       loro.prib.upf.edu
    PSIDATADIR: /shared/joao/test_parameterize/miniconda3/share/psi4
    Memory:     500.0 MiB
    Threads:    1
    
  ==> Input File <==

--------------------------------------------------------------------------
set_num_threads(1)
set_memory('5348 MB')

set { scf_mem_safety_factor 0.7 }

set { reference rks }
set { basis cc-pVDZ }

molecule MOL {
    0 1
    noreorient
    nocom
    symmetry c1
    O    1.050400   0.042900  -0.048100
    C    2.474100   0.047400  -0.029000
    C    3.002600  -1.068900  -0.932000
    N    4.462700  -1.072400  -1.006800
    H    0.760400   0.728400   0.578000
    H    2.809900  -0.097900   1.003200
    H    2.817400   1.026800  -0.378600
    H    2.581000  -0.963300  -1.938400
    H    2.653800  -2.036400  -0.553400
    H    4.831995  -0.316324  -0.431081
    H    4.742673  -0.856651  -1.963523
}

set optking { frozen_dihedral = (" 2 3 4 10 ") }

energy, wfn = energy('B3LYP-D3', return_wfn=True)

import os
os.chdir(os.environ['HTMD_PSI4_WORKDIR'])

oeprop(wfn, 'DIPOLE', 'QUADRUPOLE', 'MULLIKEN_CHARGES')

with open('psi4out.xyz', 'w') as f:
    f.write('11 ' )
    f.write('%.12f\n' % energy)
    f.write(MOL.save_string_xyz())
--------------------------------------------------------------------------
  Threads set to 1 by Python driver.

  Memory set to   4.981 GiB by Python driver.

*** tstart() called on loro.prib.upf.edu
*** at Sat Sep 29 17:09:47 2018

   => Loading Basis Set <=

    Name: CC-PVDZ
    Role: ORBITAL
    Keyword: BASIS
    atoms 1    entry O          line   198 file /shared/joao/test_parameterize/miniconda3/share/psi4/basis/cc-pvdz.gbs 
    atoms 2-3  entry C          line   138 file /shared/joao/test_parameterize/miniconda3/share/psi4/basis/cc-pvdz.gbs 
    atoms 4    entry N          line   168 file /shared/joao/test_parameterize/miniconda3/share/psi4/basis/cc-pvdz.gbs 
    atoms 5-11 entry H          line    22 file /shared/joao/test_parameterize/miniconda3/share/psi4/basis/cc-pvdz.gbs 


         ---------------------------------------------------------
                                   SCF
            by Justin Turney, Rob Parrish, Andy Simmonett
                             and Daniel Smith
                              RKS Reference
                        1 Threads,   5100 MiB Core
         ---------------------------------------------------------

  ==> Geometry <==

    Molecular point group: c1
    Full point group: C1

    Geometry (in Angstrom), charge = 0, multiplicity = 1:

       Center              X                  Y                   Z               Mass       
    ------------   -----------------  -----------------  -----------------  -----------------
         O            1.050400000000     0.042900000000    -0.048100000000    15.994914619560
         C            2.474100000000     0.047400000000    -0.029000000000    12.000000000000
         C            3.002600000000    -1.068900000000    -0.932000000000    12.000000000000
         N            4.462700000000    -1.072400000000    -1.006800000000    14.003074004780
         H            0.760400000000     0.728400000000     0.578000000000     1.007825032070
         H            2.809900000000    -0.097900000000     1.003200000000     1.007825032070
         H            2.817400000000     1.026800000000    -0.378600000000     1.007825032070
         H            2.581000000000    -0.963300000000    -1.938400000000     1.007825032070
         H            2.653800000000    -2.036400000000    -0.553400000000     1.007825032070
         H            4.831995000000    -0.316324000000    -0.431081000000     1.007825032070
         H            4.742673000000    -0.856651000000    -1.963523000000     1.007825032070

  Running in c1 symmetry.

  Rotational constants: A =      0.72275  B =      0.02777  C =      0.02708 [cm^-1]
  Rotational constants: A =  21667.51539  B =    832.47483  C =    811.77409 [MHz]
  Nuclear repulsion =  130.790441195039563

  Charge       = 0
  Multiplicity = 1
  Electrons    = 34
  Nalpha       = 17
  Nbeta        = 17

  ==> Algorithm <==

  SCF Algorithm Type is DF.
  DIIS enabled.
  MOM disabled.
  Fractional occupation disabled.
  Guess Type is SAD.
  Energy threshold   = 1.00e-06
  Density threshold  = 1.00e-06
  Integral threshold = 0.00e+00

  ==> Primary Basis <==

  Basis Set: CC-PVDZ
    Blend: CC-PVDZ
    Number of shells: 45
    Number of basis function: 91
    Number of Cartesian functions: 95
    Spherical Harmonics?: true
    Max angular momentum: 2

  ==> DFT Potential <==

   => Composite Functional: B3LYP-D3ZERO <= 

    B3LYP-d3zero Hyb-GGA Exchange-Correlation Functional

    P. J. Stephens, F. J. Devlin, C. F. Chabalowski, and M. J. Frisch, J. Phys. Chem. 98, 11623 (1994)

    Deriv               =              1
    GGA                 =           TRUE
    Meta                =          FALSE

    Exchange Hybrid     =           TRUE
    MP2 Hybrid          =          FALSE

   => Exchange Functionals <=

    0.0800   Slater exchange
    0.7200         Becke 88

   => Exact (HF) Exchange <=

    0.2000               HF 

   => Correlation Functionals <=

    0.1900   Vosko, Wilk & Nusair (VWN5_RPA)
    0.8100   Lee, Yang & Parr

   => Molecular Quadrature <=

    Radial Scheme       =       TREUTLER
    Pruning Scheme      =           FLAT
    Nuclear Scheme      =       TREUTLER

    BS radius alpha     =              1
    Pruning alpha       =              1
    Radial Points       =             75
    Spherical Points    =            302
    Total Points        =         245073
    Total Blocks        =           1887
    Max Points          =            256
    Max Functions       =             91

   => -D3ZERO: Empirical Dispersion <=

    Grimme's -D3 (zero-damping) Dispersion Correction
    Grimme S.; Antony J.; Ehrlich S.; Krieg H. (2010), J. Chem. Phys., 132: 154104

        S6 =   1.000000E+00
        S8 =   1.703000E+00
       SR6 =   1.261000E+00
       SR8 =   1.000000E+00
    ALPHA6 =   1.400000E+01

   => Loading Basis Set <=

    Name: (CC-PVDZ AUX)
    Role: JKFIT
    Keyword: DF_BASIS_SCF
    atoms 1    entry O          line   221 file /shared/joao/test_parameterize/miniconda3/share/psi4/basis/cc-pvdz-jkfit.gbs 
    atoms 2-3  entry C          line   121 file /shared/joao/test_parameterize/miniconda3/share/psi4/basis/cc-pvdz-jkfit.gbs 
    atoms 4    entry N          line   171 file /shared/joao/test_parameterize/miniconda3/share/psi4/basis/cc-pvdz-jkfit.gbs 
    atoms 5-11 entry H          line    51 file /shared/joao/test_parameterize/miniconda3/share/psi4/basis/cc-pvdz-jkfit.gbs 

  ==> Pre-Iterations <==

   -------------------------------------------------------
    Irrep   Nso     Nmo     Nalpha   Nbeta   Ndocc  Nsocc
   -------------------------------------------------------
     A         91      91       0       0       0       0
   -------------------------------------------------------
    Total      91      91      17      17      17       0
   -------------------------------------------------------

  ==> Integral Setup <==

  DFHelper Memory: AOs need 0.036 [GiB]; user supplied 3.486 [GiB]. Using in-core AOs.

  ==> MemDFJK: Density-Fitted J/K Matrices <==

    J tasked:                   Yes
    K tasked:                   Yes
    wK tasked:                   No
    OpenMP threads:               1
    Memory (MB):               3570
    Algorithm:                 Core
    Schwarz Cutoff:           1E-12
    Mask sparsity (%):       0.3623
    Fitting Condition:        1E-12

   => Auxiliary Basis Set <=

  Basis Set: (CC-PVDZ AUX)
    Blend: CC-PVDZ-JKFIT
    Number of shells: 159
    Number of basis function: 441
    Number of Cartesian functions: 499
    Spherical Harmonics?: true
    Max angular momentum: 3

  Minimum eigenvalue in the overlap matrix is 4.4765557525E-03.
  Using Symmetric Orthogonalization.

  SCF Guess: Superposition of Atomic Densities via on-the-fly atomic UHF.

  ==> Iterations <==

                           Total Energy        Delta E     RMS |[F,P]|

   @DF-RKS iter   0:  -210.84653465898398   -2.10847e+02   3.67037e-02 
   @DF-RKS iter   1:  -210.21310557268859    6.33429e-01   7.02843e-03 
   @DF-RKS iter   2:  -210.06672795338937    1.46378e-01   9.67044e-03 DIIS
   @DF-RKS iter   3:  -210.38654632299605   -3.19818e-01   6.12965e-04 DIIS
   @DF-RKS iter   4:  -210.38739992725039   -8.53604e-04   3.65156e-04 DIIS
   @DF-RKS iter   5:  -210.38787618215684   -4.76255e-04   4.95199e-05 DIIS
   @DF-RKS iter   6:  -210.38788263767563   -6.45552e-06   2.40592e-05 DIIS
   @DF-RKS iter   7:  -210.38788473058426   -2.09291e-06   2.09526e-06 DIIS
   @DF-RKS iter   8:  -210.38788474662806   -1.60438e-08   7.08753e-07 DIIS

  ==> Post-Iterations <==

    Orbital Energies [Eh]
    ---------------------

    Doubly Occupied:                                                      

       1A    -19.130281     2A    -14.304606     3A    -10.228747  
       4A    -10.201323     5A     -1.012804     6A     -0.878268  
       7A     -0.712109     8A     -0.604790     9A     -0.509869  
      10A     -0.483838    11A     -0.459599    12A     -0.414756  
      13A     -0.389851    14A     -0.363445    15A     -0.327533  
      16A     -0.264659    17A     -0.231370  

    Virtual:                                                              

      18A      0.048462    19A      0.056865    20A      0.095911  
      21A      0.110314    22A      0.124936    23A      0.146462  
      24A      0.174951    25A      0.219173    26A      0.241688  
      27A      0.261309    28A      0.432807    29A      0.446155  
      30A      0.491450    31A      0.530512    32A      0.559778  
      33A      0.576594    34A      0.607385    35A      0.614972  
      36A      0.629664    37A      0.656228    38A      0.657635  
      39A      0.660625    40A      0.684382    41A      0.828196  
      42A      0.847544    43A      0.864550    44A      0.917496  
      45A      0.923254    46A      0.957480    47A      0.991604  
      48A      1.059685    49A      1.172307    50A      1.206449  
      51A      1.228508    52A      1.260772    53A      1.343416  
      54A      1.351862    55A      1.432227    56A      1.498637  
      57A      1.545473    58A      1.593112    59A      1.601042  
      60A      1.619367    61A      1.649534    62A      1.660731  
      63A      1.688593    64A      1.720994    65A      1.744964  
      66A      1.783478    67A      1.818803    68A      1.858645  
      69A      1.899222    70A      1.961435    71A      2.018515  
      72A      2.047801    73A      2.056987    74A      2.145897  
      75A      2.158292    76A      2.196263    77A      2.290530  
      78A      2.385547    79A      2.396999    80A      2.433140  
      81A      2.484907    82A      2.578136    83A      2.604518  
      84A      2.650296    85A      2.820730    86A      2.958070  
      87A      3.000913    88A      3.047342    89A      3.096106  
      90A      3.208156    91A      3.691556  

    Final Occupation by Irrep:
              A 
    DOCC [    17 ]

  Energy converged.

  @DF-RKS Final Energy:  -210.38788474662806

   => Energetics <=

    Nuclear Repulsion Energy =            130.7904411950395627
    One-Electron Energy =                -544.4379491908182445
    Two-Electron Energy =                 226.7524013598467718
    DFT Exchange-Correlation Energy =     -23.4878352006961180
    Empirical Dispersion Energy =          -0.0049429100000000
    VV10 Nonlocal Energy =                  0.0000000000000000
    Total Energy =                       -210.3878847466280604



Properties will be evaluated at   0.000000,   0.000000,   0.000000 [a0]

Properties computed using the SCF density matrix

  Nuclear Dipole Moment: [e a0]
     X:   177.0663      Y:   -29.8727      Z:   -31.9027

  Electronic Dipole Moment: [e a0]
     X:  -176.8967      Y:    30.7193      Z:    32.0637

  Dipole Moment: [e a0]
     X:     0.1696      Y:     0.8466      Z:     0.1610     Total:     0.8783

  Dipole Moment: [D]
     X:     0.4310      Y:     2.1518      Z:     0.4092     Total:     2.2324


*** tstop() called on loro.prib.upf.edu at Sat Sep 29 17:10:06 2018
Module time:
	user time   =      15.00 seconds =       0.25 minutes
	system time =       0.27 seconds =       0.00 minutes
	total time  =         19 seconds =       0.32 minutes
Total time:
	user time   =      15.00 seconds =       0.25 minutes
	system time =       0.27 seconds =       0.00 minutes
	total time  =         19 seconds =       0.32 minutes


Properties will be evaluated at   0.000000,   0.000000,   0.000000 [a0]
OEProp: No title given, name of density matrix used for the following properties is 'SCF density'
  Nuclear Dipole Moment: [e a0]
     X:   177.0663      Y:   -29.8727      Z:   -31.9027

  Electronic Dipole Moment: [e a0]
     X:  -176.8967      Y:    30.7193      Z:    32.0637

  Dipole Moment: [e a0]
     X:     0.1696      Y:     0.8466      Z:     0.1610     Total:     0.8783

  Dipole Moment: [D]
     X:     0.4310      Y:     2.1518      Z:     0.4092     Total:     2.2324

  Quadrupole Moment: [D A]
    XX:   -25.2244     YY:   -27.5121     ZZ:   -22.6361
    XY:     6.7908     XZ:    -1.8238     YZ:     0.6107

  Traceless Quadrupole Moment: [D A]
    XX:    -0.1002     YY:    -2.3879     ZZ:     2.4881
    XY:     6.7908     XZ:    -1.8238     YZ:     0.6107

  Mulliken Charges: (a.u.)
   Center  Symbol    Alpha    Beta     Spin     Total
       1     O     4.13751  4.13751  0.00000 -0.27502
       2     C     2.94328  2.94328  0.00000  0.11344
       3     C     2.97859  2.97859  0.00000  0.04282
       4     N     3.59102  3.59102  0.00000 -0.18205
       5     H     0.43048  0.43048  0.00000  0.13903
       6     H     0.49787  0.49787  0.00000  0.00426
       7     H     0.50492  0.50492  0.00000 -0.00984
       8     H     0.49450  0.49450  0.00000  0.01100
       9     H     0.49059  0.49059  0.00000  0.01882
      10     H     0.46886  0.46886  0.00000  0.06229
      11     H     0.46238  0.46238  0.00000  0.07523

   Total alpha = 17.00000, Total beta = 17.00000, Total charge = -0.00000


    Psi4 stopped on: Saturday, 29 September 2018 05:10PM
    Psi4 wall time for execution: 0:00:19.07

*** Psi4 exiting successfully. Buy a developer a beer!
