
    -----------------------------------------------------------------------
          Psi4: An Open-Source Ab Initio Electronic Structure Package
                               Psi4 1.2.1 release

                         Git: Rev {HEAD} 406f4de 


    R. M. Parrish, L. A. Burns, D. G. A. Smith, A. C. Simmonett,
    A. E. DePrince III, E. G. Hohenstein, U. Bozkaya, A. Yu. Sokolov,
    R. Di Remigio, R. M. Richard, J. F. Gonthier, A. M. James,
    H. R. McAlexander, A. Kumar, M. Saitow, X. Wang, B. P. Pritchard,
    P. Verma, H. F. Schaefer III, K. Patkowski, R. A. King, E. F. Valeev,
    F. A. Evangelista, J. M. Turney, T. D. Crawford, and C. D. Sherrill,
    J. Chem. Theory Comput. 13(7) pp 3185--3197 (2017).
    (doi: 10.1021/acs.jctc.7b00174)


                         Additional Contributions by
    P. Kraus, H. Kruse, M. H. Lechner, M. C. Schieber, and R. A. Shaw

    -----------------------------------------------------------------------


    Psi4 started on: Saturday, 29 September 2018 08:34PM

    Process ID: 17003
    Host:       green.prib.upf.edu
    PSIDATADIR: /shared/joao/test_parameterize/miniconda3/share/psi4
    Memory:     500.0 MiB
    Threads:    1
    
  ==> Input File <==

--------------------------------------------------------------------------
set_num_threads(4)
set_memory('3000 MB')

set { scf_mem_safety_factor 0.7 }

set { reference rks }
set { basis 6-31G* }

molecule MOL {
    1 1
    noreorient
    nocom
    symmetry c1
    C   -0.000000  -0.000000  -0.177864
    C    0.036678   1.219374   0.524165
    C    0.031765   1.213120   1.915444
    C    0.000000   0.000000   2.610107
    C   -0.031765  -1.213120   1.915444
    C   -0.036678  -1.219375   0.524165
    C   -0.000000   0.000000  -1.644734
    H    0.018170   2.164705  -0.010854
    H    0.042402   2.152895   2.457886
    H    0.000000   0.000000   3.695756
    H   -0.042402  -2.152895   2.457886
    H   -0.018170  -2.164705  -0.010853
    N   -0.712590  -0.905950  -2.308461
    N    0.712590   0.905950  -2.308460
    H    0.673432   1.006470  -3.315997
    H    1.377190   1.485970  -1.813316
    H   -1.614535  -0.655552  -2.691971
    H   -0.366905  -1.836391  -2.512294
}

set optking { frozen_dihedral = (" 1 7 13 17 ") }

set optking { dynamic_level = 1 
 geom_maxiter = 250
 print_trajectory_xyz_file = True }

energy, wfn = optimize('B3LYP-D3', return_wfn=True)

import os
os.chdir(os.environ['HTMD_PSI4_WORKDIR'])

oeprop(wfn, 'DIPOLE', 'QUADRUPOLE', 'MULLIKEN_CHARGES')

with open('psi4out.xyz', 'w') as f:
    f.write('18 ' )
    f.write('%.12f\n' % energy)
    f.write(MOL.save_string_xyz())
--------------------------------------------------------------------------
  Threads set to 4 by Python driver.

  Memory set to   2.794 GiB by Python driver.
gradient() will perform analytic gradient computation.

*** tstart() called on green.prib.upf.edu
*** at Sat Sep 29 20:34:11 2018

   => Loading Basis Set <=

    Name: 6-31G*
    Role: ORBITAL
    Keyword: BASIS
    atoms 1-7         entry C          line   111 file /shared/joao/test_parameterize/miniconda3/share/psi4/basis/6-31gs.gbs 
    atoms 8-12, 15-18 entry H          line    44 file /shared/joao/test_parameterize/miniconda3/share/psi4/basis/6-31gs.gbs 
    atoms 13-14       entry N          line   128 file /shared/joao/test_parameterize/miniconda3/share/psi4/basis/6-31gs.gbs 


         ---------------------------------------------------------
                                   SCF
            by Justin Turney, Rob Parrish, Andy Simmonett
                             and Daniel Smith
                              RKS Reference
                        4 Threads,   2861 MiB Core
         ---------------------------------------------------------

  ==> Geometry <==

    Molecular point group: c1
    Full point group: C1

    Geometry (in Angstrom), charge = 1, multiplicity = 1:

       Center              X                  Y                   Z               Mass       
    ------------   -----------------  -----------------  -----------------  -----------------
         C            0.000000000000     0.000000000000    -0.177864000000    12.000000000000
         C            0.036678000000     1.219374000000     0.524165000000    12.000000000000
         C            0.031765000000     1.213120000000     1.915444000000    12.000000000000
         C            0.000000000000     0.000000000000     2.610107000000    12.000000000000
         C           -0.031765000000    -1.213120000000     1.915444000000    12.000000000000
         C           -0.036678000000    -1.219375000000     0.524165000000    12.000000000000
         C            0.000000000000     0.000000000000    -1.644734000000    12.000000000000
         H            0.018170000000     2.164705000000    -0.010854000000     1.007825032070
         H            0.042402000000     2.152895000000     2.457886000000     1.007825032070
         H            0.000000000000     0.000000000000     3.695756000000     1.007825032070
         H           -0.042402000000    -2.152895000000     2.457886000000     1.007825032070
         H           -0.018170000000    -2.164705000000    -0.010853000000     1.007825032070
         N           -0.712590000000    -0.905950000000    -2.308461000000    14.003074004780
         N            0.712590000000     0.905950000000    -2.308460000000    14.003074004780
         H            0.673432000000     1.006470000000    -3.315997000000     1.007825032070
         H            1.377190000000     1.485970000000    -1.813316000000     1.007825032070
         H           -1.614535000000    -0.655552000000    -2.691971000000     1.007825032070
         H           -0.366905000000    -1.836391000000    -2.512294000000     1.007825032070

  Running in c1 symmetry.

  Rotational constants: A =      0.12104  B =      0.03956  C =      0.03133 [cm^-1]
  Rotational constants: A =   3628.80995  B =   1186.06078  C =    939.10445 [MHz]
  Nuclear repulsion =  416.581673711273822

  Charge       = 1
  Multiplicity = 1
  Electrons    = 64
  Nalpha       = 32
  Nbeta        = 32

  ==> Algorithm <==

  SCF Algorithm Type is DF.
  DIIS enabled.
  MOM disabled.
  Fractional occupation disabled.
  Guess Type is SAD.
  Energy threshold   = 1.00e-08
  Density threshold  = 1.00e-08
  Integral threshold = 0.00e+00

  ==> Primary Basis <==

  Basis Set: 6-31G*
    Blend: 6-31G*
    Number of shells: 72
    Number of basis function: 153
    Number of Cartesian functions: 153
    Spherical Harmonics?: false
    Max angular momentum: 2

  ==> DFT Potential <==

   => Composite Functional: B3LYP-D3ZERO <= 

    B3LYP-d3zero Hyb-GGA Exchange-Correlation Functional

    P. J. Stephens, F. J. Devlin, C. F. Chabalowski, and M. J. Frisch, J. Phys. Chem. 98, 11623 (1994)

    Deriv               =              1
    GGA                 =           TRUE
    Meta                =          FALSE

    Exchange Hybrid     =           TRUE
    MP2 Hybrid          =          FALSE

   => Exchange Functionals <=

    0.0800   Slater exchange
    0.7200         Becke 88

   => Exact (HF) Exchange <=

    0.2000               HF 

   => Correlation Functionals <=

    0.1900   Vosko, Wilk & Nusair (VWN5_RPA)
    0.8100   Lee, Yang & Parr

   => Molecular Quadrature <=

    Radial Scheme       =       TREUTLER
    Pruning Scheme      =           FLAT
    Nuclear Scheme      =       TREUTLER

    BS radius alpha     =              1
    Pruning alpha       =              1
    Radial Points       =             75
    Spherical Points    =            302
    Total Points        =         397069
    Total Blocks        =           3016
    Max Points          =            256
    Max Functions       =            149

   => -D3ZERO: Empirical Dispersion <=

    Grimme's -D3 (zero-damping) Dispersion Correction
    Grimme S.; Antony J.; Ehrlich S.; Krieg H. (2010), J. Chem. Phys., 132: 154104

        S6 =   1.000000E+00
        S8 =   1.703000E+00
       SR6 =   1.261000E+00
       SR8 =   1.000000E+00
    ALPHA6 =   1.400000E+01

   => Loading Basis Set <=

    Name: (6-31G* AUX)
    Role: JKFIT
    Keyword: DF_BASIS_SCF
    atoms 1-7         entry C          line   121 file /shared/joao/test_parameterize/miniconda3/share/psi4/basis/cc-pvdz-jkfit.gbs 
    atoms 8-12, 15-18 entry H          line    51 file /shared/joao/test_parameterize/miniconda3/share/psi4/basis/cc-pvdz-jkfit.gbs 
    atoms 13-14       entry N          line   171 file /shared/joao/test_parameterize/miniconda3/share/psi4/basis/cc-pvdz-jkfit.gbs 

  ==> Pre-Iterations <==

   -------------------------------------------------------
    Irrep   Nso     Nmo     Nalpha   Nbeta   Ndocc  Nsocc
   -------------------------------------------------------
     A        153     153       0       0       0       0
   -------------------------------------------------------
    Total     153     153      32      32      32       0
   -------------------------------------------------------

  ==> Integral Setup <==

  ==> DiskDFJK: Density-Fitted J/K Matrices <==

    J tasked:                  Yes
    K tasked:                  Yes
    wK tasked:                  No
    OpenMP threads:              4
    Integrals threads:           4
    Memory (MB):              2002
    Algorithm:                Core
    Integral Cache:           NONE
    Schwarz Cutoff:          1E-12
    Fitting Condition:       1E-12

   => Auxiliary Basis Set <=

  Basis Set: (6-31G* AUX)
    Blend: CC-PVDZ-JKFIT
    Number of shells: 297
    Number of basis function: 954
    Number of Cartesian functions: 954
    Spherical Harmonics?: false
    Max angular momentum: 3

  Minimum eigenvalue in the overlap matrix is 4.8624727437E-04.
  Using Symmetric Orthogonalization.

  SCF Guess: Superposition of Atomic Densities via on-the-fly atomic UHF.

  ==> Iterations <==

                           Total Energy        Delta E     RMS |[F,P]|

   @DF-RKS iter   0:  -379.61311903600586   -3.79613e+02   6.72973e-02 
   @DF-RKS iter   1:  -380.96789352264341   -1.35477e+00   1.22083e-02 
   @DF-RKS iter   2:  -380.72755658995146    2.40337e-01   1.49652e-02 DIIS
   @DF-RKS iter   3:  -381.39183530564731   -6.64279e-01   3.28261e-03 DIIS
   @DF-RKS iter   4:  -381.42201223685248   -3.01769e-02   9.37817e-04 DIIS
   @DF-RKS iter   5:  -381.42390443834734   -1.89220e-03   4.35499e-04 DIIS
   @DF-RKS iter   6:  -381.42443759897401   -5.33161e-04   1.27770e-04 DIIS
   @DF-RKS iter   7:  -381.42448222372116   -4.46247e-05   4.10319e-05 DIIS
   @DF-RKS iter   8:  -381.42448691708768   -4.69337e-06   9.68581e-06 DIIS
   @DF-RKS iter   9:  -381.42448716114660   -2.44059e-07   5.95364e-06 DIIS
   @DF-RKS iter  10:  -381.42448726582023   -1.04674e-07   8.87975e-07 DIIS
   @DF-RKS iter  11:  -381.42448726850517   -2.68494e-09   5.77985e-07 DIIS
   @DF-RKS iter  12:  -381.42448726964761   -1.14244e-09   1.55528e-07 DIIS
   @DF-RKS iter  13:  -381.42448726976198   -1.14369e-10   7.24869e-08 DIIS
   @DF-RKS iter  14:  -381.42448726978171   -1.97247e-11   1.74602e-08 DIIS
   @DF-RKS iter  15:  -381.42448726978353   -1.81899e-12   7.65241e-09 DIIS

  ==> Post-Iterations <==

    Orbital Energies [Eh]
    ---------------------

    Doubly Occupied:                                                      

       1A    -14.587999     2A    -14.510510     3A    -10.502534  
       4A    -10.372029     5A    -10.359936     6A    -10.357947  
       7A    -10.348391     8A    -10.343245     9A    -10.342428  
      10A     -1.178816    11A     -1.077696    12A     -1.015778  
      13A     -0.926066    14A     -0.904253    15A     -0.841889  
      16A     -0.777395    17A     -0.769695    18A     -0.742500  
      19A     -0.716247    20A     -0.706282    21A     -0.672660  
      22A     -0.629797    23A     -0.606360    24A     -0.586767  
      25A     -0.578308    26A     -0.556176    27A     -0.518406  
      28A     -0.509548    29A     -0.500146    30A     -0.437520  
      31A     -0.411657    32A     -0.406165  

    Virtual:                                                              

      33A     -0.256736    34A     -0.157083    35A     -0.144440  
      36A     -0.098487    37A     -0.074036    38A     -0.049685  
      39A     -0.036873    40A     -0.009839    41A      0.005160  
      42A      0.014369    43A      0.025429    44A      0.057309  
      45A      0.064894    46A      0.094023    47A      0.130188  
      48A      0.139448    49A      0.155526    50A      0.163173  
      51A      0.209093    52A      0.240257    53A      0.297695  
      54A      0.355842    55A      0.360365    56A      0.381062  
      57A      0.394752    58A      0.403369    59A      0.413910  
      60A      0.423173    61A      0.438638    62A      0.448103  
      63A      0.456012    64A      0.469525    65A      0.471032  
      66A      0.482085    67A      0.488774    68A      0.504895  
      69A      0.529602    70A      0.539416    71A      0.560462  
      72A      0.580534    73A      0.613526    74A      0.636948  
      75A      0.665488    76A      0.682308    77A      0.684745  
      78A      0.700705    79A      0.714239    80A      0.725945  
      81A      0.738242    82A      0.753679    83A      0.765746  
      84A      0.773083    85A      0.807326    86A      0.831393  
      87A      0.848629    88A      0.891975    89A      0.956724  
      90A      0.959670    91A      0.982616    92A      1.017338  
      93A      1.041449    94A      1.092230    95A      1.138960  
      96A      1.156063    97A      1.253751    98A      1.272291  
      99A      1.285237   100A      1.305021   101A      1.324198  
     102A      1.339601   103A      1.360148   104A      1.382968  
     105A      1.433943   106A      1.480975   107A      1.497007  
     108A      1.578285   109A      1.626587   110A      1.669911  
     111A      1.705411   112A      1.725278   113A      1.758224  
     114A      1.776193   115A      1.804791   116A      1.828184  
     117A      1.892882   118A      1.953498   119A      1.961614  
     120A      1.986584   121A      1.995885   122A      2.008750  
     123A      2.018274   124A      2.067541   125A      2.115992  
     126A      2.125935   127A      2.150133   128A      2.193864  
     129A      2.209320   130A      2.317108   131A      2.363706  
     132A      2.432583   133A      2.446996   134A      2.458863  
     135A      2.484350   136A      2.515760   137A      2.559516  
     138A      2.585491   139A      2.597275   140A      2.624337  
     141A      2.730909   142A      2.838517   143A      2.977420  
     144A      3.255969   145A      3.615422   146A      3.704651  
     147A      3.910586   148A      3.943553   149A      3.961890  
     150A      4.040252   151A      4.171356   152A      4.249013  
     153A      4.543530  

    Final Occupation by Irrep:
              A 
    DOCC [    32 ]

  Energy converged.

  @DF-RKS Final Energy:  -381.42448726978353

   => Energetics <=

    Nuclear Repulsion Energy =            416.5816737112738224
    One-Electron Energy =               -1328.4696294736972959
    Two-Electron Energy =                 574.8876994990132516
    DFT Exchange-Correlation Energy =     -44.4123231363733169
    Empirical Dispersion Energy =          -0.0119078700000000
    VV10 Nonlocal Energy =                  0.0000000000000000
    Total Energy =                       -381.4244872697834694



Properties will be evaluated at   0.000000,   0.000000,   0.000000 [a0]

Properties computed using the SCF density matrix

  Nuclear Dipole Moment: [e a0]
     X:     0.1307      Y:     0.0009      Z:    -0.1169

  Electronic Dipole Moment: [e a0]
     X:     0.1571      Y:     0.2731      Z:    -1.9040

  Dipole Moment: [e a0]
     X:     0.2878      Y:     0.2740      Z:    -2.0209     Total:     2.0596

  Dipole Moment: [D]
     X:     0.7316      Y:     0.6964      Z:    -5.1366     Total:     5.2350


*** tstop() called on green.prib.upf.edu at Sat Sep 29 20:34:39 2018
Module time:
	user time   =     102.79 seconds =       1.71 minutes
	system time =       0.48 seconds =       0.01 minutes
	total time  =         28 seconds =       0.47 minutes
Total time:
	user time   =     102.79 seconds =       1.71 minutes
	system time =       0.48 seconds =       0.01 minutes
	total time  =         28 seconds =       0.47 minutes

*** tstart() called on green.prib.upf.edu
*** at Sat Sep 29 20:34:39 2018


         ------------------------------------------------------------
                                   SCF GRAD                          
                          Rob Parrish, Justin Turney,                
                       Andy Simmonett, and Alex Sokolov              
         ------------------------------------------------------------

  ==> Geometry <==

    Molecular point group: c1
    Full point group: C1

    Geometry (in Angstrom), charge = 1, multiplicity = 1:

       Center              X                  Y                   Z               Mass       
    ------------   -----------------  -----------------  -----------------  -----------------
         C            0.000000000000     0.000000000000    -0.177864000000    12.000000000000
         C            0.036678000000     1.219374000000     0.524165000000    12.000000000000
         C            0.031765000000     1.213120000000     1.915444000000    12.000000000000
         C            0.000000000000     0.000000000000     2.610107000000    12.000000000000
         C           -0.031765000000    -1.213120000000     1.915444000000    12.000000000000
         C           -0.036678000000    -1.219375000000     0.524165000000    12.000000000000
         C            0.000000000000     0.000000000000    -1.644734000000    12.000000000000
         H            0.018170000000     2.164705000000    -0.010854000000     1.007825032070
         H            0.042402000000     2.152895000000     2.457886000000     1.007825032070
         H            0.000000000000     0.000000000000     3.695756000000     1.007825032070
         H           -0.042402000000    -2.152895000000     2.457886000000     1.007825032070
         H           -0.018170000000    -2.164705000000    -0.010853000000     1.007825032070
         N           -0.712590000000    -0.905950000000    -2.308461000000    14.003074004780
         N            0.712590000000     0.905950000000    -2.308460000000    14.003074004780
         H            0.673432000000     1.006470000000    -3.315997000000     1.007825032070
         H            1.377190000000     1.485970000000    -1.813316000000     1.007825032070
         H           -1.614535000000    -0.655552000000    -2.691971000000     1.007825032070
         H           -0.366905000000    -1.836391000000    -2.512294000000     1.007825032070

  Nuclear repulsion =  416.581673711273822

  ==> Basis Set <==

  Basis Set: 6-31G*
    Blend: 6-31G*
    Number of shells: 72
    Number of basis function: 153
    Number of Cartesian functions: 153
    Spherical Harmonics?: false
    Max angular momentum: 2

  ==> DFJKGrad: Density-Fitted SCF Gradients <==

    Gradient:                    1
    J tasked:                  Yes
    K tasked:                  Yes
    wK tasked:                  No
    OpenMP threads:              4
    Integrals threads:           4
    Memory (MB):              2002
    Schwarz Cutoff:          0E+00
    Fitting Condition:       1E-12

   => Auxiliary Basis Set <=

  Basis Set: (6-31G* AUX)
    Blend: CC-PVDZ-JKFIT
    Number of shells: 297
    Number of basis function: 954
    Number of Cartesian functions: 954
    Spherical Harmonics?: false
    Max angular momentum: 3

  ==> DFT Potential <==

   => Composite Functional: B3LYP-D3ZERO <= 

    B3LYP-d3zero Hyb-GGA Exchange-Correlation Functional

    P. J. Stephens, F. J. Devlin, C. F. Chabalowski, and M. J. Frisch, J. Phys. Chem. 98, 11623 (1994)

    Deriv               =              1
    GGA                 =           TRUE
    Meta                =          FALSE

    Exchange Hybrid     =           TRUE
    MP2 Hybrid          =          FALSE

   => Exchange Functionals <=

    0.0800   Slater exchange
    0.7200         Becke 88

   => Exact (HF) Exchange <=

    0.2000               HF 

   => Correlation Functionals <=

    0.1900   Vosko, Wilk & Nusair (VWN5_RPA)
    0.8100   Lee, Yang & Parr

   => Molecular Quadrature <=

    Radial Scheme       =       TREUTLER
    Pruning Scheme      =           FLAT
    Nuclear Scheme      =       TREUTLER

    BS radius alpha     =              1
    Pruning alpha       =              1
    Radial Points       =             75
    Spherical Points    =            302
    Total Points        =         397069
    Total Blocks        =           3016
    Max Points          =            256
    Max Functions       =            149


  -Total Gradient:
     Atom            X                  Y                   Z
    ------   -----------------  -----------------  -----------------
       1       -0.006996757004    -0.005063372967     0.009476509969
       2       -0.003626395987    -0.002374807512    -0.005482461166
       3        0.000785985221    -0.002285260516     0.001324389582
       4       -0.000143064953    -0.000533537407    -0.000478813135
       5       -0.001307844730     0.001560892799     0.003052042641
       6        0.002185114033     0.003560180060    -0.003141834497
       7       -0.030776005583    -0.029021163428    -0.029060037128
       8        0.000136610990    -0.000193402909    -0.000093741080
       9        0.000462963174    -0.000005624846    -0.000171480661
      10        0.000258675960    -0.000083438295    -0.000066521496
      11       -0.000126978233    -0.000018806211     0.000022296317
      12        0.002643778265    -0.001195910862     0.000120867763
      13        0.027014970158     0.031194949086     0.035063855820
      14        0.006356699002     0.006187651738    -0.011077056450
      15        0.001731217973     0.004607504438     0.002786755062
      16        0.000428203809    -0.006453563210    -0.001569349786
      17        0.000155885710     0.002141269606     0.001196130261
      18        0.000819360072    -0.002016713922    -0.001903452195


*** tstop() called on green.prib.upf.edu at Sat Sep 29 20:34:45 2018
Module time:
	user time   =      25.64 seconds =       0.43 minutes
	system time =       0.26 seconds =       0.00 minutes
	total time  =          6 seconds =       0.10 minutes
Total time:
	user time   =     128.49 seconds =       2.14 minutes
	system time =       0.74 seconds =       0.01 minutes
	total time  =         34 seconds =       0.57 minutes

			-----------------------------------------
			 OPTKING 2.0: for geometry optimizations 
			  - R.A. King,  Bethel University        
			-----------------------------------------
	At level 1: Red. Int., RFO, no backsteps, dynamic trust

	Internal coordinates to be generated automatically.
	Detected frag 1 with atoms:  1 2 3 4 5 6 7 8 9 10 11 12 13 14 15 16 17 18
	---Fragment 1 Bond Connectivity---
	 1 : 2 6 7
	 2 : 1 3 8
	 3 : 2 4 9
	 4 : 3 5 10
	 5 : 4 6 11
	 6 : 1 5 12
	 7 : 1 13 14
	 8 : 2
	 9 : 3
	 10 : 4
	 11 : 5
	 12 : 6
	 13 : 7 17 18
	 14 : 7 15 16
	 15 : 14
	 16 : 14
	 17 : 13
	 18 : 13

	Assuming in current code that numbering for constraints corresponds to unified fragment.
	Frozen dihedral atom list: 
	     1     7    13    17
	---Fragment 1 Geometry and Gradient---
	 C           0.0000000000        0.0000000000       -0.3361142489
	 C           0.0693113751        2.3042829136        0.9905282984
	 C           0.0600271506        2.2924645663        3.6196645829
	 C           0.0000000000        0.0000000000        4.9323874075
	 C          -0.0600271506       -2.2924645663        3.6196645829
	 C          -0.0693113751       -2.3042848033        0.9905282984
	 C           0.0000000000        0.0000000000       -3.1080968214
	 H           0.0343363238        4.0906996085       -0.0205110874
	 H           0.0801281675        4.0683819429        4.6447314059
	 H           0.0000000000        0.0000000000        6.9839666940
	 H          -0.0801281675       -4.0683819429        4.6447314059
	 H          -0.0343363238       -4.0906996085       -0.0205091977
	 N          -1.3465999450       -1.7119973901       -4.3623590784
	 N           1.3465999450        1.7119973901       -4.3623571887
	 H           1.2726020491        1.9019526610       -6.2663261875
	 H           2.6025119329        2.8080763417       -3.4266706324
	 H          -3.0510289820       -1.2388137459       -5.0870879477
	 H          -0.6933499668       -3.4702760629       -4.7475476253
	            -0.0069967570       -0.0050633730        0.0094765100
	            -0.0036263960       -0.0023748075       -0.0054824612
	             0.0007859852       -0.0022852605        0.0013243896
	            -0.0001430650       -0.0005335374       -0.0004788131
	            -0.0013078447        0.0015608928        0.0030520426
	             0.0021851140        0.0035601801       -0.0031418345
	            -0.0307760056       -0.0290211634       -0.0290600371
	             0.0001366110       -0.0001934029       -0.0000937411
	             0.0004629632       -0.0000056248       -0.0001714807
	             0.0002586760       -0.0000834383       -0.0000665215
	            -0.0001269782       -0.0000188062        0.0000222963
	             0.0026437783       -0.0011959109        0.0001208678
	             0.0270149702        0.0311949491        0.0350638558
	             0.0063566990        0.0061876517       -0.0110770565
	             0.0017312180        0.0046075044        0.0027867551
	             0.0004282038       -0.0064535632       -0.0015693498
	             0.0001558857        0.0021412696        0.0011961303
	             0.0008193601       -0.0020167139       -0.0019034522

	Previous optimization step data not found.  Starting new optimization.

	---Fragment 1 Intrafragment Coordinates---
	 - Coordinate -           - BOHR/RAD -       - ANG/DEG -
	 R(1,2)           =         2.659794	       1.407502
	 R(1,6)           =         2.659796	       1.407503
	 R(1,7)           =         2.771983	       1.466870
	 R(2,3)           =         2.629179	       1.391302
	 R(2,8)           =         2.052976	       1.086388
	 R(3,4)           =         2.642393	       1.398294
	 R(3,9)           =         2.050622	       1.085142
	 R(4,5)           =         2.642393	       1.398294
	 R(4,10)          =         2.051579	       1.085649
	 R(5,6)           =         2.629179	       1.391302
	 R(5,11)          =         2.050622	       1.085142
	 R(6,12)          =         2.052973	       1.086386
	 R(7,13)          =         2.513452	       1.330061
	 R(7,14)          =         2.513451	       1.330061
	 R(13,17)         =         1.911600	       1.011575
	 R(13,18)         =         1.914850	       1.013295
	 R(14,15)         =         1.914852	       1.013296
	 R(14,16)         =         1.911600	       1.011575
	 B(1,2,3)         =         2.088380	     119.655376
	 B(1,2,8)         =         2.103396	     120.515689
	 B(1,6,5)         =         2.088379	     119.655315
	 B(1,6,12)        =         2.103396	     120.515729
	 B(1,7,13)        =         2.093264	     119.935172
	 B(1,7,14)        =         2.093263	     119.935135
	 B(2,1,6)         =         2.097220	     120.161857
	 B(2,1,7)         =         2.092983	     119.919082
	 B(2,3,4)         =         2.095279	     120.050636
	 B(2,3,9)         =         2.089719	     119.732108
	 B(3,2,8)         =         2.090149	     119.756722
	 B(3,4,5)         =         2.101793	     120.423859
	 B(3,4,10)        =         2.090696	     119.788070
	 B(4,3,9)         =         2.098135	     120.214297
	 B(4,5,6)         =         2.095280	     120.050677
	 B(4,5,11)        =         2.098135	     120.214297
	 B(5,4,10)        =         2.090696	     119.788070
	 B(5,6,12)        =         2.090149	     119.756743
	 B(6,1,7)         =         2.092982	     119.919061
	 B(6,5,11)        =         2.089719	     119.732067
	 B(7,13,17)       =         2.092411	     119.886302
	 B(7,13,18)       =         2.144860	     122.891417
	 B(7,14,15)       =         2.144860	     122.891405
	 B(7,14,16)       =         2.092412	     119.886393
	 B(13,7,14)       =         2.096659	     120.129694
	 B(15,14,16)      =         2.043399	     117.078146
	 B(17,13,18)      =         2.043400	     117.078221
	 D(1,2,3,4)       =         0.007799	       0.446825
	 D(1,2,3,9)       =        -3.122896	    -178.928735
	 D(1,6,5,4)       =         0.007799	       0.446822
	 D(1,6,5,11)      =        -3.122896	    -178.928737
	*D(1,7,13,17)     =         1.745329	      99.999976
	 D(1,7,13,18)     =        -1.474681	     -84.492988
	 D(1,7,14,15)     =        -3.032165	    -173.730230
	 D(1,7,14,16)     =         0.187844	      10.762681
	 D(2,1,6,5)       =        -0.003906	      -0.223802
	 D(2,1,6,12)      =        -3.091437	    -177.126283
	 D(2,1,7,13)      =        -2.505167	    -143.535494
	 D(2,1,7,14)      =         0.636426	      36.464506
	 D(2,3,4,5)       =        -0.003942	      -0.225875
	 D(2,3,4,10)      =         3.137650	     179.774125
	 D(3,2,1,6)       =        -0.003906	      -0.223806
	 D(3,2,1,7)       =         3.137687	     179.776196
	 D(3,4,5,6)       =        -0.003942	      -0.225874
	 D(3,4,5,11)      =         3.126699	     179.146646
	 D(4,3,2,8)       =         3.095744	     177.373058
	 D(4,5,6,12)      =         3.095744	     177.373055
	 D(5,4,3,9)       =         3.126699	     179.146646
	 D(5,6,1,7)       =         3.137687	     179.776197
	 D(6,1,2,8)       =        -3.091437	    -177.126287
	 D(6,1,7,13)      =         0.636426	      36.464508
	 D(6,1,7,14)      =        -2.505167	    -143.535492
	 D(6,5,4,10)      =         3.137650	     179.774126
	 D(7,1,2,8)       =         0.050156	       2.873714
	 D(7,1,6,12)      =         0.050156	       2.873716
	 D(8,2,3,9)       =        -0.034950	      -2.002503
	 D(9,3,4,10)      =        -0.014894	      -0.853354
	 D(10,4,5,11)     =        -0.014894	      -0.853354
	 D(11,5,6,12)     =        -0.034950	      -2.002504
	 D(13,7,14,15)    =         0.109428	       6.269770
	 D(13,7,14,16)    =        -2.953748	    -169.237319
	 D(14,7,13,17)    =        -1.396264	     -80.000024
	 D(14,7,13,18)    =         1.666912	      95.507012

	Current energy   :      -381.4244872698

	Generating empirical Hessian (Schlegel '84) for each fragment.
	Taking RFO optimization step.
	Going to follow RFO solution 1.
	Using RFO vector 1.
	Norm of target step-size    0.46153
	Projected energy change by RFO approximation:        -0.0162722888

	Back-transformation to cartesian coordinates...
	Could not converge backtransformation.
	Using first guess instead.

	Back-transformation to cartesian coordinates to adjust frozen coordinates...
	Successfully converged to displaced geometry.

	--- Internal Coordinate Step in ANG or DEG, aJ/ANG or AJ/DEG ---
	 ---------------------------------------------------------------------------
	   Coordinate                Previous        Force       Change         New 
	   ----------                --------       ------       ------       ------
	    1 R(1,2)          =      1.407502     0.042303     0.008784     1.416287
	    2 R(1,6)          =      1.407503     0.017744     0.006212     1.413715
	    3 R(1,7)          =      1.466870    -0.037588    -0.006361     1.460509
	    4 R(2,3)          =      1.391302    -0.012076    -0.001470     1.389831
	    5 R(2,8)          =      1.086388     0.001028     0.002071     1.088459
	    6 R(3,4)          =      1.398294     0.008526     0.003261     1.401555
	    7 R(3,9)          =      1.085142     0.000711     0.001430     1.086572
	    8 R(4,5)          =      1.398294     0.017696     0.004792     1.403086
	    9 R(4,10)         =      1.085649     0.000547     0.000126     1.085775
	   10 R(5,6)          =      1.391302    -0.018239    -0.002428     1.388874
	   11 R(5,11)         =      1.085142    -0.000239     0.002660     1.087802
	   12 R(6,12)         =      1.086386    -0.008456     0.004388     1.090775
	   13 R(7,13)         =      1.330061     0.440546     0.052256     1.382317
	   14 R(7,14)         =      1.330061    -0.102480    -0.002666     1.327395
	   15 R(13,17)        =      1.011575     0.000514     0.004973     1.016548
	   16 R(13,18)        =      1.013295    -0.020716     0.002874     1.016169
	   17 R(14,15)        =      1.013296     0.019616     0.003815     1.017111
	   18 R(14,16)        =      1.011575     0.034499     0.026768     1.038343
	   19 B(1,2,3)        =    119.655376     0.000036     0.048189   119.703565
	   20 B(1,2,8)        =    120.515689    -0.000006     0.083209   120.598898
	   21 B(1,6,5)        =    119.655315    -0.000003    -0.142933   119.512381
	   22 B(1,6,12)       =    120.515729    -0.000049     0.038750   120.554480
	   23 B(1,7,13)       =    119.935172     0.001017     2.747500   122.682672
	   24 B(1,7,14)       =    119.935135    -0.000487    -1.621496   118.313639
	   25 B(2,1,6)        =    120.161857    -0.000069    -0.021857   120.140000
	   26 B(2,1,7)        =    119.919082     0.000252     0.670121   120.589202
	   27 B(2,3,4)        =    120.050636    -0.000064    -0.226701   119.823935
	   28 B(2,3,9)        =    119.732108     0.000044     0.086491   119.818599
	   29 B(3,2,8)        =    119.756722    -0.000032    -0.173034   119.583688
	   30 B(3,4,5)        =    120.423859     0.000068     0.279241   120.703100
	   31 B(3,4,10)       =    119.788070    -0.000040    -0.136085   119.651985
	   32 B(4,3,9)        =    120.214297     0.000020     0.141713   120.356009
	   33 B(4,5,6)        =    120.050677     0.000031     0.029617   120.080295
	   34 B(4,5,11)       =    120.214297    -0.000014     0.122932   120.337228
	   35 B(5,4,10)       =    119.788070    -0.000028    -0.147732   119.640338
	   36 B(5,6,12)       =    119.756743     0.000054     0.156248   119.912991
	   37 B(6,1,7)        =    119.919061    -0.000184    -0.655297   119.263764
	   38 B(6,5,11)       =    119.732067    -0.000016    -0.153798   119.578269
	   39 B(7,13,17)      =    119.886302     0.000267     1.233708   121.120010
	   40 B(7,13,18)      =    122.891417    -0.000177    -0.854808   122.036610
	   41 B(7,14,15)      =    122.891405    -0.000528    -2.649319   120.242086
	   42 B(7,14,16)      =    119.886393     0.000378     2.282160   122.168553
	   43 B(13,7,14)      =    120.129694    -0.000530    -1.149935   118.979759
	   44 B(15,14,16)     =    117.078146     0.000161     0.510858   117.589004
	   45 B(17,13,18)     =    117.078221    -0.000087    -0.325570   116.752651
	   46 D(1,2,3,4)      =      0.446825     0.000010     1.011746     1.458571
	   47 D(1,2,3,9)      =   -178.928735     0.000008     0.824770  -178.103966
	   48 D(1,6,5,4)      =      0.446822     0.000013     1.455734     1.902556
	   49 D(1,6,5,11)     =   -178.928737     0.000001     0.087612  -178.841126
	   50 *D(1,7,13,17)   =     99.999976     0.000000    -0.000000    99.999976
	   51 D(1,7,13,18)    =    -84.492988     0.000011     0.916396   -83.576591
	   52 D(1,7,14,15)    =   -173.730230    -0.000021    -1.816677  -175.546906
	   53 D(1,7,14,16)    =     10.762681    -0.000062    -6.086900     4.675781
	   54 D(2,1,6,5)      =     -0.223802    -0.000012    -1.328955    -1.552756
	   55 D(2,1,6,12)     =   -177.126283    -0.000025    -2.792366  -179.918649
	   56 D(2,1,7,13)     =   -143.535494    -0.000057    -9.402866  -152.938360
	   57 D(2,1,7,14)     =     36.464506    -0.000073   -11.202119    25.262388
	   58 D(2,3,4,5)      =     -0.225875    -0.000008    -0.893642    -1.119517
	   59 D(2,3,4,10)     =    179.774125    -0.000001    -0.112597   179.661528
	   60 D(3,2,1,6)      =     -0.223806    -0.000000     0.088309    -0.135497
	   61 D(3,2,1,7)      =    179.776196    -0.000008    -0.883517   178.892678
	   62 D(3,4,5,6)      =     -0.225874    -0.000004    -0.359861    -0.585735
	   63 D(3,4,5,11)     =    179.146646     0.000009     1.016999   180.163646
	   64 D(4,3,2,8)      =    177.373058     0.000002     0.230234   177.603291
	   65 D(4,5,6,12)     =    177.373055     0.000026     2.906024   180.279079
	   66 D(5,4,3,9)      =    179.146646    -0.000006    -0.706011   178.440635
	   67 D(5,6,1,7)      =    179.776197    -0.000003    -0.369985   179.406212
	   68 D(6,1,2,8)      =   -177.126287     0.000008     0.885921  -176.240366
	   69 D(6,1,7,13)     =     36.464508    -0.000065   -10.366251    26.098257
	   70 D(6,1,7,14)     =   -143.535492    -0.000081   -12.165503  -155.700996
	   71 D(6,5,4,10)     =    179.774126    -0.000011    -1.140816   178.633310
	   72 D(7,1,2,8)      =      2.873714    -0.000001    -0.085906     2.787808
	   73 D(7,1,6,12)     =      2.873716    -0.000017    -1.833397     1.040319
	   74 D(8,2,3,9)      =     -2.002503     0.000001     0.043258    -1.959245
	   75 D(9,3,4,10)     =     -0.853354     0.000001     0.075034    -0.778320
	   76 D(10,4,5,11)    =     -0.853354     0.000002     0.236045    -0.617309
	   77 D(11,5,6,12)    =     -2.002504     0.000014     1.537902    -0.464602
	   78 D(13,7,14,15)   =      6.269770    -0.000037    -3.547794     2.721976
	   79 D(13,7,14,16)   =   -169.237319    -0.000079    -7.818018  -177.055337
	   80 D(14,7,13,17)   =    -80.000024     0.000016     1.810720   -78.189304
	   81 D(14,7,13,18)   =     95.507012     0.000027     2.727116    98.234128
	 ---------------------------------------------------------------------------
	Successfully symmetrized geometry.

  ==> Convergence Check <==

  Measures of convergence in internal coordinates in au.
  Criteria marked as inactive (o), active & met (*), and active & unmet ( ).
  --------------------------------------------------------------------------------------------- ~
   Step     Total Energy     Delta E     MAX Force     RMS Force      MAX Disp      RMS Disp    ~
  --------------------------------------------------------------------------------------------- ~
    Convergence Criteria    1.00e-06 *    3.00e-04 *             o    1.20e-03 *             o  ~
  --------------------------------------------------------------------------------------------- ~
      1    -381.42448727   -3.81e+02      5.35e-02      6.68e-03 o    2.12e-01      5.13e-02 o  ~
  ---------------------------------------------------------------------------------------------

	Writing optimization data to binary file.
	Structure for next step:
	Cartesian Geometry (in Angstrom)
	    C     0.0202281529  -0.0005156130  -0.1722105513
	    C     0.1441578548   1.2208891594   0.5339624428
	    C     0.1264745125   1.2177609800   1.9236777828
	    C     0.0170961780   0.0044299087   2.6166574605
	    C    -0.0985725609  -1.2092765327   1.9222593333
	    C    -0.1179490923  -1.2176457679   0.5335455105
	    C     0.0122025887  -0.0171623653  -1.6326025729
	    H     0.1897250853   2.1678648726  -0.0007369731
	    H     0.1903506609   2.1565961218   2.4669532299
	    H     0.0091050206   0.0047643489   3.7024029770
	    H    -0.1857894235  -2.1473045390   2.4661436380
	    H    -0.2125578358  -2.1623510605  -0.0034561279
	    N    -0.6205883905  -1.0045353911  -2.3643617043
	    N     0.6090209947   0.9781863560  -2.2768591649
	    H     0.5631421124   1.0321160423  -3.2915027378
	    H     1.1367195305   1.7211549606  -1.7791773630
	    H    -1.5388207429  -0.8494778750  -2.7720078222
	    H    -0.1747626454  -1.8949976056  -2.5666383575
			--------------------------
			 OPTKING Finished Execution 
			--------------------------

    Structure for next step:
    Molecular point group: c1
    Full point group: C1

    Geometry (in Angstrom), charge = 1, multiplicity = 1:

    C            0.020228152881    -0.000515613038    -0.172210551273
    C            0.144157854794     1.220889159374     0.533962442846
    C            0.126474512489     1.217760979953     1.923677782786
    C            0.017096177993     0.004429908655     2.616657460511
    C           -0.098572560912    -1.209276532704     1.922259333270
    C           -0.117949092279    -1.217645767921     0.533545510545
    C            0.012202588744    -0.017162365279    -1.632602572875
    H            0.189725085328     2.167864872644    -0.000736973058
    H            0.190350660889     2.156596121765     2.466953229915
    H            0.009105020623     0.004764348871     3.702402977020
    H           -0.185789423517    -2.147304538987     2.466143638047
    H           -0.212557835766    -2.162351060456    -0.003456127873
    N           -0.620588390521    -1.004535391145    -2.364361704316
    N            0.609020994662     0.978186356017    -2.276859164921
    H            0.563142112415     1.032116042326    -3.291502737787
    H            1.136719530504     1.721154960574    -1.779177363048
    H           -1.538820742922    -0.849477875040    -2.772007822241
    H           -0.174762645403    -1.894997605609    -2.566638357549

gradient() will perform analytic gradient computation.

*** tstart() called on green.prib.upf.edu
*** at Sat Sep 29 20:34:46 2018

   => Loading Basis Set <=

    Name: 6-31G*
    Role: ORBITAL
    Keyword: BASIS
    atoms 1-7         entry C          line   111 file /shared/joao/test_parameterize/miniconda3/share/psi4/basis/6-31gs.gbs 
    atoms 8-12, 15-18 entry H          line    44 file /shared/joao/test_parameterize/miniconda3/share/psi4/basis/6-31gs.gbs 
    atoms 13-14       entry N          line   128 file /shared/joao/test_parameterize/miniconda3/share/psi4/basis/6-31gs.gbs 


         ---------------------------------------------------------
                                   SCF
            by Justin Turney, Rob Parrish, Andy Simmonett
                             and Daniel Smith
                              RKS Reference
                        4 Threads,   2861 MiB Core
         ---------------------------------------------------------

  ==> Geometry <==

    Molecular point group: c1
    Full point group: C1

    Geometry (in Angstrom), charge = 1, multiplicity = 1:

       Center              X                  Y                   Z               Mass       
    ------------   -----------------  -----------------  -----------------  -----------------
         C            0.020228152881    -0.000515613038    -0.172210551273    12.000000000000
         C            0.144157854794     1.220889159374     0.533962442846    12.000000000000
         C            0.126474512489     1.217760979953     1.923677782786    12.000000000000
         C            0.017096177993     0.004429908655     2.616657460511    12.000000000000
         C           -0.098572560912    -1.209276532704     1.922259333270    12.000000000000
         C           -0.117949092279    -1.217645767921     0.533545510545    12.000000000000
         C            0.012202588744    -0.017162365279    -1.632602572875    12.000000000000
         H            0.189725085328     2.167864872644    -0.000736973058     1.007825032070
         H            0.190350660889     2.156596121765     2.466953229915     1.007825032070
         H            0.009105020623     0.004764348871     3.702402977020     1.007825032070
         H           -0.185789423517    -2.147304538987     2.466143638047     1.007825032070
         H           -0.212557835766    -2.162351060456    -0.003456127873     1.007825032070
         N           -0.620588390521    -1.004535391145    -2.364361704316    14.003074004780
         N            0.609020994662     0.978186356017    -2.276859164921    14.003074004780
         H            0.563142112415     1.032116042326    -3.291502737787     1.007825032070
         H            1.136719530504     1.721154960574    -1.779177363048     1.007825032070
         H           -1.538820742922    -0.849477875040    -2.772007822241     1.007825032070
         H           -0.174762645403    -1.894997605609    -2.566638357549     1.007825032070

  Running in c1 symmetry.

  Rotational constants: A =      0.11940  B =      0.03981  C =      0.03071 [cm^-1]
  Rotational constants: A =   3579.60093  B =   1193.52756  C =    920.60564 [MHz]
  Nuclear repulsion =  414.806597960162435

  Charge       = 1
  Multiplicity = 1
  Electrons    = 64
  Nalpha       = 32
  Nbeta        = 32

  ==> Algorithm <==

  SCF Algorithm Type is DF.
  DIIS enabled.
  MOM disabled.
  Fractional occupation disabled.
  Guess Type is READ.
  Energy threshold   = 1.00e-08
  Density threshold  = 1.00e-08
  Integral threshold = 0.00e+00

  ==> Primary Basis <==

  Basis Set: 6-31G*
    Blend: 6-31G*
    Number of shells: 72
    Number of basis function: 153
    Number of Cartesian functions: 153
    Spherical Harmonics?: false
    Max angular momentum: 2

  ==> DFT Potential <==

   => Composite Functional: B3LYP-D3ZERO <= 

    B3LYP-d3zero Hyb-GGA Exchange-Correlation Functional

    P. J. Stephens, F. J. Devlin, C. F. Chabalowski, and M. J. Frisch, J. Phys. Chem. 98, 11623 (1994)

    Deriv               =              1
    GGA                 =           TRUE
    Meta                =          FALSE

    Exchange Hybrid     =           TRUE
    MP2 Hybrid          =          FALSE

   => Exchange Functionals <=

    0.0800   Slater exchange
    0.7200         Becke 88

   => Exact (HF) Exchange <=

    0.2000               HF 

   => Correlation Functionals <=

    0.1900   Vosko, Wilk & Nusair (VWN5_RPA)
    0.8100   Lee, Yang & Parr

   => Molecular Quadrature <=

    Radial Scheme       =       TREUTLER
    Pruning Scheme      =           FLAT
    Nuclear Scheme      =       TREUTLER

    BS radius alpha     =              1
    Pruning alpha       =              1
    Radial Points       =             75
    Spherical Points    =            302
    Total Points        =         396959
    Total Blocks        =           3030
    Max Points          =            256
    Max Functions       =            149

   => -D3ZERO: Empirical Dispersion <=

    Grimme's -D3 (zero-damping) Dispersion Correction
    Grimme S.; Antony J.; Ehrlich S.; Krieg H. (2010), J. Chem. Phys., 132: 154104

        S6 =   1.000000E+00
        S8 =   1.703000E+00
       SR6 =   1.261000E+00
       SR8 =   1.000000E+00
    ALPHA6 =   1.400000E+01

   => Loading Basis Set <=

    Name: (6-31G* AUX)
    Role: JKFIT
    Keyword: DF_BASIS_SCF
    atoms 1-7         entry C          line   121 file /shared/joao/test_parameterize/miniconda3/share/psi4/basis/cc-pvdz-jkfit.gbs 
    atoms 8-12, 15-18 entry H          line    51 file /shared/joao/test_parameterize/miniconda3/share/psi4/basis/cc-pvdz-jkfit.gbs 
    atoms 13-14       entry N          line   171 file /shared/joao/test_parameterize/miniconda3/share/psi4/basis/cc-pvdz-jkfit.gbs 

  Reading orbitals from file 180, no projection.

  ==> Pre-Iterations <==

   -------------------------------------------------------
    Irrep   Nso     Nmo     Nalpha   Nbeta   Ndocc  Nsocc
   -------------------------------------------------------
     A        153     153       0       0       0       0
   -------------------------------------------------------
    Total     153     153      32      32      32       0
   -------------------------------------------------------

  ==> Integral Setup <==

  ==> DiskDFJK: Density-Fitted J/K Matrices <==

    J tasked:                  Yes
    K tasked:                  Yes
    wK tasked:                  No
    OpenMP threads:              4
    Integrals threads:           4
    Memory (MB):              2002
    Algorithm:                Core
    Integral Cache:           NONE
    Schwarz Cutoff:          1E-12
    Fitting Condition:       1E-12

   => Auxiliary Basis Set <=

  Basis Set: (6-31G* AUX)
    Blend: CC-PVDZ-JKFIT
    Number of shells: 297
    Number of basis function: 954
    Number of Cartesian functions: 954
    Spherical Harmonics?: false
    Max angular momentum: 3

  Minimum eigenvalue in the overlap matrix is 4.9707358284E-04.
  Using Symmetric Orthogonalization.

  SCF Guess: Orbitals guess was supplied from a previous computation.

  ==> Iterations <==

                           Total Energy        Delta E     RMS |[F,P]|

   @DF-RKS iter   0:  -381.33840978608538   -3.81338e+02   4.05342e-03 
   @DF-RKS iter   1:  -381.42884871125858   -9.04389e-02   6.61040e-04 
   @DF-RKS iter   2:  -381.42714202935878    1.70668e-03   1.01967e-03 DIIS
   @DF-RKS iter   3:  -381.43050381060579   -3.36178e-03   1.64470e-04 DIIS
   @DF-RKS iter   4:  -381.43057230479616   -6.84942e-05   7.57647e-05 DIIS
   @DF-RKS iter   5:  -381.43058985499562   -1.75502e-05   2.65790e-05 DIIS
   @DF-RKS iter   6:  -381.43059200884403   -2.15385e-06   7.42739e-06 DIIS
   @DF-RKS iter   7:  -381.43059216659299   -1.57749e-07   3.06588e-06 DIIS
   @DF-RKS iter   8:  -381.43059219238773   -2.57947e-08   6.97799e-07 DIIS
   @DF-RKS iter   9:  -381.43059219390398   -1.51624e-09   2.61786e-07 DIIS
   @DF-RKS iter  10:  -381.43059219414368   -2.39709e-10   1.03190e-07 DIIS
   @DF-RKS iter  11:  -381.43059219418876   -4.50768e-11   4.49495e-08 DIIS
   @DF-RKS iter  12:  -381.43059219419632   -7.56017e-12   1.42710e-08 DIIS
   @DF-RKS iter  13:  -381.43059219419627    5.68434e-14   4.72252e-09 DIIS

  ==> Post-Iterations <==

    Orbital Energies [Eh]
    ---------------------

    Doubly Occupied:                                                      

       1A    -14.587559     2A    -14.512864     3A    -10.502964  
       4A    -10.375256     5A    -10.365263     6A    -10.360584  
       7A    -10.353144     8A    -10.347446     9A    -10.344770  
      10A     -1.170210    11A     -1.062666    12A     -1.016615  
      13A     -0.927144    14A     -0.907164    15A     -0.840363  
      16A     -0.776608    17A     -0.769103    18A     -0.735960  
      19A     -0.710770    20A     -0.696553    21A     -0.667515  
      22A     -0.632107    23A     -0.606171    24A     -0.586072  
      25A     -0.581182    26A     -0.562055    27A     -0.517388  
      28A     -0.511888    29A     -0.502395    30A     -0.435154  
      31A     -0.413664    32A     -0.410074  

    Virtual:                                                              

      33A     -0.256351    34A     -0.158828    35A     -0.140877  
      36A     -0.104877    37A     -0.075111    38A     -0.057317  
      39A     -0.036755    40A     -0.008105    41A      0.005722  
      42A      0.016049    43A      0.023392    44A      0.057820  
      45A      0.061124    46A      0.087318    47A      0.121804  
      48A      0.123164    49A      0.151937    50A      0.170229  
      51A      0.209977    52A      0.231926    53A      0.296476  
      54A      0.349465    55A      0.367311    56A      0.376952  
      57A      0.391368    58A      0.401267    59A      0.414428  
      60A      0.419200    61A      0.433719    62A      0.444341  
      63A      0.454208    64A      0.467096    65A      0.469058  
      66A      0.480608    67A      0.483346    68A      0.497370  
      69A      0.533537    70A      0.547992    71A      0.560975  
      72A      0.581321    73A      0.615657    74A      0.638475  
      75A      0.671543    76A      0.686458    77A      0.695071  
      78A      0.697402    79A      0.714941    80A      0.721648  
      81A      0.741010    82A      0.751026    83A      0.770805  
      84A      0.788940    85A      0.818821    86A      0.833561  
      87A      0.849312    88A      0.890202    89A      0.946676  
      90A      0.967856    91A      0.999844    92A      1.021894  
      93A      1.068260    94A      1.090629    95A      1.128286  
      96A      1.149761    97A      1.241029    98A      1.268850  
      99A      1.281018   100A      1.296524   101A      1.325264  
     102A      1.335504   103A      1.353105   104A      1.384997  
     105A      1.419231   106A      1.475046   107A      1.498159  
     108A      1.564835   109A      1.613698   110A      1.643047  
     111A      1.700888   112A      1.727668   113A      1.747732  
     114A      1.772347   115A      1.791947   116A      1.812791  
     117A      1.888398   118A      1.942135   119A      1.960404  
     120A      1.973664   121A      1.993029   122A      1.999925  
     123A      2.022994   124A      2.065123   125A      2.102775  
     126A      2.123308   127A      2.147388   128A      2.185418  
     129A      2.197453   130A      2.291108   131A      2.349229  
     132A      2.420054   133A      2.439918   134A      2.454693  
     135A      2.472566   136A      2.496412   137A      2.537312  
     138A      2.581716   139A      2.589764   140A      2.620324  
     141A      2.729241   142A      2.805880   143A      2.984559  
     144A      3.242740   145A      3.611498   146A      3.691414  
     147A      3.901583   148A      3.937583   149A      3.958936  
     150A      4.033772   151A      4.164655   152A      4.248016  
     153A      4.538953  

    Final Occupation by Irrep:
              A 
    DOCC [    32 ]

  Energy converged.

  @DF-RKS Final Energy:  -381.43059219419627

   => Energetics <=

    Nuclear Repulsion Energy =            414.8065979601624349
    One-Electron Energy =               -1324.9750373029232833
    Two-Electron Energy =                 573.1180642053417387
    DFT Exchange-Correlation Energy =     -44.3685333367771477
    Empirical Dispersion Energy =          -0.0116837200000000
    VV10 Nonlocal Energy =                  0.0000000000000000
    Total Energy =                       -381.4305921941962652



Properties will be evaluated at   0.000000,   0.000000,   0.000000 [a0]

Properties computed using the SCF density matrix

  Nuclear Dipole Moment: [e a0]
     X:     0.9788      Y:    -0.3122      Z:     0.1609

  Electronic Dipole Moment: [e a0]
     X:    -0.7606      Y:     0.6397      Z:    -2.0358

  Dipole Moment: [e a0]
     X:     0.2183      Y:     0.3275      Z:    -1.8749     Total:     1.9158

  Dipole Moment: [D]
     X:     0.5547      Y:     0.8325      Z:    -4.7655     Total:     4.8694


*** tstop() called on green.prib.upf.edu at Sat Sep 29 20:35:12 2018
Module time:
	user time   =      96.08 seconds =       1.60 minutes
	system time =       0.41 seconds =       0.01 minutes
	total time  =         26 seconds =       0.43 minutes
Total time:
	user time   =     225.42 seconds =       3.76 minutes
	system time =       1.21 seconds =       0.02 minutes
	total time  =         61 seconds =       1.02 minutes

*** tstart() called on green.prib.upf.edu
*** at Sat Sep 29 20:35:12 2018


         ------------------------------------------------------------
                                   SCF GRAD                          
                          Rob Parrish, Justin Turney,                
                       Andy Simmonett, and Alex Sokolov              
         ------------------------------------------------------------

  ==> Geometry <==

    Molecular point group: c1
    Full point group: C1

    Geometry (in Angstrom), charge = 1, multiplicity = 1:

       Center              X                  Y                   Z               Mass       
    ------------   -----------------  -----------------  -----------------  -----------------
         C            0.020228152881    -0.000515613038    -0.172210551273    12.000000000000
         C            0.144157854794     1.220889159374     0.533962442846    12.000000000000
         C            0.126474512489     1.217760979953     1.923677782786    12.000000000000
         C            0.017096177993     0.004429908655     2.616657460511    12.000000000000
         C           -0.098572560912    -1.209276532704     1.922259333270    12.000000000000
         C           -0.117949092279    -1.217645767921     0.533545510545    12.000000000000
         C            0.012202588744    -0.017162365279    -1.632602572875    12.000000000000
         H            0.189725085328     2.167864872644    -0.000736973058     1.007825032070
         H            0.190350660889     2.156596121765     2.466953229915     1.007825032070
         H            0.009105020623     0.004764348871     3.702402977020     1.007825032070
         H           -0.185789423517    -2.147304538987     2.466143638047     1.007825032070
         H           -0.212557835766    -2.162351060456    -0.003456127873     1.007825032070
         N           -0.620588390521    -1.004535391145    -2.364361704316    14.003074004780
         N            0.609020994662     0.978186356017    -2.276859164921    14.003074004780
         H            0.563142112415     1.032116042326    -3.291502737787     1.007825032070
         H            1.136719530504     1.721154960574    -1.779177363048     1.007825032070
         H           -1.538820742922    -0.849477875040    -2.772007822241     1.007825032070
         H           -0.174762645403    -1.894997605609    -2.566638357549     1.007825032070

  Nuclear repulsion =  414.806597960162435

  ==> Basis Set <==

  Basis Set: 6-31G*
    Blend: 6-31G*
    Number of shells: 72
    Number of basis function: 153
    Number of Cartesian functions: 153
    Spherical Harmonics?: false
    Max angular momentum: 2

  ==> DFJKGrad: Density-Fitted SCF Gradients <==

    Gradient:                    1
    J tasked:                  Yes
    K tasked:                  Yes
    wK tasked:                  No
    OpenMP threads:              4
    Integrals threads:           4
    Memory (MB):              2002
    Schwarz Cutoff:          0E+00
    Fitting Condition:       1E-12

   => Auxiliary Basis Set <=

  Basis Set: (6-31G* AUX)
    Blend: CC-PVDZ-JKFIT
    Number of shells: 297
    Number of basis function: 954
    Number of Cartesian functions: 954
    Spherical Harmonics?: false
    Max angular momentum: 3

  ==> DFT Potential <==

   => Composite Functional: B3LYP-D3ZERO <= 

    B3LYP-d3zero Hyb-GGA Exchange-Correlation Functional

    P. J. Stephens, F. J. Devlin, C. F. Chabalowski, and M. J. Frisch, J. Phys. Chem. 98, 11623 (1994)

    Deriv               =              1
    GGA                 =           TRUE
    Meta                =          FALSE

    Exchange Hybrid     =           TRUE
    MP2 Hybrid          =          FALSE

   => Exchange Functionals <=

    0.0800   Slater exchange
    0.7200         Becke 88

   => Exact (HF) Exchange <=

    0.2000               HF 

   => Correlation Functionals <=

    0.1900   Vosko, Wilk & Nusair (VWN5_RPA)
    0.8100   Lee, Yang & Parr

   => Molecular Quadrature <=

    Radial Scheme       =       TREUTLER
    Pruning Scheme      =           FLAT
    Nuclear Scheme      =       TREUTLER

    BS radius alpha     =              1
    Pruning alpha       =              1
    Radial Points       =             75
    Spherical Points    =            302
    Total Points        =         396959
    Total Blocks        =           3030
    Max Points          =            256
    Max Functions       =            149


  -Total Gradient:
     Atom            X                  Y                   Z
    ------   -----------------  -----------------  -----------------
       1       -0.000353006393     0.003865360427     0.006282983282
       2       -0.000995335069     0.002371455638    -0.002723385765
       3       -0.000711497606    -0.000743517360     0.002046946217
       4        0.000333096834     0.002300878334     0.001254375622
       5       -0.000075404692    -0.000274175428    -0.001779717623
       6        0.001195768665     0.000788821471     0.000656374420
       7       -0.005806789350    -0.011661133744    -0.009192428101
       8        0.000818686869     0.000659522219    -0.002295782717
       9        0.000201712780     0.001071707013     0.000223195340
      10        0.000019389948    -0.000047754619    -0.000006178070
      11       -0.000346604339    -0.001988193884     0.000313528890
      12        0.000843046479    -0.004661666728    -0.000975662469
      13       -0.000143738246     0.004073909035     0.008097255393
      14       -0.001144911065    -0.004497706126    -0.004567796188
      15       -0.000456695097     0.001230451383    -0.000968451989
      16        0.010319682237     0.013315477903     0.009505925795
      17       -0.005547963385    -0.001390747038    -0.001645952557
      18        0.001841573673    -0.004423229405    -0.004225379888


*** tstop() called on green.prib.upf.edu at Sat Sep 29 20:35:18 2018
Module time:
	user time   =      25.89 seconds =       0.43 minutes
	system time =       0.22 seconds =       0.00 minutes
	total time  =          6 seconds =       0.10 minutes
Total time:
	user time   =     251.36 seconds =       4.19 minutes
	system time =       1.44 seconds =       0.02 minutes
	total time  =         67 seconds =       1.12 minutes

			-----------------------------------------
			 OPTKING 2.0: for geometry optimizations 
			  - R.A. King,  Bethel University        
			-----------------------------------------
	At level 1: Red. Int., RFO, no backsteps, dynamic trust

	Previous internal coordinate definitions found.
	---Fragment 1 Geometry and Gradient---
	 C           0.0382256691       -0.0009743674       -0.3254307791
	 C           0.2724188655        2.3071461498        1.0090427822
	 C           0.2390021914        2.3012347474        3.6352241774
	 C           0.0323070943        0.0083713142        4.9447659839
	 C          -0.1862751443       -2.2852014657        3.6325436963
	 C          -0.2228914820       -2.3010170282        1.0082548944
	 C           0.0230595508       -0.0324321702       -3.0851717466
	 H           0.3585284518        4.0966709024       -0.0013926772
	 H           0.3597106183        4.0753760494        4.6618659872
	 H           0.0172059954        0.0090033146        6.9965276601
	 H          -0.3510911288       -4.0578175026        4.6603360803
	 H          -0.4016760970       -4.0862513074       -0.0065311352
	 N          -1.1727420993       -1.8982967801       -4.4679961002
	 N           1.1508828891        1.8485043198       -4.3026402649
	 H           1.0641843664        1.9504166574       -6.2200387401
	 H           2.1480886026        3.2525115077       -3.3621579580
	 H          -2.9079497717       -1.6052805398       -5.2383356223
	 H          -0.3302535381       -3.5810264971       -4.8502435779
	            -0.0003530064        0.0038653604        0.0062829833
	            -0.0009953351        0.0023714556       -0.0027233858
	            -0.0007114976       -0.0007435174        0.0020469462
	             0.0003330968        0.0023008783        0.0012543756
	            -0.0000754047       -0.0002741754       -0.0017797176
	             0.0011957687        0.0007888215        0.0006563744
	            -0.0058067893       -0.0116611337       -0.0091924281
	             0.0008186869        0.0006595222       -0.0022957827
	             0.0002017128        0.0010717070        0.0002231953
	             0.0000193899       -0.0000477546       -0.0000061781
	            -0.0003466043       -0.0019881939        0.0003135289
	             0.0008430465       -0.0046616667       -0.0009756625
	            -0.0001437382        0.0040739090        0.0080972554
	            -0.0011449111       -0.0044977061       -0.0045677962
	            -0.0004566951        0.0012304514       -0.0009684520
	             0.0103196822        0.0133154779        0.0095059258
	            -0.0055479634       -0.0013907470       -0.0016459526
	             0.0018415737       -0.0044232294       -0.0042253799

	---Fragment 1 Intrafragment Coordinates---
	 - Coordinate -           - BOHR/RAD -       - ANG/DEG -
	 R(1,2)           =         2.676394	       1.416287
	 R(1,6)           =         2.671534	       1.413715
	 R(1,7)           =         2.759962	       1.460509
	 R(2,3)           =         2.626401	       1.389831
	 R(2,8)           =         2.056889	       1.088459
	 R(3,4)           =         2.648555	       1.401555
	 R(3,9)           =         2.053324	       1.086572
	 R(4,5)           =         2.651449	       1.403086
	 R(4,10)          =         2.051817	       1.085775
	 R(5,6)           =         2.624592	       1.388874
	 R(5,11)          =         2.055648	       1.087802
	 R(6,12)          =         2.061266	       1.090775
	 R(7,13)          =         2.612201	       1.382317
	 R(7,14)          =         2.508413	       1.327395
	 R(13,17)         =         1.920996	       1.016548
	 R(13,18)         =         1.920281	       1.016169
	 R(14,15)         =         1.922061	       1.017111
	 R(14,16)         =         1.962183	       1.038343
	 B(1,2,3)         =         2.089221	     119.703565
	 B(1,2,8)         =         2.104848	     120.598898
	 B(1,6,5)         =         2.085885	     119.512381
	 B(1,6,12)        =         2.104073	     120.554480
	 B(1,7,13)        =         2.141217	     122.682672
	 B(1,7,14)        =         2.064963	     118.313639
	 B(2,1,6)         =         2.096839	     120.140000
	 B(2,1,7)         =         2.104679	     120.589202
	 B(2,3,4)         =         2.091322	     119.823935
	 B(2,3,9)         =         2.091229	     119.818599
	 B(3,2,8)         =         2.087129	     119.583688
	 B(3,4,5)         =         2.106667	     120.703100
	 B(3,4,10)        =         2.088321	     119.651985
	 B(4,3,9)         =         2.100609	     120.356009
	 B(4,5,6)         =         2.095797	     120.080295
	 B(4,5,11)        =         2.100281	     120.337228
	 B(5,4,10)        =         2.088118	     119.640338
	 B(5,6,12)        =         2.092877	     119.912991
	 B(6,1,7)         =         2.081545	     119.263764
	 B(6,5,11)        =         2.087035	     119.578269
	 B(7,13,17)       =         2.113943	     121.120010
	 B(7,13,18)       =         2.129941	     122.036610
	 B(7,14,15)       =         2.098620	     120.242086
	 B(7,14,16)       =         2.132243	     122.168553
	 B(13,7,14)       =         2.076589	     118.979759
	 B(15,14,16)      =         2.052315	     117.589004
	 B(17,13,18)      =         2.037718	     116.752651
	 D(1,2,3,4)       =         0.025457	       1.458571
	 D(1,2,3,9)       =        -3.108501	    -178.103966
	 D(1,6,5,4)       =         0.033206	       1.902556
	 D(1,6,5,11)      =        -3.121366	    -178.841126
	*D(1,7,13,17)     =         1.745329	      99.999976
	 D(1,7,13,18)     =        -1.458687	     -83.576591
	 D(1,7,14,15)     =        -3.063872	    -175.546906
	 D(1,7,14,16)     =         0.081608	       4.675781
	 D(2,1,6,5)       =        -0.027101	      -1.552756
	 D(2,1,6,12)      =        -3.140173	    -179.918649
	 D(2,1,7,13)      =        -2.669278	    -152.938360
	 D(2,1,7,14)      =         0.440912	      25.262388
	 D(2,3,4,5)       =        -0.019539	      -1.119517
	 D(2,3,4,10)      =         3.135685	     179.661528
	 D(3,2,1,6)       =        -0.002365	      -0.135497
	 D(3,2,1,7)       =         3.122266	     178.892678
	 D(3,4,5,6)       =        -0.010223	      -0.585735
	 D(3,4,5,11)      =        -3.138736	    -179.836354
	 D(4,3,2,8)       =         3.099762	     177.603291
	 D(4,5,6,12)      =        -3.136722	    -179.720921
	 D(5,4,3,9)       =         3.114377	     178.440635
	 D(5,6,1,7)       =         3.131229	     179.406212
	 D(6,1,2,8)       =        -3.075975	    -176.240366
	 D(6,1,7,13)      =         0.455501	      26.098257
	 D(6,1,7,14)      =        -2.717495	    -155.700996
	 D(6,5,4,10)      =         3.117739	     178.633310
	 D(7,1,2,8)       =         0.048656	       2.787808
	 D(7,1,6,12)      =         0.018157	       1.040319
	 D(8,2,3,9)       =        -0.034195	      -1.959245
	 D(9,3,4,10)      =        -0.013584	      -0.778320
	 D(10,4,5,11)     =        -0.010774	      -0.617309
	 D(11,5,6,12)     =        -0.008109	      -0.464602
	 D(13,7,14,15)    =         0.047507	       2.721976
	 D(13,7,14,16)    =        -3.090199	    -177.055337
	 D(14,7,13,17)    =        -1.364661	     -78.189304
	 D(14,7,13,18)    =         1.714509	      98.234128

	Current energy   :      -381.4305921942

	Energy change for the previous step:
		Projected    :        -0.0162722888
		Actual       :        -0.0061049244

	Performing BFGS update.
	Previous computed or guess Hessian on step 1.
	Steps to be used in Hessian update: 1
	Taking RFO optimization step.
	Going to follow RFO solution 1.
	Using RFO vector 1.
	Norm of target step-size    0.37980
	Projected energy change by RFO approximation:        -0.0060657437

	Back-transformation to cartesian coordinates...
	Could not converge backtransformation.
	Using first guess instead.

	Back-transformation to cartesian coordinates to adjust frozen coordinates...
	Successfully converged to displaced geometry.

	--- Internal Coordinate Step in ANG or DEG, aJ/ANG or AJ/DEG ---
	 ---------------------------------------------------------------------------
	   Coordinate                Previous        Force       Change         New 
	   ----------                --------       ------       ------       ------
	    1 R(1,2)          =      1.416287    -0.002027     0.003166     1.419453
	    2 R(1,6)          =      1.413715    -0.015808     0.001577     1.415292
	    3 R(1,7)          =      1.460509    -0.025045    -0.005413     1.455095
	    4 R(2,3)          =      1.389831    -0.016609    -0.002166     1.387666
	    5 R(2,8)          =      1.088459    -0.014306    -0.000825     1.087634
	    6 R(3,4)          =      1.401555    -0.007954     0.001290     1.402845
	    7 R(3,9)          =      1.086572    -0.008651     0.000090     1.086662
	    8 R(4,5)          =      1.403086    -0.031489    -0.000794     1.402292
	    9 R(4,10)         =      1.085775     0.000052     0.000220     1.085995
	   10 R(5,6)          =      1.388874    -0.000430    -0.000101     1.388773
	   11 R(5,11)         =      1.087802    -0.015640    -0.000338     1.087464
	   12 R(6,12)         =      1.090775    -0.036613    -0.001664     1.089110
	   13 R(7,13)         =      1.382317    -0.015043     0.013652     1.395970
	   14 R(7,14)         =      1.327395    -0.078507    -0.002560     1.324835
	   15 R(13,17)        =      1.016548    -0.044978    -0.000384     1.016164
	   16 R(13,18)        =      1.016169    -0.045516    -0.000146     1.016023
	   17 R(14,15)        =      1.017111    -0.008669     0.003314     1.020425
	   18 R(14,16)        =      1.038343    -0.159243    -0.006650     1.031692
	   19 B(1,2,3)        =    119.703565     0.000080     0.241072   119.944637
	   20 B(1,2,8)        =    120.598898     0.000087     0.509135   121.108034
	   21 B(1,6,5)        =    119.512381     0.000170     0.428010   119.940391
	   22 B(1,6,12)       =    120.554480    -0.000194    -0.596110   119.958370
	   23 B(1,7,13)       =    122.682672    -0.000226    -0.272979   122.409693
	   24 B(1,7,14)       =    118.313639     0.001134     2.880076   121.193715
	   25 B(2,1,6)        =    120.140000    -0.000225    -0.578967   119.561033
	   26 B(2,1,7)        =    120.589202     0.000526     1.591413   122.180616
	   27 B(2,3,4)        =    119.823935     0.000052     0.066356   119.890291
	   28 B(2,3,9)        =    119.818599     0.000001     0.037678   119.856277
	   29 B(3,2,8)        =    119.583688    -0.000167    -0.767099   118.816589
	   30 B(3,4,5)        =    120.703100    -0.000047    -0.044756   120.658344
	   31 B(3,4,10)       =    119.651985     0.000020     0.004549   119.656534
	   32 B(4,3,9)        =    120.356009    -0.000054    -0.108461   120.247548
	   33 B(4,5,6)        =    120.080295    -0.000029    -0.146794   119.933500
	   34 B(4,5,11)       =    120.337228    -0.000043    -0.069532   120.267696
	   35 B(5,4,10)       =    119.640338     0.000027     0.029948   119.670286
	   36 B(5,6,12)       =    119.912991     0.000024     0.185296   120.098287
	   37 B(6,1,7)        =    119.263764    -0.000301    -1.021116   118.242649
	   38 B(6,5,11)       =    119.578269     0.000072     0.210929   119.789198
	   39 B(7,13,17)      =    121.120010    -0.000084    -0.094306   121.025704
	   40 B(7,13,18)      =    122.036610    -0.000094    -0.583197   121.453413
	   41 B(7,14,15)      =    120.242086    -0.000091    -1.197771   119.044315
	   42 B(7,14,16)      =    122.168553     0.000070     0.994656   123.163209
	   43 B(13,7,14)      =    118.979759    -0.000908    -2.597669   116.382090
	   44 B(15,14,16)     =    117.589004     0.000021     0.203438   117.792442
	   45 B(17,13,18)     =    116.752651     0.000186     0.753387   117.506038
	   46 D(1,2,3,4)      =      1.458571    -0.000004    -0.459031     0.999540
	   47 D(1,2,3,9)      =   -178.103966    -0.000001    -0.016400  -178.120366
	   48 D(1,6,5,4)      =      1.902556     0.000002     0.608058     2.510613
	   49 D(1,6,5,11)     =   -178.841126     0.000002     0.227419  -178.613706
	   50 *D(1,7,13,17)   =     99.999976    -0.000000    -0.000000    99.999976
	   51 D(1,7,13,18)    =    -83.576591     0.000041     5.013189   -78.563403
	   52 D(1,7,14,15)    =   -175.546906    -0.000017    -2.058127  -177.605034
	   53 D(1,7,14,16)    =      4.675781    -0.000012    -2.349210     2.326570
	   54 D(2,1,6,5)      =     -1.552756    -0.000008    -1.437076    -2.989833
	   55 D(2,1,6,12)     =   -179.918649    -0.000014    -2.446933  -182.365582
	   56 D(2,1,7,13)     =   -152.938360    -0.000034    -9.354355  -162.292715
	   57 D(2,1,7,14)     =     25.262388    -0.000032    -8.990869    16.271518
	   58 D(2,3,4,5)      =     -1.119517    -0.000001    -0.383599    -1.503116
	   59 D(2,3,4,10)     =    179.661528     0.000002     0.241050   179.902578
	   60 D(3,2,1,6)      =     -0.135497     0.000009     1.360392     1.224895
	   61 D(3,2,1,7)      =    178.892678     0.000005     0.864859   179.757537
	   62 D(3,4,5,6)      =     -0.585735     0.000003     0.316079    -0.269656
	   63 D(3,4,5,11)     =   -179.836354     0.000003     0.696459  -179.139895
	   64 D(4,3,2,8)      =    177.603291    -0.000005    -0.713652   176.889639
	   65 D(4,5,6,12)     =   -179.720921     0.000008     1.606401  -178.114519
	   66 D(5,4,3,9)      =    178.440635    -0.000005    -0.827330   177.613305
	   67 D(5,6,1,7)      =    179.406212    -0.000006    -0.986293   178.419919
	   68 D(6,1,2,8)      =   -176.240366     0.000011     1.671204  -174.569162
	   69 D(6,1,7,13)     =     26.098257    -0.000037    -9.839803    16.258454
	   70 D(6,1,7,14)     =   -155.700996    -0.000035    -9.476317  -165.177313
	   71 D(6,5,4,10)     =    178.633310    -0.000000    -0.308852   178.324458
	   72 D(7,1,2,8)      =      2.787808     0.000008     1.175671     3.963480
	   73 D(7,1,6,12)     =      1.040319    -0.000012    -1.996149    -0.955830
	   74 D(8,2,3,9)      =     -1.959245    -0.000001    -0.271021    -2.230266
	   75 D(9,3,4,10)     =     -0.778320    -0.000001    -0.202682    -0.981001
	   76 D(10,4,5,11)    =     -0.617309     0.000000     0.071527    -0.545781
	   77 D(11,5,6,12)    =     -0.464602     0.000007     1.225763     0.761161
	   78 D(13,7,14,15)   =      2.721976    -0.000012    -1.680041     1.041936
	   79 D(13,7,14,16)   =   -177.055337    -0.000007    -1.971123  -179.026460
	   80 D(14,7,13,17)   =    -78.189304    -0.000010    -0.439762   -78.629066
	   81 D(14,7,13,18)   =     98.234128     0.000030     4.573427   102.807555
	 ---------------------------------------------------------------------------
	Successfully symmetrized geometry.

  ==> Convergence Check <==

  Measures of convergence in internal coordinates in au.
  Criteria marked as inactive (o), active & met (*), and active & unmet ( ).
  ---------------------------------------------------------------------------------------------
   Step     Total Energy     Delta E     MAX Force     RMS Force      MAX Disp      RMS Disp   
  ---------------------------------------------------------------------------------------------
    Convergence Criteria    1.00e-06 *    3.00e-04 *             o    1.20e-03 *             o
  ---------------------------------------------------------------------------------------------
      2    -381.43059219   -6.10e-03      1.93e-02      3.68e-03 o    1.72e-01      4.21e-02 o  ~
  ---------------------------------------------------------------------------------------------

	Writing optimization data to binary file.
	Structure for next step:
	Cartesian Geometry (in Angstrom)
	    C     0.0287947084   0.0333141991  -0.1692630537
	    C     0.2156330058   1.2318831512   0.5678736622
	    C     0.2023574153   1.2010914747   1.9551342153
	    C     0.0251935562  -0.0183209029   2.6256719000
	    C    -0.1706671926  -1.2070729712   1.9080850801
	    C    -0.1960121127  -1.1823157492   0.5197638824
	    C     0.0286207328   0.0103458099  -1.6241772461
	    H     0.3028292541   2.1926633371   0.0656329224
	    H     0.3149320282   2.1238838452   2.5178206126
	    H     0.0170137926  -0.0382585923   3.7114531613
	    H    -0.3212744961  -2.1466276481   2.4345193590
	    H    -0.3785098282  -2.0988146372  -0.0395981597
	    N    -0.5000819424  -1.0546602680  -2.3555916330
	    N     0.5113221351   1.0247007912  -2.3265098437
	    H     0.4613414410   0.9902389073  -3.3451272360
	    H     0.9391520888   1.8578288187  -1.8937878999
	    H    -1.4285651757  -0.9992300728  -2.7647800098
	    H     0.0171025893  -1.9201534927  -2.4810707134
			--------------------------
			 OPTKING Finished Execution 
			--------------------------

    Structure for next step:
    Molecular point group: c1
    Full point group: C1

    Geometry (in Angstrom), charge = 1, multiplicity = 1:

    C            0.028794708362     0.033314199124    -0.169263053682
    C            0.215633005807     1.231883151250     0.567873662244
    C            0.202357415283     1.201091474670     1.955134215346
    C            0.025193556227    -0.018320902862     2.625671899987
    C           -0.170667192557    -1.207072971175     1.908085080121
    C           -0.196012112736    -1.182315749166     0.519763882373
    C            0.028620732812     0.010345809850    -1.624177246082
    H            0.302829254067     2.192663337085     0.065632922382
    H            0.314932028215     2.123883845170     2.517820612566
    H            0.017013792611    -0.038258592327     3.711453161300
    H           -0.321274496148    -2.146627648077     2.434519358968
    H           -0.378509828188    -2.098814637190    -0.039598159673
    N           -0.500081942403    -1.054660267997    -2.355591632976
    N            0.511322135093     1.024700791183    -2.326509843721
    H            0.461341441044     0.990238907271    -3.345127235980
    H            0.939152088841     1.857828818680    -1.893787899935
    H           -1.428565175682    -0.999230072769    -2.764780009801
    H            0.017102589349    -1.920153492719    -2.481070713436

gradient() will perform analytic gradient computation.

*** tstart() called on green.prib.upf.edu
*** at Sat Sep 29 20:35:19 2018

   => Loading Basis Set <=

    Name: 6-31G*
    Role: ORBITAL
    Keyword: BASIS
    atoms 1-7         entry C          line   111 file /shared/joao/test_parameterize/miniconda3/share/psi4/basis/6-31gs.gbs 
    atoms 8-12, 15-18 entry H          line    44 file /shared/joao/test_parameterize/miniconda3/share/psi4/basis/6-31gs.gbs 
    atoms 13-14       entry N          line   128 file /shared/joao/test_parameterize/miniconda3/share/psi4/basis/6-31gs.gbs 


         ---------------------------------------------------------
                                   SCF
            by Justin Turney, Rob Parrish, Andy Simmonett
                             and Daniel Smith
                              RKS Reference
                        4 Threads,   2861 MiB Core
         ---------------------------------------------------------

[...]
	 R(9,Y)           =         3.662361	       1.938038
	 R(9,Z)           =         4.725047	       2.500387
	 R(10,X)          =        -0.131499	      -0.069586
	 R(10,Y)          =        -0.066196	      -0.035029
	 R(10,Z)          =         6.937172	       3.670993
	 R(11,X)          =        -1.701072	      -0.900169
	 R(11,Y)          =        -3.746968	      -1.982810
	 R(11,Z)          =         4.486644	       2.374230
	 R(12,X)          =        -1.535543	      -0.812574
	 R(12,Y)          =        -3.700893	      -1.958428
	 R(12,Z)          =        -0.169816	      -0.089863
	 R(13,X)          =         0.248364	       0.131428
	 R(13,Y)          =        -2.057853	      -1.088969
	 R(13,Z)          =        -4.607359	      -2.438109
	 R(14,X)          =        -0.103157	      -0.054589
	 R(14,Y)          =         2.224023	       1.176902
	 R(14,Z)          =        -4.377142	      -2.316284
	 R(15,X)          =         0.075714	       0.040066
	 R(15,Y)          =         2.256237	       1.193949
	 R(15,Z)          =        -6.287066	      -3.326972
	 R(16,X)          =        -0.529160	      -0.280019
	 R(16,Y)          =         3.862972	       2.044197
	 R(16,Z)          =        -3.483675	      -1.843481
	 R(17,X)          =        -1.437451	      -0.760666
	 R(17,Y)          =        -2.620220	      -1.386561
	 R(17,Z)          =        -5.345923	      -2.828940
	 R(18,X)          =         1.042172	       0.551494
	 R(18,Y)          =        -3.557434	      -1.882513
	 R(18,Z)          =        -3.704152	      -1.960153

	Current energy   :      -381.4528304070

	Energy change for the previous step:
		Projected    :        -0.0000006585
		Actual       :        -0.0000007924

	Performing BFGS update.
	Previous computed or guess Hessian on step 1.
	Steps to be used in Hessian update: 1
	Taking RFO optimization step.
	Going to follow RFO solution 1.
	Rejecting RFO root 1 because normalization gives large value.
	Rejecting RFO root 2 because normalization gives large value.
	Rejecting RFO root 3 because normalization gives large value.
	Using RFO vector 4.
	Norm of target step-size    0.00087
	Projected energy change by RFO approximation:        -0.0000000725

	Back-transformation to cartesian coordinates...
	Successfully converged to displaced geometry.

	Back-transformation to cartesian coordinates to adjust frozen coordinates...
	Successfully converged to displaced geometry.

	--- Internal Coordinate Step in ANG or DEG, aJ/ANG or AJ/DEG ---
	 ---------------------------------------------------------------------------
	   Coordinate                Previous        Force       Change         New 
	   ----------                --------       ------       ------       ------
	    1 R(1,2)          =      1.413023    -0.000149    -0.000047     1.412975
	    2 R(1,6)          =      1.411176     0.000029     0.000011     1.411186
	    3 R(1,7)          =      1.453706     0.000153     0.000028     1.453735
	    4 R(2,3)          =      1.388243     0.000049     0.000008     1.388251
	    5 R(2,8)          =      1.086706    -0.000017    -0.000006     1.086700
	    6 R(3,4)          =      1.400498    -0.000022    -0.000006     1.400492
	    7 R(3,9)          =      1.085063     0.000006    -0.000002     1.085061
	    8 R(4,5)          =      1.399052    -0.000030    -0.000008     1.399044
	    9 R(4,10)         =      1.085779     0.000004     0.000001     1.085780
	   10 R(5,6)          =      1.389591     0.000051     0.000011     1.389602
	   11 R(5,11)         =      1.085041    -0.000010    -0.000002     1.085039
	   12 R(6,12)         =      1.085536     0.000004    -0.000000     1.085536
	   13 R(7,13)         =      1.374391     0.000079    -0.000012     1.374379
	   14 R(7,14)         =      1.322900    -0.000338    -0.000062     1.322838
	   15 R(13,17)        =      1.018402    -0.000012     0.000023     1.018425
	   16 R(13,18)        =      1.017157    -0.000167    -0.000034     1.017123
	   17 R(14,15)        =      1.015254     0.000003    -0.000007     1.015247
	   18 R(14,16)        =      1.013193    -0.000096    -0.000032     1.013161
	   19 B(1,2,3)        =    119.940861    -0.000000     0.000087   119.940947
	   20 B(1,2,8)        =    120.397997     0.000001     0.002534   120.400531
	   21 B(1,6,5)        =    119.845076    -0.000000    -0.001324   119.843752
	   22 B(1,6,12)       =    120.470458     0.000000     0.001559   120.472018
	   23 B(1,7,13)       =    123.757378    -0.000001    -0.002144   123.755234
	   24 B(1,7,14)       =    120.815962     0.000000     0.000537   120.816500
	   25 B(2,1,6)        =    119.741638     0.000000     0.001313   119.742951
	   26 B(2,1,7)        =    120.756134    -0.000001    -0.003450   120.752683
	   27 B(2,3,4)        =    119.881304     0.000000     0.000235   119.881539
	   28 B(2,3,9)        =    119.942703    -0.000000    -0.000042   119.942661
	   29 B(3,2,8)        =    119.586452    -0.000000    -0.002803   119.583650
	   30 B(3,4,5)        =    120.585180    -0.000000    -0.000413   120.584767
	   31 B(3,4,10)       =    119.699578     0.000000     0.000784   119.700361
	   32 B(4,3,9)        =    120.168063    -0.000000    -0.000130   120.167933
	   33 B(4,5,6)        =    119.987756    -0.000000     0.000226   119.987982
	   34 B(4,5,11)       =    120.196163     0.000000    -0.000204   120.195960
	   35 B(5,4,10)       =    119.713820    -0.000000    -0.000376   119.713444
	   36 B(5,6,12)       =    119.621895    -0.000000    -0.000080   119.621816
	   37 B(6,1,7)        =    119.495774     0.000000     0.002067   119.497840
	   38 B(6,5,11)       =    119.815472    -0.000000    -0.000052   119.815420
	   39 B(7,13,17)      =    115.902103    -0.000001    -0.002022   115.900081
	   40 B(7,13,18)      =    112.586541    -0.000001    -0.010296   112.576245
	   41 B(7,14,15)      =    120.038812     0.000000    -0.000393   120.038419
	   42 B(7,14,16)      =    121.860477     0.000001     0.001907   121.862384
	   43 B(13,7,14)      =    115.135850     0.000001     0.001634   115.137484
	   44 B(15,14,16)     =    118.093906    -0.000001    -0.001234   118.092672
	   45 B(17,13,18)     =    108.307540     0.000001     0.003382   108.310922
	   46 D(1,2,3,4)      =      0.251147     0.000000    -0.002923     0.248224
	   47 D(1,2,3,9)      =    179.228573     0.000000     0.001180   179.229753
	   48 D(1,6,5,4)      =     -1.018941     0.000000     0.006994    -1.011947
	   49 D(1,6,5,11)     =    178.697849    -0.000000     0.000167   178.698016
	   50 *D(1,7,13,17)   =     99.999976     0.000000     0.000000    99.999976
	   51 D(1,7,13,18)    =    -25.465710     0.000000     0.006175   -25.459535
	   52 D(1,7,14,15)    =    174.345445    -0.000000    -0.006705   174.338740
	   53 D(1,7,14,16)    =     -6.621873    -0.000000     0.013405    -6.608468
	   54 D(2,1,6,5)      =      1.652990    -0.000000    -0.006428     1.646563
	   55 D(2,1,6,12)     =    178.765666    -0.000000    -0.002837   178.762829
	   56 D(2,1,7,13)     =    155.150548    -0.000000    -0.000879   155.149669
	   57 D(2,1,7,14)     =    -31.349197     0.000000    -0.000462   -31.349659
	   58 D(2,3,4,5)      =      0.391834     0.000000     0.003477     0.395311
	   59 D(2,3,4,10)     =    179.956652     0.000000     0.002692   179.959344
	   60 D(3,2,1,6)      =     -1.268635    -0.000000     0.004386    -1.264249
	   61 D(3,2,1,7)      =    177.802515    -0.000000    -0.000664   177.801851
	   62 D(3,4,5,6)      =     -0.004390    -0.000000    -0.005514    -0.009904
	   63 D(3,4,5,11)     =   -179.720091     0.000000     0.001339  -179.718752
	   64 D(4,3,2,8)      =   -176.619101    -0.000000     0.000797  -176.618304
	   65 D(4,5,6,12)     =   -178.156267     0.000000     0.003386  -178.152881
	   66 D(5,4,3,9)      =   -178.583262    -0.000000    -0.000637  -178.583899
	   67 D(5,6,1,7)      =   -177.429943     0.000000    -0.001389  -177.431333
	   68 D(6,1,2,8)      =    175.575895     0.000000     0.000466   175.576361
	   69 D(6,1,7,13)     =    -25.776038    -0.000000    -0.005924   -25.781962
	   70 D(6,1,7,14)     =    147.724217     0.000000    -0.005507   147.718710
	   71 D(6,5,4,10)     =   -179.569146    -0.000000    -0.004734  -179.573880
	   72 D(7,1,2,8)      =     -5.352954    -0.000000    -0.004585    -5.357539
	   73 D(7,1,6,12)     =     -0.317268     0.000000     0.002201    -0.315066
	   74 D(8,2,3,9)      =      2.358325     0.000000     0.004901     2.363225
	   75 D(9,3,4,10)     =      0.981556    -0.000000    -0.001422     0.980135
	   76 D(10,4,5,11)    =      0.715152    -0.000000     0.002119     0.717271
	   77 D(11,5,6,12)    =      1.560524     0.000000    -0.003441     1.557082
	   78 D(13,7,14,15)   =    -11.621675     0.000000    -0.006552   -11.628227
	   79 D(13,7,14,16)   =    167.411007     0.000000     0.013558   167.424565
	   80 D(14,7,13,17)   =    -73.835361    -0.000000    -0.000347   -73.835708
	   81 D(14,7,13,18)   =    160.698954    -0.000000     0.005828   160.704781
	   82 R(1,X)          =      0.086858    -0.000022     0.000011     0.086869
	   83 R(1,Y)          =      0.016856     0.000010    -0.000035     0.016821
	   84 R(1,Z)          =     -0.202529     0.000009    -0.000005    -0.202534
	   85 R(2,X)          =      0.564194    -0.000038    -0.000022     0.564172
	   86 R(2,Y)          =      1.119092    -0.000088    -0.000047     1.119045
	   87 R(2,Z)          =      0.541690    -0.000119    -0.000056     0.541633
	   88 R(3,X)          =      0.504199    -0.000006     0.000011     0.504210
	   89 R(3,Y)          =      1.096986    -0.000055    -0.000028     1.096958
	   90 R(3,Z)          =      1.928460    -0.000068    -0.000046     1.928413
	   91 R(4,X)          =     -0.024727     0.000015     0.000007    -0.024719
	   92 R(4,Y)          =     -0.020583    -0.000012    -0.000001    -0.020585
	   93 R(4,Z)          =      2.586238    -0.000024    -0.000017     2.586221
	   94 R(5,X)          =     -0.487402     0.000021     0.000038    -0.487364
	   95 R(5,Y)          =     -1.122130    -0.000018    -0.000023    -1.122154
	   96 R(5,Z)          =      1.858315     0.000037     0.000012     1.858327
	   97 R(6,X)          =     -0.424416    -0.000027    -0.000035    -0.424451
	   98 R(6,Y)          =     -1.113399    -0.000039    -0.000026    -1.113425
	   99 R(6,Z)          =      0.470180    -0.000016    -0.000003     0.470178
	  100 R(7,X)          =      0.097335    -0.000113    -0.000001     0.097334
	  101 R(7,Y)          =      0.040676     0.000171     0.000032     0.040707
	  102 R(7,Z)          =     -1.656002    -0.000141    -0.000032    -1.656035
	  103 R(8,X)          =      1.025619    -0.000047     0.000003     1.025622
	  104 R(8,Y)          =      1.964268    -0.000061    -0.000051     1.964216
	  105 R(8,Z)          =      0.038009    -0.000045    -0.000028     0.037981
	  106 R(9,X)          =      0.882208    -0.000018    -0.000019     0.882189
	  107 R(9,Y)          =      1.938038    -0.000017    -0.000000     1.938038
	  108 R(9,Z)          =      2.500387    -0.000105    -0.000070     2.500317
	  109 R(10,X)         =     -0.069586     0.000004    -0.000011    -0.069597
	  110 R(10,Y)         =     -0.035029     0.000021     0.000022    -0.035007
	  111 R(10,Z)         =      3.670993    -0.000021    -0.000016     3.670977
	  112 R(11,X)         =     -0.900169     0.000017     0.000013    -0.900156
	  113 R(11,Y)         =     -1.982810     0.000007     0.000003    -1.982808
	  114 R(11,Z)         =      2.374230     0.000054     0.000032     2.374261
	  115 R(12,X)         =     -0.812574    -0.000090    -0.000065    -0.812639
	  116 R(12,Y)         =     -1.958428    -0.000043    -0.000028    -1.958456
	  117 R(12,Z)         =     -0.089863     0.000025     0.000021    -0.089842
	  118 R(13,X)         =      0.131428     0.000088     0.000052     0.131480
	  119 R(13,Y)         =     -1.088969     0.000008     0.000049    -1.088920
	  120 R(13,Z)         =     -2.438109    -0.000036    -0.000035    -2.438144
	  121 R(14,X)         =     -0.054589     0.000009    -0.000049    -0.054637
	  122 R(14,Y)         =      1.176902    -0.000061    -0.000004     1.176898
	  123 R(14,Z)         =     -2.316284     0.000108     0.000040    -2.316244
	  124 R(15,X)         =      0.040066     0.000094     0.000045     0.040111
	  125 R(15,Y)         =      1.193949     0.000036     0.000048     1.193998
	  126 R(15,Z)         =     -3.326972     0.000114     0.000057    -3.326915
	  127 R(16,X)         =     -0.280019     0.000142     0.000119    -0.279900
	  128 R(16,Y)         =      2.044197    -0.000095    -0.000003     2.044193
	  129 R(16,Z)         =     -1.843481     0.000026     0.000050    -1.843431
	  130 R(17,X)         =     -0.760666     0.000037     0.000028    -0.760638
	  131 R(17,Y)         =     -1.386561    -0.000053     0.000027    -1.386533
	  132 R(17,Z)         =     -2.828940     0.000159    -0.000024    -2.828964
	  133 R(18,X)         =      0.551494     0.000042     0.000018     0.551511
	  134 R(18,Y)         =     -1.882513     0.000357     0.000170    -1.882342
	  135 R(18,Z)         =     -1.960153     0.000228     0.000124    -1.960029
	 ---------------------------------------------------------------------------
	Successfully symmetrized geometry.

  ==> Convergence Check <==

  Measures of convergence in internal coordinates in au.
  Criteria marked as inactive (o), active & met (*), and active & unmet ( ).
  ---------------------------------------------------------------------------------------------
   Step     Total Energy     Delta E     MAX Force     RMS Force      MAX Disp      RMS Disp   
  ---------------------------------------------------------------------------------------------
    Convergence Criteria    1.00e-06 *    3.00e-04 *             o    1.20e-03 *             o
  ---------------------------------------------------------------------------------------------
      2    -381.45283041   -7.92e-07 *    4.34e-05 *    9.56e-06 o    3.22e-04 *    7.52e-05 o  ~
  ---------------------------------------------------------------------------------------------


  **** Optimization is complete! (in 2 steps) ****

  ==> Optimization Summary <==

  Measures of convergence in internal coordinates in au.
  --------------------------------------------------------------------------------------------------------------- ~
   Step         Total Energy             Delta E       MAX Force       RMS Force        MAX Disp        RMS Disp  ~
  --------------------------------------------------------------------------------------------------------------- ~
      1    -381.452829614613   -381.452829614613      0.00012113      0.00002974      0.00223482      0.00046247  ~
      2    -381.452830407008     -0.000000792395      0.00004339      0.00000956      0.00032183      0.00007520  ~
  --------------------------------------------------------------------------------------------------------------- ~

	Writing optimization data to binary file.
	Final energy is   -381.4528304070079
	Final (previous) structure:
	Cartesian Geometry (in Angstrom)
	    C     0.0868579523   0.0168564562  -0.2025288409
	    C     0.5641939036   1.1190918313   0.5416897157
	    C     0.5041985883   1.0969855453   1.9284595268
	    C    -0.0247267927  -0.0205833908   2.5862379505
	    C    -0.4874019115  -1.1221304641   1.8583154955
	    C    -0.4244164852  -1.1133989611   0.4701802197
	    C     0.0973349745   0.0406756253  -1.6560023708
	    H     1.0256187247   1.9642675740   0.0380090296
	    H     0.8822077999   1.9380382311   2.5003871804
	    H    -0.0695860421  -0.0350291583   3.6709933566
	    H    -0.9001686094  -1.9828102345   2.3742298156
	    H    -0.8125743749  -1.9584283423  -0.0898625698
	    N     0.1314283308  -1.0889689813  -2.4381091450
	    N    -0.0545885059   1.1769023547  -2.3162837156
	    H     0.0400661828   1.1939491563  -3.3269722328
	    H    -0.2800191489   2.0441968308  -1.8434813921
	    H    -0.7606662738  -1.3865605804  -2.8289403525
	    H     0.5514936629  -1.8825127798  -1.9601525837
	Saving final (previous) structure.
	Removing binary optimization data file.
			--------------------------
			 OPTKING Finished Execution 
			--------------------------

    Final optimized geometry and variables:
    Molecular point group: c1
    Full point group: C1

    Geometry (in Angstrom), charge = 1, multiplicity = 1:

    C            0.086857952254     0.016856456217    -0.202528840891
    C            0.564193903602     1.119091831324     0.541689715673
    C            0.504198588350     1.096985545312     1.928459526842
    C           -0.024726792716    -0.020583390820     2.586237950544
    C           -0.487401911506    -1.122130464099     1.858315495462
    C           -0.424416485229    -1.113398961050     0.470180219656
    C            0.097334974472     0.040675625325    -1.656002370836
    H            1.025618724716     1.964267573982     0.038009029592
    H            0.882207799938     1.938038231143     2.500387180378
    H           -0.069586042117    -0.035029158301     3.670993356565
    H           -0.900168609427    -1.982810234549     2.374229815650
    H           -0.812574374942    -1.958428342261    -0.089862569766
    N            0.131428330793    -1.088968981272    -2.438109145036
    N           -0.054588505869     1.176902354679    -2.316283715628
    H            0.040066182833     1.193949156288    -3.326972232819
    H           -0.280019148892     2.044196830784    -1.843481392084
    H           -0.760666273838    -1.386560580440    -2.828940352520
    H            0.551493662854    -1.882512779813    -1.960152583655

	Removing binary optimization data file.
	Cleaning optimization helper files.


Properties will be evaluated at   0.000000,   0.000000,   0.000000 [a0]
OEProp: No title given, name of density matrix used for the following properties is 'SCF density'
  Nuclear Dipole Moment: [e a0]
     X:     3.9883      Y:     1.1634      Z:    -3.0017

  Electronic Dipole Moment: [e a0]
     X:    -4.3301      Y:    -0.9377      Z:     1.4440

  Dipole Moment: [e a0]
     X:    -0.3418      Y:     0.2256      Z:    -1.5577     Total:     1.6106

  Dipole Moment: [D]
     X:    -0.8689      Y:     0.5735      Z:    -3.9592     Total:     4.0938

  Quadrupole Moment: [D A]
    XX:   -51.2128     YY:   -34.1382     ZZ:   -20.2580
    XY:     3.7671     XZ:     3.1543     YZ:    -2.0712

  Traceless Quadrupole Moment: [D A]
    XX:   -16.0098     YY:     1.0648     ZZ:    14.9450
    XY:     3.7671     XZ:     3.1543     YZ:    -2.0712

  Mulliken Charges: (a.u.)
   Center  Symbol    Alpha    Beta     Spin     Total
       1     C     2.93888  2.93888  0.00000  0.12224
       2     C     3.08304  3.08304  0.00000 -0.16607
       3     C     3.06173  3.06173  0.00000 -0.12346
       4     C     3.04952  3.04952  0.00000 -0.09905
       5     C     3.06184  3.06184  0.00000 -0.12367
       6     C     3.07890  3.07890  0.00000 -0.15780
       7     C     2.76999  2.76999  0.00000  0.46001
       8     H     0.41255  0.41255  0.00000  0.17490
       9     H     0.40293  0.40293  0.00000  0.19415
      10     H     0.40078  0.40078  0.00000  0.19843
      11     H     0.40311  0.40311  0.00000  0.19378
      12     H     0.41846  0.41846  0.00000  0.16308
      13     N     3.86583  3.86583  0.00000 -0.73167
      14     N     3.83737  3.83737  0.00000 -0.67473
      15     H     0.29753  0.29753  0.00000  0.40493
      16     H     0.30076  0.30076  0.00000  0.39847
      17     H     0.30442  0.30442  0.00000  0.39115
      18     H     0.31235  0.31235  0.00000  0.37530

   Total alpha = 32.00000, Total beta = 32.00000, Total charge =  1.00000


    Psi4 stopped on: Saturday, 29 September 2018 08:45PM
    Psi4 wall time for execution: 0:10:59.86

*** Psi4 exiting successfully. Buy a developer a beer!
