
    -----------------------------------------------------------------------
          Psi4: An Open-Source Ab Initio Electronic Structure Package
                               Psi4 1.2.1 release

                         Git: Rev {HEAD} 406f4de 


    R. M. Parrish, L. A. Burns, D. G. A. Smith, A. C. Simmonett,
    A. E. DePrince III, E. G. Hohenstein, U. Bozkaya, A. Yu. Sokolov,
    R. Di Remigio, R. M. Richard, J. F. Gonthier, A. M. James,
    H. R. McAlexander, A. Kumar, M. Saitow, X. Wang, B. P. Pritchard,
    P. Verma, H. F. Schaefer III, K. Patkowski, R. A. King, E. F. Valeev,
    F. A. Evangelista, J. M. Turney, T. D. Crawford, and C. D. Sherrill,
    J. Chem. Theory Comput. 13(7) pp 3185--3197 (2017).
    (doi: 10.1021/acs.jctc.7b00174)


                         Additional Contributions by
    P. Kraus, H. Kruse, M. H. Lechner, M. C. Schieber, and R. A. Shaw

    -----------------------------------------------------------------------


    Psi4 started on: Saturday, 29 September 2018 04:37PM

    Process ID: 30593
    Host:       loro.prib.upf.edu
    PSIDATADIR: /shared/joao/test_parameterize/miniconda3/share/psi4
    Memory:     500.0 MiB
    Threads:    1
    
  ==> Input File <==

--------------------------------------------------------------------------
set_num_threads(1)
set_memory('5348 MB')

set { scf_mem_safety_factor 0.7 }

set { reference rks }
set { basis cc-pVDZ }

molecule MOL {
    0 1
    noreorient
    nocom
    symmetry c1
    O    1.014300  -0.002300   0.060500
    O    2.462400  -0.107500  -0.002400
    H    0.821200  -0.823600  -0.430600
    H    2.532822  -0.099253  -0.975955
}

set optking { frozen_dihedral = (" 3 1 2 4 ") }

set optking { dynamic_level = 1 
 geom_maxiter = 250
 print_trajectory_xyz_file = True }

energy, wfn = optimize('B3LYP-D3', return_wfn=True)

import os
os.chdir(os.environ['HTMD_PSI4_WORKDIR'])

oeprop(wfn, 'DIPOLE', 'QUADRUPOLE', 'MULLIKEN_CHARGES')

with open('psi4out.xyz', 'w') as f:
    f.write('4 ' )
    f.write('%.12f\n' % energy)
    f.write(MOL.save_string_xyz())
--------------------------------------------------------------------------
  Threads set to 1 by Python driver.

  Memory set to   4.981 GiB by Python driver.
gradient() will perform analytic gradient computation.

*** tstart() called on loro.prib.upf.edu
*** at Sat Sep 29 16:37:57 2018

   => Loading Basis Set <=

    Name: CC-PVDZ
    Role: ORBITAL
    Keyword: BASIS
    atoms 1-2 entry O          line   198 file /shared/joao/test_parameterize/miniconda3/share/psi4/basis/cc-pvdz.gbs 
    atoms 3-4 entry H          line    22 file /shared/joao/test_parameterize/miniconda3/share/psi4/basis/cc-pvdz.gbs 


         ---------------------------------------------------------
                                   SCF
            by Justin Turney, Rob Parrish, Andy Simmonett
                             and Daniel Smith
                              RKS Reference
                        1 Threads,   5100 MiB Core
         ---------------------------------------------------------

  ==> Geometry <==

    Molecular point group: c1
    Full point group: C1

    Geometry (in Angstrom), charge = 0, multiplicity = 1:

       Center              X                  Y                   Z               Mass       
    ------------   -----------------  -----------------  -----------------  -----------------
         O            1.014300000000    -0.002300000000     0.060500000000    15.994914619560
         O            2.462400000000    -0.107500000000    -0.002400000000    15.994914619560
         H            0.821200000000    -0.823600000000    -0.430600000000     1.007825032070
         H            2.532822000000    -0.099253000000    -0.975955000000     1.007825032070

  Running in c1 symmetry.

  Rotational constants: A =      9.23607  B =      0.13897  C =      0.13794 [cm^-1]
  Rotational constants: A = 276890.36311  B =   4166.27630  C =   4135.35820 [MHz]
  Nuclear repulsion =   36.849594066840027

  Charge       = 0
  Multiplicity = 1
  Electrons    = 18
  Nalpha       = 9
  Nbeta        = 9

  ==> Algorithm <==

  SCF Algorithm Type is DF.
  DIIS enabled.
  MOM disabled.
  Fractional occupation disabled.
  Guess Type is SAD.
  Energy threshold   = 1.00e-08
  Density threshold  = 1.00e-08
  Integral threshold = 0.00e+00

  ==> Primary Basis <==

  Basis Set: CC-PVDZ
    Blend: CC-PVDZ
    Number of shells: 18
    Number of basis function: 38
    Number of Cartesian functions: 40
    Spherical Harmonics?: true
    Max angular momentum: 2

  ==> DFT Potential <==

   => Composite Functional: B3LYP-D3ZERO <= 

    B3LYP-d3zero Hyb-GGA Exchange-Correlation Functional

    P. J. Stephens, F. J. Devlin, C. F. Chabalowski, and M. J. Frisch, J. Phys. Chem. 98, 11623 (1994)

    Deriv               =              1
    GGA                 =           TRUE
    Meta                =          FALSE

    Exchange Hybrid     =           TRUE
    MP2 Hybrid          =          FALSE

   => Exchange Functionals <=

    0.0800   Slater exchange
    0.7200         Becke 88

   => Exact (HF) Exchange <=

    0.2000               HF 

   => Correlation Functionals <=

    0.1900   Vosko, Wilk & Nusair (VWN5_RPA)
    0.8100   Lee, Yang & Parr

   => Molecular Quadrature <=

    Radial Scheme       =       TREUTLER
    Pruning Scheme      =           FLAT
    Nuclear Scheme      =       TREUTLER

    BS radius alpha     =              1
    Pruning alpha       =              1
    Radial Points       =             75
    Spherical Points    =            302
    Total Points        =          88300
    Total Blocks        =            714
    Max Points          =            256
    Max Functions       =             38

   => -D3ZERO: Empirical Dispersion <=

    Grimme's -D3 (zero-damping) Dispersion Correction
    Grimme S.; Antony J.; Ehrlich S.; Krieg H. (2010), J. Chem. Phys., 132: 154104

        S6 =   1.000000E+00
        S8 =   1.703000E+00
       SR6 =   1.261000E+00
       SR8 =   1.000000E+00
    ALPHA6 =   1.400000E+01

   => Loading Basis Set <=

    Name: (CC-PVDZ AUX)
    Role: JKFIT
    Keyword: DF_BASIS_SCF
    atoms 1-2 entry O          line   221 file /shared/joao/test_parameterize/miniconda3/share/psi4/basis/cc-pvdz-jkfit.gbs 
    atoms 3-4 entry H          line    51 file /shared/joao/test_parameterize/miniconda3/share/psi4/basis/cc-pvdz-jkfit.gbs 

  ==> Pre-Iterations <==

   -------------------------------------------------------
    Irrep   Nso     Nmo     Nalpha   Nbeta   Ndocc  Nsocc
   -------------------------------------------------------
     A         38      38       0       0       0       0
   -------------------------------------------------------
    Total      38      38       9       9       9       0
   -------------------------------------------------------

  ==> Integral Setup <==

  DFHelper Memory: AOs need 0.003 [GiB]; user supplied 3.486 [GiB]. Using in-core AOs.

  ==> MemDFJK: Density-Fitted J/K Matrices <==

    J tasked:                   Yes
    K tasked:                   Yes
    wK tasked:                   No
    OpenMP threads:               1
    Memory (MB):               3570
    Algorithm:                 Core
    Schwarz Cutoff:           1E-12
    Mask sparsity (%):       0.0000
    Fitting Condition:        1E-12

   => Auxiliary Basis Set <=

  Basis Set: (CC-PVDZ AUX)
    Blend: CC-PVDZ-JKFIT
    Number of shells: 66
    Number of basis function: 186
    Number of Cartesian functions: 212
    Spherical Harmonics?: true
    Max angular momentum: 3

  Minimum eigenvalue in the overlap matrix is 2.5646618492E-02.
  Using Symmetric Orthogonalization.

  SCF Guess: Superposition of Atomic Densities via on-the-fly atomic UHF.

  ==> Iterations <==

                           Total Energy        Delta E     RMS |[F,P]|

   @DF-RKS iter   0:  -151.66516962142012   -1.51665e+02   4.91999e-02 
   @DF-RKS iter   1:  -151.50029545373567    1.64874e-01   8.45834e-03 
   @DF-RKS iter   2:  -151.49977904356973    5.16410e-04   8.99048e-03 DIIS
   @DF-RKS iter   3:  -151.54311502278543   -4.33360e-02   1.09194e-03 DIIS
   @DF-RKS iter   4:  -151.54357175596087   -4.56733e-04   5.49691e-04 DIIS
   @DF-RKS iter   5:  -151.54371695644576   -1.45200e-04   1.64266e-04 DIIS
   @DF-RKS iter   6:  -151.54373114497355   -1.41885e-05   6.02261e-06 DIIS
   @DF-RKS iter   7:  -151.54373117924331   -3.42698e-08   1.53030e-06 DIIS
   @DF-RKS iter   8:  -151.54373118091564   -1.67233e-09   2.30683e-07 DIIS
   @DF-RKS iter   9:  -151.54373118096990   -5.42570e-11   4.18923e-08 DIIS
   @DF-RKS iter  10:  -151.54373118097251   -2.61480e-12   7.73004e-09 DIIS

  ==> Post-Iterations <==

    Orbital Energies [Eh]
    ---------------------

    Doubly Occupied:                                                      

       1A    -19.191324     2A    -19.191286     3A     -1.118483  
       4A     -0.887226     5A     -0.544014     6A     -0.450208  
       7A     -0.425027     8A     -0.321888     9A     -0.267987  

    Virtual:                                                              

      10A      0.021818    11A      0.029426    12A      0.114341  
      13A      0.571692    14A      0.574144    15A      0.858141  
      16A      0.871811    17A      0.907486    18A      0.925696  
      19A      1.019514    20A      1.027925    21A      1.235831  
      22A      1.271830    23A      1.326380    24A      1.435408  
      25A      1.639846    26A      1.728046    27A      2.045345  
      28A      2.075826    29A      2.398335    30A      2.410405  
      31A      2.597053    32A      2.870159    33A      2.926261  
      34A      3.048975    35A      3.108172    36A      3.452097  
      37A      3.578099    38A      3.819031  

    Final Occupation by Irrep:
              A 
    DOCC [     9 ]

  Energy converged.

  @DF-RKS Final Energy:  -151.54373118097251

   => Energetics <=

    Nuclear Repulsion Energy =             36.8495940668400266
    One-Electron Energy =                -281.6079555112963817
    Two-Electron Energy =                 107.6765183787449303
    DFT Exchange-Correlation Energy =     -14.4616780452610882
    Empirical Dispersion Energy =          -0.0002100700000000
    VV10 Nonlocal Energy =                  0.0000000000000000
    Total Energy =                       -151.5437311809725145



Properties will be evaluated at   0.000000,   0.000000,   0.000000 [a0]

Properties computed using the SCF density matrix

  Nuclear Dipole Moment: [e a0]
     X:    58.8983      Y:    -3.4039      Z:    -1.7797

  Electronic Dipole Moment: [e a0]
     X:   -58.9780      Y:     2.8756      Z:     0.8281

  Dipole Moment: [e a0]
     X:    -0.0797      Y:    -0.5282      Z:    -0.9516     Total:     1.0913

  Dipole Moment: [D]
     X:    -0.2026      Y:    -1.3426      Z:    -2.4187     Total:     2.7738


*** tstop() called on loro.prib.upf.edu at Sat Sep 29 16:38:02 2018
Module time:
	user time   =       2.86 seconds =       0.05 minutes
	system time =       0.08 seconds =       0.00 minutes
	total time  =          5 seconds =       0.08 minutes
Total time:
	user time   =       2.86 seconds =       0.05 minutes
	system time =       0.08 seconds =       0.00 minutes
	total time  =          5 seconds =       0.08 minutes

*** tstart() called on loro.prib.upf.edu
*** at Sat Sep 29 16:38:02 2018


         ------------------------------------------------------------
                                   SCF GRAD                          
                          Rob Parrish, Justin Turney,                
                       Andy Simmonett, and Alex Sokolov              
         ------------------------------------------------------------

  ==> Geometry <==

    Molecular point group: c1
    Full point group: C1

    Geometry (in Angstrom), charge = 0, multiplicity = 1:

       Center              X                  Y                   Z               Mass       
    ------------   -----------------  -----------------  -----------------  -----------------
         O            1.014300000000    -0.002300000000     0.060500000000    15.994914619560
         O            2.462400000000    -0.107500000000    -0.002400000000    15.994914619560
         H            0.821200000000    -0.823600000000    -0.430600000000     1.007825032070
         H            2.532822000000    -0.099253000000    -0.975955000000     1.007825032070

  Nuclear repulsion =   36.849594066840027

  ==> Basis Set <==

  Basis Set: CC-PVDZ
    Blend: CC-PVDZ
    Number of shells: 18
    Number of basis function: 38
    Number of Cartesian functions: 40
    Spherical Harmonics?: true
    Max angular momentum: 2

  ==> DFJKGrad: Density-Fitted SCF Gradients <==

    Gradient:                    1
    J tasked:                  Yes
    K tasked:                  Yes
    wK tasked:                  No
    OpenMP threads:              1
    Integrals threads:           1
    Memory (MB):              3570
    Schwarz Cutoff:          0E+00
    Fitting Condition:       1E-12

   => Auxiliary Basis Set <=

  Basis Set: (CC-PVDZ AUX)
    Blend: CC-PVDZ-JKFIT
    Number of shells: 66
    Number of basis function: 186
    Number of Cartesian functions: 212
    Spherical Harmonics?: true
    Max angular momentum: 3

  ==> DFT Potential <==

   => Composite Functional: B3LYP-D3ZERO <= 

    B3LYP-d3zero Hyb-GGA Exchange-Correlation Functional

    P. J. Stephens, F. J. Devlin, C. F. Chabalowski, and M. J. Frisch, J. Phys. Chem. 98, 11623 (1994)

    Deriv               =              1
    GGA                 =           TRUE
    Meta                =          FALSE

    Exchange Hybrid     =           TRUE
    MP2 Hybrid          =          FALSE

   => Exchange Functionals <=

    0.0800   Slater exchange
    0.7200         Becke 88

   => Exact (HF) Exchange <=

    0.2000               HF 

   => Correlation Functionals <=

    0.1900   Vosko, Wilk & Nusair (VWN5_RPA)
    0.8100   Lee, Yang & Parr

   => Molecular Quadrature <=

    Radial Scheme       =       TREUTLER
    Pruning Scheme      =           FLAT
    Nuclear Scheme      =       TREUTLER

    BS radius alpha     =              1
    Pruning alpha       =              1
    Radial Points       =             75
    Spherical Points    =            302
    Total Points        =          88300
    Total Blocks        =            714
    Max Points          =            256
    Max Functions       =             38


  -Total Gradient:
     Atom            X                  Y                   Z
    ------   -----------------  -----------------  -----------------
       1        0.001285542410     0.006516426456     0.003851171823
       2       -0.000317310540    -0.000121515667     0.007591328931
       3        0.012021729256    -0.000761560861    -0.008162142263
       4       -0.012990443798    -0.005636682116    -0.003286406574


*** tstop() called on loro.prib.upf.edu at Sat Sep 29 16:38:03 2018
Module time:
	user time   =       0.65 seconds =       0.01 minutes
	system time =       0.02 seconds =       0.00 minutes
	total time  =          1 seconds =       0.02 minutes
Total time:
	user time   =       3.51 seconds =       0.06 minutes
	system time =       0.11 seconds =       0.00 minutes
	total time  =          6 seconds =       0.10 minutes

			-----------------------------------------
			 OPTKING 2.0: for geometry optimizations 
			  - R.A. King,  Bethel University        
			-----------------------------------------
	At level 1: Red. Int., RFO, no backsteps, dynamic trust

	Internal coordinates to be generated automatically.
	Detected frag 1 with atoms:  1 2 3 4
	---Fragment 1 Bond Connectivity---
	 1 : 2 3
	 2 : 1 4
	 3 : 1
	 4 : 2

	Assuming in current code that numbering for constraints corresponds to unified fragment.
	Frozen dihedral atom list: 
	     3     1     2     4
	---Fragment 1 Geometry and Gradient---
	 O           1.9167492166       -0.0043463701        0.1143284310
	 O           4.6532616296       -0.2031455593       -0.0045353427
	 H           1.5518431003       -1.5563784430       -0.8137160728
	 H           4.7863399233       -0.1875609879       -1.8442876680
	             0.0012855424        0.0065164265        0.0038511718
	            -0.0003173105       -0.0001215157        0.0075913289
	             0.0120217293       -0.0007615609       -0.0081621423
	            -0.0129904438       -0.0056366821       -0.0032864066

	Previous optimization step data not found.  Starting new optimization.

	---Fragment 1 Intrafragment Coordinates---
	 - Coordinate -           - BOHR/RAD -       - ANG/DEG -
	 R(1,2)           =         2.746297	       1.453278
	 R(1,3)           =         1.844784	       0.976217
	 R(2,4)           =         1.844625	       0.976133
	 B(1,2,4)         =         1.685490	      96.571460
	 B(2,1,3)         =         1.685473	      96.570488
	*D(3,1,2,4)       =         1.047198	      60.000021

	Current energy   :      -151.5437311810

	Generating empirical Hessian (Schlegel '84) for each fragment.
	Taking RFO optimization step.
	Going to follow RFO solution 1.
	Using RFO vector 1.
	Norm of target step-size    0.20191
	Projected energy change by RFO approximation:        -0.0083762389

	Back-transformation to cartesian coordinates...
	Successfully converged to displaced geometry.

	Back-transformation to cartesian coordinates to adjust frozen coordinates...
	Successfully converged to displaced geometry.

	--- Internal Coordinate Step in ANG or DEG, aJ/ANG or AJ/DEG ---
	 ---------------------------------------------------------------------------
	   Coordinate                Previous        Force       Change         New 
	   ----------                --------       ------       ------       ------
	    1 R(1,2)          =      1.453278     0.107358     0.017899     1.471177
	    2 R(1,3)          =      0.976217    -0.019510    -0.002372     0.973846
	    3 R(2,4)          =      0.976133    -0.018885    -0.002295     0.973838
	    4 B(1,2,4)        =     96.571460     0.001788     8.022795   104.594255
	    5 B(2,1,3)        =     96.570488     0.001789     8.024826   104.595313
	    6 *D(3,1,2,4)     =     60.000021     0.000000     0.000000    60.000021
	 ---------------------------------------------------------------------------
	Successfully symmetrized geometry.

  ==> Convergence Check <==

  Measures of convergence in internal coordinates in au.
  Criteria marked as inactive (o), active & met (*), and active & unmet ( ).
  --------------------------------------------------------------------------------------------- ~
   Step     Total Energy     Delta E     MAX Force     RMS Force      MAX Disp      RMS Disp    ~
  --------------------------------------------------------------------------------------------- ~
    Convergence Criteria    1.00e-06 *    3.00e-04 *             o    1.20e-03 *             o  ~
  --------------------------------------------------------------------------------------------- ~
      1    -151.54373118   -1.52e+02      2.35e-02      1.46e-02 o    1.40e-01      8.21e-02 o  ~
  ---------------------------------------------------------------------------------------------

	Writing optimization data to binary file.
	Structure for next step:
	Cartesian Geometry (in Angstrom)
	    O     1.0038828171  -0.0400144255   0.0687081874
	    O     2.4710800208  -0.0812641773  -0.0312484956
	    H     0.7035304192  -0.8403021584  -0.3978785893
	    H     2.6522287430  -0.0710722388  -0.9880361025
			--------------------------
			 OPTKING Finished Execution 
			--------------------------

    Structure for next step:
    Molecular point group: c1
    Full point group: C1

    Geometry (in Angstrom), charge = 0, multiplicity = 1:

    O            1.003882817059    -0.040014425529     0.068708187417
    O            2.471080020772    -0.081264177313    -0.031248495598
    H            0.703530419158    -0.840302158391    -0.397878589297
    H            2.652228743011    -0.071072238767    -0.988036102522

gradient() will perform analytic gradient computation.

*** tstart() called on loro.prib.upf.edu
*** at Sat Sep 29 16:38:03 2018

   => Loading Basis Set <=

    Name: CC-PVDZ
    Role: ORBITAL
    Keyword: BASIS
    atoms 1-2 entry O          line   198 file /shared/joao/test_parameterize/miniconda3/share/psi4/basis/cc-pvdz.gbs 
    atoms 3-4 entry H          line    22 file /shared/joao/test_parameterize/miniconda3/share/psi4/basis/cc-pvdz.gbs 


         ---------------------------------------------------------
                                   SCF
            by Justin Turney, Rob Parrish, Andy Simmonett
                             and Daniel Smith
                              RKS Reference
                        1 Threads,   5100 MiB Core
         ---------------------------------------------------------

  ==> Geometry <==

    Molecular point group: c1
    Full point group: C1

    Geometry (in Angstrom), charge = 0, multiplicity = 1:

       Center              X                  Y                   Z               Mass       
    ------------   -----------------  -----------------  -----------------  -----------------
         O            1.003882817059    -0.040014425529     0.068708187417    15.994914619560
         O            2.471080020772    -0.081264177313    -0.031248495598    15.994914619560
         H            0.703530419158    -0.840302158391    -0.397878589297     1.007825032070
         H            2.652228743011    -0.071072238767    -0.988036102522     1.007825032070

  Running in c1 symmetry.

  Rotational constants: A =      9.23241  B =      0.13799  C =      0.13714 [cm^-1]
  Rotational constants: A = 276780.75104  B =   4136.69325  C =   4111.38526 [MHz]
  Nuclear repulsion =   36.281636147956760

  Charge       = 0
  Multiplicity = 1
  Electrons    = 18
  Nalpha       = 9
  Nbeta        = 9

  ==> Algorithm <==

  SCF Algorithm Type is DF.
  DIIS enabled.
  MOM disabled.
  Fractional occupation disabled.
  Guess Type is READ.
  Energy threshold   = 1.00e-08
  Density threshold  = 1.00e-08
  Integral threshold = 0.00e+00

  ==> Primary Basis <==

  Basis Set: CC-PVDZ
    Blend: CC-PVDZ
    Number of shells: 18
    Number of basis function: 38
    Number of Cartesian functions: 40
    Spherical Harmonics?: true
    Max angular momentum: 2

  ==> DFT Potential <==

   => Composite Functional: B3LYP-D3ZERO <= 

    B3LYP-d3zero Hyb-GGA Exchange-Correlation Functional

    P. J. Stephens, F. J. Devlin, C. F. Chabalowski, and M. J. Frisch, J. Phys. Chem. 98, 11623 (1994)

    Deriv               =              1
    GGA                 =           TRUE
    Meta                =          FALSE

    Exchange Hybrid     =           TRUE
    MP2 Hybrid          =          FALSE

   => Exchange Functionals <=

    0.0800   Slater exchange
    0.7200         Becke 88

   => Exact (HF) Exchange <=

    0.2000               HF 

   => Correlation Functionals <=

    0.1900   Vosko, Wilk & Nusair (VWN5_RPA)
    0.8100   Lee, Yang & Parr

   => Molecular Quadrature <=

    Radial Scheme       =       TREUTLER
    Pruning Scheme      =           FLAT
    Nuclear Scheme      =       TREUTLER

    BS radius alpha     =              1
    Pruning alpha       =              1
    Radial Points       =             75
    Spherical Points    =            302
    Total Points        =          88322
    Total Blocks        =            721
    Max Points          =            256
    Max Functions       =             38

   => -D3ZERO: Empirical Dispersion <=

    Grimme's -D3 (zero-damping) Dispersion Correction
    Grimme S.; Antony J.; Ehrlich S.; Krieg H. (2010), J. Chem. Phys., 132: 154104

        S6 =   1.000000E+00
        S8 =   1.703000E+00
       SR6 =   1.261000E+00
       SR8 =   1.000000E+00
    ALPHA6 =   1.400000E+01

   => Loading Basis Set <=

    Name: (CC-PVDZ AUX)
    Role: JKFIT
    Keyword: DF_BASIS_SCF
    atoms 1-2 entry O          line   221 file /shared/joao/test_parameterize/miniconda3/share/psi4/basis/cc-pvdz-jkfit.gbs 
    atoms 3-4 entry H          line    51 file /shared/joao/test_parameterize/miniconda3/share/psi4/basis/cc-pvdz-jkfit.gbs 

  Reading orbitals from file 180, no projection.

  ==> Pre-Iterations <==

   -------------------------------------------------------
    Irrep   Nso     Nmo     Nalpha   Nbeta   Ndocc  Nsocc
   -------------------------------------------------------
     A         38      38       0       0       0       0
   -------------------------------------------------------
    Total      38      38       9       9       9       0
   -------------------------------------------------------

  ==> Integral Setup <==

  DFHelper Memory: AOs need 0.003 [GiB]; user supplied 3.486 [GiB]. Using in-core AOs.

  ==> MemDFJK: Density-Fitted J/K Matrices <==

    J tasked:                   Yes
    K tasked:                   Yes
    wK tasked:                   No
    OpenMP threads:               1
    Memory (MB):               3570
    Algorithm:                 Core
    Schwarz Cutoff:           1E-12
    Mask sparsity (%):       0.0000
    Fitting Condition:        1E-12

   => Auxiliary Basis Set <=

  Basis Set: (CC-PVDZ AUX)
    Blend: CC-PVDZ-JKFIT
    Number of shells: 66
    Number of basis function: 186
    Number of Cartesian functions: 212
    Spherical Harmonics?: true
    Max angular momentum: 3

  Minimum eigenvalue in the overlap matrix is 2.6941562665E-02.
  Using Symmetric Orthogonalization.

  SCF Guess: Orbitals guess was supplied from a previous computation.

  ==> Iterations <==

                           Total Energy        Delta E     RMS |[F,P]|

   @DF-RKS iter   0:  -151.54322498100632   -1.51543e+02   2.73332e-03 
   @DF-RKS iter   1:  -151.54530095981858   -2.07598e-03   6.13884e-04 
   @DF-RKS iter   2:  -151.54548221223106   -1.81252e-04   3.11027e-04 DIIS
   @DF-RKS iter   3:  -151.54553160201530   -4.93898e-05   8.83711e-05 DIIS
   @DF-RKS iter   4:  -151.54553588636065   -4.28435e-06   2.21900e-05 DIIS
   @DF-RKS iter   5:  -151.54553625681129   -3.70451e-07   2.07759e-06 DIIS
   @DF-RKS iter   6:  -151.54553625626252    5.48766e-10   2.77192e-06 DIIS
   @DF-RKS iter   7:  -151.54553626030292   -4.04040e-09   2.86893e-07 DIIS
   @DF-RKS iter   8:  -151.54553626034911   -4.61853e-11   1.81792e-08 DIIS
   @DF-RKS iter   9:  -151.54553626034959   -4.83169e-13   3.18510e-09 DIIS

  ==> Post-Iterations <==

    Orbital Energies [Eh]
    ---------------------

    Doubly Occupied:                                                      

       1A    -19.190933     2A    -19.190900     3A     -1.101142  
       4A     -0.896016     5A     -0.549170     6A     -0.438038  
       7A     -0.413373     8A     -0.321567     9A     -0.268249  

    Virtual:                                                              

      10A      0.005048    11A      0.037098    12A      0.114495  
      13A      0.561568    14A      0.581998    15A      0.860448  
      16A      0.866050    17A      0.944811    18A      0.944915  
      19A      1.011843    20A      1.022153    21A      1.264074  
      22A      1.280419    23A      1.349931    24A      1.427104  
      25A      1.607172    26A      1.744373    27A      2.051646  
      28A      2.081749    29A      2.388595    30A      2.402123  
      31A      2.567852    32A      2.873507    33A      2.919979  
      34A      3.035360    35A      3.112970    36A      3.494219  
      37A      3.576018    38A      3.767649  

    Final Occupation by Irrep:
              A 
    DOCC [     9 ]

  Energy converged.

  @DF-RKS Final Energy:  -151.54553626034959

   => Energetics <=

    Nuclear Repulsion Energy =             36.2816361479567604
    One-Electron Energy =                -280.5380566804657292
    Two-Electron Energy =                 107.1627698137425995
    DFT Exchange-Correlation Energy =     -14.4515180315832161
    Empirical Dispersion Energy =          -0.0003675100000000
    VV10 Nonlocal Energy =                  0.0000000000000000
    Total Energy =                       -151.5455362603495644



Properties will be evaluated at   0.000000,   0.000000,   0.000000 [a0]

Properties computed using the SCF density matrix

  Nuclear Dipole Moment: [e a0]
     X:    58.8753      Y:    -3.5557      Z:    -2.0527

  Electronic Dipole Moment: [e a0]
     X:   -58.9551      Y:     3.0267      Z:     1.0996

  Dipole Moment: [e a0]
     X:    -0.0798      Y:    -0.5290      Z:    -0.9531     Total:     1.0930

  Dipole Moment: [D]
     X:    -0.2029      Y:    -1.3447      Z:    -2.4225     Total:     2.7781


*** tstop() called on loro.prib.upf.edu at Sat Sep 29 16:38:06 2018
Module time:
	user time   =       2.63 seconds =       0.04 minutes
	system time =       0.09 seconds =       0.00 minutes
	total time  =          3 seconds =       0.05 minutes
Total time:
	user time   =       6.15 seconds =       0.10 minutes
	system time =       0.20 seconds =       0.00 minutes
	total time  =          9 seconds =       0.15 minutes

*** tstart() called on loro.prib.upf.edu
*** at Sat Sep 29 16:38:06 2018


         ------------------------------------------------------------
                                   SCF GRAD                          
                          Rob Parrish, Justin Turney,                
                       Andy Simmonett, and Alex Sokolov              
         ------------------------------------------------------------

  ==> Geometry <==

    Molecular point group: c1
    Full point group: C1

    Geometry (in Angstrom), charge = 0, multiplicity = 1:

       Center              X                  Y                   Z               Mass       
    ------------   -----------------  -----------------  -----------------  -----------------
         O            1.003882817059    -0.040014425529     0.068708187417    15.994914619560
         O            2.471080020772    -0.081264177313    -0.031248495598    15.994914619560
         H            0.703530419158    -0.840302158391    -0.397878589297     1.007825032070
         H            2.652228743011    -0.071072238767    -0.988036102522     1.007825032070

  Nuclear repulsion =   36.281636147956760

  ==> Basis Set <==

  Basis Set: CC-PVDZ
    Blend: CC-PVDZ
    Number of shells: 18
    Number of basis function: 38
    Number of Cartesian functions: 40
    Spherical Harmonics?: true
    Max angular momentum: 2

  ==> DFJKGrad: Density-Fitted SCF Gradients <==

    Gradient:                    1
    J tasked:                  Yes
    K tasked:                  Yes
    wK tasked:                  No
    OpenMP threads:              1
    Integrals threads:           1
    Memory (MB):              3570
    Schwarz Cutoff:          0E+00
    Fitting Condition:       1E-12

   => Auxiliary Basis Set <=

  Basis Set: (CC-PVDZ AUX)
    Blend: CC-PVDZ-JKFIT
    Number of shells: 66
    Number of basis function: 186
    Number of Cartesian functions: 212
    Spherical Harmonics?: true
    Max angular momentum: 3

  ==> DFT Potential <==

   => Composite Functional: B3LYP-D3ZERO <= 

    B3LYP-d3zero Hyb-GGA Exchange-Correlation Functional

    P. J. Stephens, F. J. Devlin, C. F. Chabalowski, and M. J. Frisch, J. Phys. Chem. 98, 11623 (1994)

    Deriv               =              1
    GGA                 =           TRUE
    Meta                =          FALSE

    Exchange Hybrid     =           TRUE
    MP2 Hybrid          =          FALSE

   => Exchange Functionals <=

    0.0800   Slater exchange
    0.7200         Becke 88

   => Exact (HF) Exchange <=

    0.2000               HF 

   => Correlation Functionals <=

    0.1900   Vosko, Wilk & Nusair (VWN5_RPA)
    0.8100   Lee, Yang & Parr

   => Molecular Quadrature <=

    Radial Scheme       =       TREUTLER
    Pruning Scheme      =           FLAT
    Nuclear Scheme      =       TREUTLER

    BS radius alpha     =              1
    Pruning alpha       =              1
    Radial Points       =             75
    Spherical Points    =            302
    Total Points        =          88322
    Total Blocks        =            721
    Max Points          =            256
    Max Functions       =             38


  -Total Gradient:
     Atom            X                  Y                   Z
    ------   -----------------  -----------------  -----------------
       1       -0.011132108530    -0.009113106043     0.005450088404
       2        0.011066535229     0.008657882473    -0.006276058633
       3       -0.004344018439     0.005418851103    -0.002108273645
       4        0.004409160386    -0.004966477420     0.002929103844


*** tstop() called on loro.prib.upf.edu at Sat Sep 29 16:38:07 2018
Module time:
	user time   =       0.65 seconds =       0.01 minutes
	system time =       0.01 seconds =       0.00 minutes
	total time  =          1 seconds =       0.02 minutes
Total time:
	user time   =       6.81 seconds =       0.11 minutes
	system time =       0.21 seconds =       0.00 minutes
	total time  =         10 seconds =       0.17 minutes

			-----------------------------------------
			 OPTKING 2.0: for geometry optimizations 
			  - R.A. King,  Bethel University        
			-----------------------------------------
	At level 1: Red. Int., RFO, no backsteps, dynamic trust

	Previous internal coordinate definitions found.
	---Fragment 1 Geometry and Gradient---
	 O           1.8970635938       -0.0756163056        0.1298396573
	 O           4.6696644917       -0.1535670395       -0.0590510987
	 H           1.3294798184       -1.5879409482       -0.7518815679
	 H           5.0119859661       -0.1343070669       -1.8671176432
	            -0.0111321085       -0.0091131060        0.0054500884
	             0.0110665352        0.0086578825       -0.0062760586
	            -0.0043440184        0.0054188511       -0.0021082736
	             0.0044091604       -0.0049664774        0.0029291038

	---Fragment 1 Intrafragment Coordinates---
	 - Coordinate -           - BOHR/RAD -       - ANG/DEG -
	 R(1,2)           =         2.780121	       1.471177
	 R(1,3)           =         1.840301	       0.973846
	 R(2,4)           =         1.840288	       0.973838
	 B(1,2,4)         =         1.825514	     104.594255
	 B(2,1,3)         =         1.825533	     104.595313
	*D(3,1,2,4)       =         1.047198	      60.000021

	Current energy   :      -151.5455362603

	Energy change for the previous step:
		Projected    :        -0.0083762389
		Actual       :        -0.0018050794
	Energy ratio indicates iffy step: Trust radius decreased to 1.250e-01.


	Performing BFGS update.
	Previous computed or guess Hessian on step 1.
	Steps to be used in Hessian update: 1
	Taking RFO optimization step.
	Going to follow RFO solution 1.
	Using RFO vector 1.
	Norm of target step-size    0.05719
	Projected energy change by RFO approximation:        -0.0003572765

	Back-transformation to cartesian coordinates...
	Successfully converged to displaced geometry.

	Back-transformation to cartesian coordinates to adjust frozen coordinates...
	Successfully converged to displaced geometry.

	--- Internal Coordinate Step in ANG or DEG, aJ/ANG or AJ/DEG ---
	 ---------------------------------------------------------------------------
	   Coordinate                Previous        Force       Change         New 
	   ----------                --------       ------       ------       ------
	    1 R(1,2)          =      1.471177    -0.128186    -0.014624     1.456552
	    2 R(1,3)          =      0.973846     0.017346     0.001426     0.975272
	    3 R(2,4)          =      0.973838     0.017398     0.001432     0.975270
	    4 B(1,2,4)        =    104.594255    -0.000705    -2.024848   102.569407
	    5 B(2,1,3)        =    104.595313    -0.000705    -2.025722   102.569591
	    6 *D(3,1,2,4)     =     60.000021    -0.000000     0.000000    60.000021
	 ---------------------------------------------------------------------------
	Successfully symmetrized geometry.

  ==> Convergence Check <==

  Measures of convergence in internal coordinates in au.
  Criteria marked as inactive (o), active & met (*), and active & unmet ( ).
  ---------------------------------------------------------------------------------------------
   Step     Total Energy     Delta E     MAX Force     RMS Force      MAX Disp      RMS Disp   
  ---------------------------------------------------------------------------------------------
    Convergence Criteria    1.00e-06 *    3.00e-04 *             o    1.20e-03 *             o
  ---------------------------------------------------------------------------------------------
      2    -151.54553626   -1.81e-03      1.56e-02      8.39e-03 o    3.54e-02      2.34e-02 o  ~
  ---------------------------------------------------------------------------------------------

	Writing optimization data to binary file.
	Structure for next step:
	Cartesian Geometry (in Angstrom)
	    O     1.0114572625  -0.0292592189   0.0668122160
	    O     2.4640986010  -0.0880476844  -0.0221933662
	    H     0.7369166175  -0.8357482276  -0.4079067571
	    H     2.6182495190  -0.0795978691  -0.9851670928
			--------------------------
			 OPTKING Finished Execution 
			--------------------------

    Structure for next step:
    Molecular point group: c1
    Full point group: C1

    Geometry (in Angstrom), charge = 0, multiplicity = 1:

    O            1.011457262534    -0.029259218872     0.066812215997
    O            2.464098600984    -0.088047684418    -0.022193366152
    H            0.736916617471    -0.835748227584    -0.407906757075
    H            2.618249519012    -0.079597869127    -0.985167092770

gradient() will perform analytic gradient computation.

*** tstart() called on loro.prib.upf.edu
*** at Sat Sep 29 16:38:07 2018

   => Loading Basis Set <=

    Name: CC-PVDZ
    Role: ORBITAL
    Keyword: BASIS
    atoms 1-2 entry O          line   198 file /shared/joao/test_parameterize/miniconda3/share/psi4/basis/cc-pvdz.gbs 
    atoms 3-4 entry H          line    22 file /shared/joao/test_parameterize/miniconda3/share/psi4/basis/cc-pvdz.gbs 


         ---------------------------------------------------------
                                   SCF
            by Justin Turney, Rob Parrish, Andy Simmonett
                             and Daniel Smith
                              RKS Reference
                        1 Threads,   5100 MiB Core
         ---------------------------------------------------------

  ==> Geometry <==

    Molecular point group: c1
    Full point group: C1

    Geometry (in Angstrom), charge = 0, multiplicity = 1:

       Center              X                  Y                   Z               Mass       
    ------------   -----------------  -----------------  -----------------  -----------------
         O            1.011457262534    -0.029259218872     0.066812215997    15.994914619560
         O            2.464098600984    -0.088047684418    -0.022193366152    15.994914619560
         H            0.736916617471    -0.835748227584    -0.407906757075     1.007825032070
         H            2.618249519012    -0.079597869127    -0.985167092770     1.007825032070

  Running in c1 symmetry.

  Rotational constants: A =      9.25045  B =      0.13852  C =      0.13761 [cm^-1]
  Rotational constants: A = 277321.37623  B =   4152.82319  C =   4125.43216 [MHz]
  Nuclear repulsion =   36.591318269369943

  Charge       = 0
  Multiplicity = 1
  Electrons    = 18
  Nalpha       = 9
  Nbeta        = 9

  ==> Algorithm <==

  SCF Algorithm Type is DF.
  DIIS enabled.
  MOM disabled.
  Fractional occupation disabled.
  Guess Type is READ.
  Energy threshold   = 1.00e-08
  Density threshold  = 1.00e-08
  Integral threshold = 0.00e+00

  ==> Primary Basis <==

  Basis Set: CC-PVDZ
    Blend: CC-PVDZ
    Number of shells: 18
    Number of basis function: 38
    Number of Cartesian functions: 40
    Spherical Harmonics?: true
    Max angular momentum: 2

  ==> DFT Potential <==

   => Composite Functional: B3LYP-D3ZERO <= 

    B3LYP-d3zero Hyb-GGA Exchange-Correlation Functional

    P. J. Stephens, F. J. Devlin, C. F. Chabalowski, and M. J. Frisch, J. Phys. Chem. 98, 11623 (1994)

    Deriv               =              1
    GGA                 =           TRUE
    Meta                =          FALSE

    Exchange Hybrid     =           TRUE
    MP2 Hybrid          =          FALSE

   => Exchange Functionals <=

    0.0800   Slater exchange
    0.7200         Becke 88

   => Exact (HF) Exchange <=

    0.2000               HF 

   => Correlation Functionals <=

    0.1900   Vosko, Wilk & Nusair (VWN5_RPA)
    0.8100   Lee, Yang & Parr

   => Molecular Quadrature <=

    Radial Scheme       =       TREUTLER
    Pruning Scheme      =           FLAT
    Nuclear Scheme      =       TREUTLER

    BS radius alpha     =              1
    Pruning alpha       =              1
    Radial Points       =             75
    Spherical Points    =            302
    Total Points        =          88308
    Total Blocks        =            722
    Max Points          =            256
    Max Functions       =             38

   => -D3ZERO: Empirical Dispersion <=

    Grimme's -D3 (zero-damping) Dispersion Correction
    Grimme S.; Antony J.; Ehrlich S.; Krieg H. (2010), J. Chem. Phys., 132: 154104

        S6 =   1.000000E+00
        S8 =   1.703000E+00
       SR6 =   1.261000E+00
       SR8 =   1.000000E+00
    ALPHA6 =   1.400000E+01

   => Loading Basis Set <=

    Name: (CC-PVDZ AUX)
    Role: JKFIT
    Keyword: DF_BASIS_SCF
    atoms 1-2 entry O          line   221 file /shared/joao/test_parameterize/miniconda3/share/psi4/basis/cc-pvdz-jkfit.gbs 
    atoms 3-4 entry H          line    51 file /shared/joao/test_parameterize/miniconda3/share/psi4/basis/cc-pvdz-jkfit.gbs 

  Reading orbitals from file 180, no projection.

  ==> Pre-Iterations <==

   -------------------------------------------------------
    Irrep   Nso     Nmo     Nalpha   Nbeta   Ndocc  Nsocc
   -------------------------------------------------------
     A         38      38       0       0       0       0
   -------------------------------------------------------
    Total      38      38       9       9       9       0
   -------------------------------------------------------

  ==> Integral Setup <==

  DFHelper Memory: AOs need 0.003 [GiB]; user supplied 3.486 [GiB]. Using in-core AOs.

  ==> MemDFJK: Density-Fitted J/K Matrices <==

    J tasked:                   Yes
    K tasked:                   Yes
    wK tasked:                   No
    OpenMP threads:               1
    Memory (MB):               3570
    Algorithm:                 Core
    Schwarz Cutoff:           1E-12
    Mask sparsity (%):       0.0000
    Fitting Condition:        1E-12

   => Auxiliary Basis Set <=

  Basis Set: (CC-PVDZ AUX)
    Blend: CC-PVDZ-JKFIT
    Number of shells: 66
    Number of basis function: 186
    Number of Cartesian functions: 212
    Spherical Harmonics?: true
    Max angular momentum: 3

  Minimum eigenvalue in the overlap matrix is 2.6039064307E-02.
  Using Symmetric Orthogonalization.

  SCF Guess: Orbitals guess was supplied from a previous computation.

  ==> Iterations <==

                           Total Energy        Delta E     RMS |[F,P]|

   @DF-RKS iter   0:  -151.55020416181640   -1.51550e+02   9.91006e-04 
   @DF-RKS iter   1:  -151.54611560788453    4.08855e-03   2.82876e-04 
   @DF-RKS iter   2:  -151.54614633907835   -3.07312e-05   1.40046e-04 DIIS
   @DF-RKS iter   3:  -151.54615598931187   -9.65023e-06   2.59683e-05 DIIS
   @DF-RKS iter   4:  -151.54615635233944   -3.63028e-07   5.81287e-06 DIIS
   @DF-RKS iter   5:  -151.54615638035239   -2.80129e-08   3.33946e-07 DIIS
   @DF-RKS iter   6:  -151.54615638038547   -3.30829e-11   3.94378e-07 DIIS
   @DF-RKS iter   7:  -151.54615638046516   -7.96945e-11   7.23134e-08 DIIS
   @DF-RKS iter   8:  -151.54615638046832   -3.15481e-12   3.45097e-09 DIIS

  ==> Post-Iterations <==

    Orbital Energies [Eh]
    ---------------------

    Doubly Occupied:                                                      

       1A    -19.190465     2A    -19.190430     3A     -1.109042  
       4A     -0.891793     5A     -0.549665     6A     -0.441951  
       7A     -0.417558     8A     -0.321025     9A     -0.266882  

    Virtual:                                                              

      10A      0.014905    11A      0.034778    12A      0.116081  
      13A      0.564607    14A      0.579865    15A      0.860303  
      16A      0.868500    17A      0.934084    18A      0.937414  
      19A      1.014782    20A      1.020565    21A      1.255262  
      22A      1.290864    23A      1.333317    24A      1.431077  
      25A      1.622051    26A      1.736554    27A      2.050940  
      28A      2.080533    29A      2.394764    30A      2.396568  
      31A      2.566840    32A      2.871524    33A      2.921746  
      34A      3.051199    35A      3.125142    36A      3.481801  
      37A      3.574361    38A      3.792636  

    Final Occupation by Irrep:
              A 
    DOCC [     9 ]

  Energy converged.

  @DF-RKS Final Energy:  -151.54615638046832

   => Energetics <=

    Nuclear Repulsion Energy =             36.5913182693699426
    One-Electron Energy =                -281.1363151998380658
    Two-Electron Energy =                 107.4562246801277468
    DFT Exchange-Correlation Energy =     -14.4570712101279284
    Empirical Dispersion Energy =          -0.0003129200000000
    VV10 Nonlocal Energy =                  0.0000000000000000
    Total Energy =                       -151.5461563804683180



Properties will be evaluated at   0.000000,   0.000000,   0.000000 [a0]

Properties computed using the SCF density matrix

  Nuclear Dipole Moment: [e a0]
     X:    58.8831      Y:    -3.5032      Z:    -1.9580

  Electronic Dipole Moment: [e a0]
     X:   -58.9631      Y:     2.9734      Z:     1.0036

  Dipole Moment: [e a0]
     X:    -0.0799      Y:    -0.5298      Z:    -0.9544     Total:     1.0945

  Dipole Moment: [D]
     X:    -0.2031      Y:    -1.3466      Z:    -2.4259     Total:     2.7820


*** tstop() called on loro.prib.upf.edu at Sat Sep 29 16:38:10 2018
Module time:
	user time   =       2.42 seconds =       0.04 minutes
	system time =       0.07 seconds =       0.00 minutes
	total time  =          3 seconds =       0.05 minutes
Total time:
	user time   =       9.24 seconds =       0.15 minutes
	system time =       0.29 seconds =       0.00 minutes
	total time  =         13 seconds =       0.22 minutes

*** tstart() called on loro.prib.upf.edu
*** at Sat Sep 29 16:38:11 2018


         ------------------------------------------------------------
                                   SCF GRAD                          
                          Rob Parrish, Justin Turney,                
                       Andy Simmonett, and Alex Sokolov              
         ------------------------------------------------------------

  ==> Geometry <==

    Molecular point group: c1
    Full point group: C1

    Geometry (in Angstrom), charge = 0, multiplicity = 1:

       Center              X                  Y                   Z               Mass       
    ------------   -----------------  -----------------  -----------------  -----------------
         O            1.011457262534    -0.029259218872     0.066812215997    15.994914619560
         O            2.464098600984    -0.088047684418    -0.022193366152    15.994914619560
         H            0.736916617471    -0.835748227584    -0.407906757075     1.007825032070
         H            2.618249519012    -0.079597869127    -0.985167092770     1.007825032070

  Nuclear repulsion =   36.591318269369943

  ==> Basis Set <==

  Basis Set: CC-PVDZ
    Blend: CC-PVDZ
    Number of shells: 18
    Number of basis function: 38
    Number of Cartesian functions: 40
    Spherical Harmonics?: true
    Max angular momentum: 2

  ==> DFJKGrad: Density-Fitted SCF Gradients <==

    Gradient:                    1
    J tasked:                  Yes
    K tasked:                  Yes
    wK tasked:                  No
    OpenMP threads:              1
    Integrals threads:           1
    Memory (MB):              3570
    Schwarz Cutoff:          0E+00
    Fitting Condition:       1E-12

   => Auxiliary Basis Set <=

  Basis Set: (CC-PVDZ AUX)
    Blend: CC-PVDZ-JKFIT
    Number of shells: 66
    Number of basis function: 186
    Number of Cartesian functions: 212
    Spherical Harmonics?: true
    Max angular momentum: 3

  ==> DFT Potential <==

   => Composite Functional: B3LYP-D3ZERO <= 

    B3LYP-d3zero Hyb-GGA Exchange-Correlation Functional

    P. J. Stephens, F. J. Devlin, C. F. Chabalowski, and M. J. Frisch, J. Phys. Chem. 98, 11623 (1994)

    Deriv               =              1
    GGA                 =           TRUE
    Meta                =          FALSE

    Exchange Hybrid     =           TRUE
    MP2 Hybrid          =          FALSE

   => Exchange Functionals <=

    0.0800   Slater exchange
    0.7200         Becke 88

   => Exact (HF) Exchange <=

    0.2000               HF 

   => Correlation Functionals <=

    0.1900   Vosko, Wilk & Nusair (VWN5_RPA)
    0.8100   Lee, Yang & Parr

   => Molecular Quadrature <=

    Radial Scheme       =       TREUTLER
    Pruning Scheme      =           FLAT
    Nuclear Scheme      =       TREUTLER

    BS radius alpha     =              1
    Pruning alpha       =              1
    Radial Points       =             75
    Spherical Points    =            302
    Total Points        =          88308
    Total Blocks        =            722
    Max Points          =            256
    Max Functions       =             38


  -Total Gradient:
     Atom            X                  Y                   Z
    ------   -----------------  -----------------  -----------------
       1       -0.003654013662    -0.003987795465     0.005472882611
       2        0.004030696573     0.006481067915    -0.000982406070
       3       -0.000290277732     0.002868444264    -0.004520291043
       4       -0.000086250412    -0.005360689855     0.000031664222


*** tstop() called on loro.prib.upf.edu at Sat Sep 29 16:38:11 2018
Module time:
	user time   =       0.69 seconds =       0.01 minutes
	system time =       0.01 seconds =       0.00 minutes
	total time  =          0 seconds =       0.00 minutes
Total time:
	user time   =       9.93 seconds =       0.17 minutes
	system time =       0.30 seconds =       0.01 minutes
	total time  =         14 seconds =       0.23 minutes

			-----------------------------------------
			 OPTKING 2.0: for geometry optimizations 
			  - R.A. King,  Bethel University        
			-----------------------------------------
	At level 1: Red. Int., RFO, no backsteps, dynamic trust

	Previous internal coordinate definitions found.
	---Fragment 1 Geometry and Gradient---
	 O           1.9113772213       -0.0552919105        0.1262567906
	 O           4.6564715203       -0.1663860102       -0.0419393840
	 H           1.3925705898       -1.5793352662       -0.7708320586
	 H           4.9477745385       -0.1504181734       -1.8616960005
	            -0.0036540137       -0.0039877955        0.0054728826
	             0.0040306966        0.0064810679       -0.0009824061
	            -0.0002902777        0.0028684443       -0.0045202910
	            -0.0000862504       -0.0053606899        0.0000316642

	---Fragment 1 Intrafragment Coordinates---
	 - Coordinate -           - BOHR/RAD -       - ANG/DEG -
	 R(1,2)           =         2.752485	       1.456552
	 R(1,3)           =         1.842997	       0.975272
	 R(2,4)           =         1.842994	       0.975270
	 B(1,2,4)         =         1.790174	     102.569407
	 B(2,1,3)         =         1.790177	     102.569591
	*D(3,1,2,4)       =         1.047198	      60.000021

	Current energy   :      -151.5461563805

	Energy change for the previous step:
		Projected    :        -0.0003572765
		Actual       :        -0.0006201201
	Energy ratio indicates good step: Trust radius increased to 3.750e-01.


	Performing BFGS update.
	Previous computed or guess Hessian on step 1.
	Steps to be used in Hessian update: 2 1
	Taking RFO optimization step.
	Going to follow RFO solution 1.
	Using RFO vector 1.
	Norm of target step-size    0.01099
	Projected energy change by RFO approximation:        -0.0000489461

	Back-transformation to cartesian coordinates...
	Successfully converged to displaced geometry.

	Back-transformation to cartesian coordinates to adjust frozen coordinates...
	Successfully converged to displaced geometry.

	--- Internal Coordinate Step in ANG or DEG, aJ/ANG or AJ/DEG ---
	 ---------------------------------------------------------------------------
	   Coordinate                Previous        Force       Change         New 
	   ----------                --------       ------       ------       ------
	    1 R(1,2)          =      1.456552    -0.032532    -0.005617     1.450936
	    2 R(1,3)          =      0.975272     0.000750     0.000047     0.975319
	    3 R(2,4)          =      0.975270     0.000761     0.000051     0.975321
	    4 B(1,2,4)        =    102.569407    -0.000022     0.116166   102.685573
	    5 B(2,1,3)        =    102.569591    -0.000022     0.115957   102.685548
	    6 *D(3,1,2,4)     =     60.000021     0.000000     0.000000    60.000021
	 ---------------------------------------------------------------------------
	Successfully symmetrized geometry.

  ==> Convergence Check <==

  Measures of convergence in internal coordinates in au.
  Criteria marked as inactive (o), active & met (*), and active & unmet ( ).
  ---------------------------------------------------------------------------------------------
   Step     Total Energy     Delta E     MAX Force     RMS Force      MAX Disp      RMS Disp   
  ---------------------------------------------------------------------------------------------
    Convergence Criteria    1.00e-06 *    3.00e-04 *             o    1.20e-03 *             o
  ---------------------------------------------------------------------------------------------
      3    -151.54615638   -6.20e-04      3.95e-03      1.62e-03 o    1.06e-02      4.49e-03 o  ~
  ---------------------------------------------------------------------------------------------

	Writing optimization data to binary file.
	Structure for next step:
	Cartesian Geometry (in Angstrom)
	    O     1.0142455095  -0.0293632837   0.0664456329
	    O     2.4612838602  -0.0881056184  -0.0221163028
	    H     0.7377318274  -0.8354141986  -0.4079684688
	    H     2.6174608029  -0.0797698993  -0.9848158612
			--------------------------
			 OPTKING Finished Execution 
			--------------------------

    Structure for next step:
    Molecular point group: c1
    Full point group: C1

    Geometry (in Angstrom), charge = 0, multiplicity = 1:

    O            1.014245509504    -0.029363283700     0.066445632885
    O            2.461283860169    -0.088105618421    -0.022116302841
    H            0.737731827413    -0.835414198571    -0.407968468837
    H            2.617460802915    -0.079769899308    -0.984815861208

gradient() will perform analytic gradient computation.

*** tstart() called on loro.prib.upf.edu
*** at Sat Sep 29 16:38:12 2018

   => Loading Basis Set <=

    Name: CC-PVDZ
    Role: ORBITAL
    Keyword: BASIS
    atoms 1-2 entry O          line   198 file /shared/joao/test_parameterize/miniconda3/share/psi4/basis/cc-pvdz.gbs 
    atoms 3-4 entry H          line    22 file /shared/joao/test_parameterize/miniconda3/share/psi4/basis/cc-pvdz.gbs 


         ---------------------------------------------------------
                                   SCF
            by Justin Turney, Rob Parrish, Andy Simmonett
                             and Daniel Smith
                              RKS Reference
                        1 Threads,   5100 MiB Core
         ---------------------------------------------------------

  ==> Geometry <==

    Molecular point group: c1
    Full point group: C1

    Geometry (in Angstrom), charge = 0, multiplicity = 1:

       Center              X                  Y                   Z               Mass       
    ------------   -----------------  -----------------  -----------------  -----------------
         O            1.014245509504    -0.029363283700     0.066445632885    15.994914619560
         O            2.461283860169    -0.088105618421    -0.022116302841    15.994914619560
         H            0.737731827413    -0.835414198571    -0.407968468837     1.007825032070
         H            2.617460802915    -0.079769899308    -0.984815861208     1.007825032070

  Running in c1 symmetry.

  Rotational constants: A =      9.26111  B =      0.13868  C =      0.13776 [cm^-1]
  Rotational constants: A = 277641.02742  B =   4157.42779  C =   4129.99506 [MHz]
  Nuclear repulsion =   36.688880977908646

  Charge       = 0
  Multiplicity = 1
  Electrons    = 18
  Nalpha       = 9
  Nbeta        = 9

  ==> Algorithm <==

  SCF Algorithm Type is DF.
  DIIS enabled.
  MOM disabled.
  Fractional occupation disabled.
  Guess Type is READ.
  Energy threshold   = 1.00e-08
  Density threshold  = 1.00e-08
  Integral threshold = 0.00e+00

  ==> Primary Basis <==

  Basis Set: CC-PVDZ
    Blend: CC-PVDZ
    Number of shells: 18
    Number of basis function: 38
    Number of Cartesian functions: 40
    Spherical Harmonics?: true
    Max angular momentum: 2

  ==> DFT Potential <==

   => Composite Functional: B3LYP-D3ZERO <= 

    B3LYP-d3zero Hyb-GGA Exchange-Correlation Functional

    P. J. Stephens, F. J. Devlin, C. F. Chabalowski, and M. J. Frisch, J. Phys. Chem. 98, 11623 (1994)

    Deriv               =              1
    GGA                 =           TRUE
    Meta                =          FALSE

    Exchange Hybrid     =           TRUE
    MP2 Hybrid          =          FALSE

   => Exchange Functionals <=

    0.0800   Slater exchange
    0.7200         Becke 88

   => Exact (HF) Exchange <=

    0.2000               HF 

   => Correlation Functionals <=

    0.1900   Vosko, Wilk & Nusair (VWN5_RPA)
    0.8100   Lee, Yang & Parr

   => Molecular Quadrature <=

    Radial Scheme       =       TREUTLER
    Pruning Scheme      =           FLAT
    Nuclear Scheme      =       TREUTLER

    BS radius alpha     =              1
    Pruning alpha       =              1
    Radial Points       =             75
    Spherical Points    =            302
    Total Points        =          88308
    Total Blocks        =            720
    Max Points          =            256
    Max Functions       =             38

   => -D3ZERO: Empirical Dispersion <=

    Grimme's -D3 (zero-damping) Dispersion Correction
    Grimme S.; Antony J.; Ehrlich S.; Krieg H. (2010), J. Chem. Phys., 132: 154104

        S6 =   1.000000E+00
        S8 =   1.703000E+00
       SR6 =   1.261000E+00
       SR8 =   1.000000E+00
    ALPHA6 =   1.400000E+01

   => Loading Basis Set <=

    Name: (CC-PVDZ AUX)
    Role: JKFIT
    Keyword: DF_BASIS_SCF
    atoms 1-2 entry O          line   221 file /shared/joao/test_parameterize/miniconda3/share/psi4/basis/cc-pvdz-jkfit.gbs 
    atoms 3-4 entry H          line    51 file /shared/joao/test_parameterize/miniconda3/share/psi4/basis/cc-pvdz-jkfit.gbs 

  Reading orbitals from file 180, no projection.

  ==> Pre-Iterations <==

   -------------------------------------------------------
    Irrep   Nso     Nmo     Nalpha   Nbeta   Ndocc  Nsocc
   -------------------------------------------------------
     A         38      38       0       0       0       0
   -------------------------------------------------------
    Total      38      38       9       9       9       0
   -------------------------------------------------------

  ==> Integral Setup <==

  DFHelper Memory: AOs need 0.003 [GiB]; user supplied 3.486 [GiB]. Using in-core AOs.

  ==> MemDFJK: Density-Fitted J/K Matrices <==

    J tasked:                   Yes
    K tasked:                   Yes
    wK tasked:                   No
    OpenMP threads:               1
    Memory (MB):               3570
    Algorithm:                 Core
    Schwarz Cutoff:           1E-12
    Mask sparsity (%):       0.0000
    Fitting Condition:        1E-12

   => Auxiliary Basis Set <=

  Basis Set: (CC-PVDZ AUX)
    Blend: CC-PVDZ-JKFIT
    Number of shells: 66
    Number of basis function: 186
    Number of Cartesian functions: 212
    Spherical Harmonics?: true
    Max angular momentum: 3

  Minimum eigenvalue in the overlap matrix is 2.5758330475E-02.
  Using Symmetric Orthogonalization.

  SCF Guess: Orbitals guess was supplied from a previous computation.

  ==> Iterations <==

                           Total Energy        Delta E     RMS |[F,P]|

   @DF-RKS iter   0:  -151.54879630632510   -1.51549e+02   3.01709e-04 
   @DF-RKS iter   1:  -151.54617997431271    2.61633e-03   6.94581e-05 
   @DF-RKS iter   2:  -151.54618166017747   -1.68586e-06   3.54083e-05 DIIS
   @DF-RKS iter   3:  -151.54618224331540   -5.83138e-07   5.80763e-06 DIIS
   @DF-RKS iter   4:  -151.54618226116958   -1.78542e-08   5.80932e-07 DIIS
   @DF-RKS iter   5:  -151.54618226137944   -2.09866e-10   9.76045e-08 DIIS
   @DF-RKS iter   6:  -151.54618226138015   -7.10543e-13   9.25225e-08 DIIS
   @DF-RKS iter   7:  -151.54618226138462   -4.46221e-12   9.40827e-09 DIIS

  ==> Post-Iterations <==

    Orbital Energies [Eh]
    ---------------------

    Doubly Occupied:                                                      

       1A    -19.190084     2A    -19.190049     3A     -1.111150  
       4A     -0.890795     5A     -0.551029     6A     -0.442319  
       7A     -0.418139     8A     -0.320580     9A     -0.266090  

    Virtual:                                                              

      10A      0.017732    11A      0.034736    12A      0.117251  
      13A      0.564498    14A      0.580065    15A      0.860522  
      16A      0.869283    17A      0.933648    18A      0.936390  
      19A      1.014180    20A      1.020712    21A      1.255040  
      22A      1.291045    23A      1.333296    24A      1.431957  
      25A      1.624121    26A      1.737251    27A      2.051834  
      28A      2.080938    29A      2.391394    30A      2.400661  
      31A      2.563843    32A      2.870621    33A      2.922104  
      34A      3.057369    35A      3.130706    36A      3.483584  
      37A      3.573681    38A      3.797755  

    Final Occupation by Irrep:
              A 
    DOCC [     9 ]

  Energy converged.

  @DF-RKS Final Energy:  -151.54618226138462

   => Energetics <=

    Nuclear Repulsion Energy =             36.6888809779086458
    One-Electron Energy =                -281.3273293621367657
    Two-Electron Energy =                 107.5516594400451140
    DFT Exchange-Correlation Energy =     -14.4590839572016332
    Empirical Dispersion Energy =          -0.0003093600000000
    VV10 Nonlocal Energy =                  0.0000000000000000
    Total Energy =                       -151.5461822613846437



Properties will be evaluated at   0.000000,   0.000000,   0.000000 [a0]

Properties computed using the SCF density matrix

  Nuclear Dipole Moment: [e a0]
     X:    58.8828      Y:    -3.5053      Z:    -1.9618

  Electronic Dipole Moment: [e a0]
     X:   -58.9627      Y:     2.9757      Z:     1.0077

  Dipole Moment: [e a0]
     X:    -0.0799      Y:    -0.5296      Z:    -0.9541     Total:     1.0942

  Dipole Moment: [D]
     X:    -0.2031      Y:    -1.3462      Z:    -2.4252     Total:     2.7812


*** tstop() called on loro.prib.upf.edu at Sat Sep 29 16:38:15 2018
Module time:
	user time   =       2.08 seconds =       0.03 minutes
	system time =       0.06 seconds =       0.00 minutes
	total time  =          3 seconds =       0.05 minutes
Total time:
	user time   =      12.02 seconds =       0.20 minutes
	system time =       0.36 seconds =       0.01 minutes
	total time  =         18 seconds =       0.30 minutes

*** tstart() called on loro.prib.upf.edu
*** at Sat Sep 29 16:38:15 2018


         ------------------------------------------------------------
                                   SCF GRAD                          
                          Rob Parrish, Justin Turney,                
                       Andy Simmonett, and Alex Sokolov              
         ------------------------------------------------------------

  ==> Geometry <==

    Molecular point group: c1
    Full point group: C1

    Geometry (in Angstrom), charge = 0, multiplicity = 1:

       Center              X                  Y                   Z               Mass       
    ------------   -----------------  -----------------  -----------------  -----------------
         O            1.014245509504    -0.029363283700     0.066445632885    15.994914619560
         O            2.461283860169    -0.088105618421    -0.022116302841    15.994914619560
         H            0.737731827413    -0.835414198571    -0.407968468837     1.007825032070
         H            2.617460802915    -0.079769899308    -0.984815861208     1.007825032070

  Nuclear repulsion =   36.688880977908646

  ==> Basis Set <==

  Basis Set: CC-PVDZ
    Blend: CC-PVDZ
    Number of shells: 18
    Number of basis function: 38
    Number of Cartesian functions: 40
    Spherical Harmonics?: true
    Max angular momentum: 2

  ==> DFJKGrad: Density-Fitted SCF Gradients <==

    Gradient:                    1
    J tasked:                  Yes
    K tasked:                  Yes
    wK tasked:                  No
    OpenMP threads:              1
    Integrals threads:           1
    Memory (MB):              3570
    Schwarz Cutoff:          0E+00
    Fitting Condition:       1E-12

   => Auxiliary Basis Set <=

  Basis Set: (CC-PVDZ AUX)
    Blend: CC-PVDZ-JKFIT
    Number of shells: 66
    Number of basis function: 186
    Number of Cartesian functions: 212
    Spherical Harmonics?: true
    Max angular momentum: 3

  ==> DFT Potential <==

   => Composite Functional: B3LYP-D3ZERO <= 

    B3LYP-d3zero Hyb-GGA Exchange-Correlation Functional

    P. J. Stephens, F. J. Devlin, C. F. Chabalowski, and M. J. Frisch, J. Phys. Chem. 98, 11623 (1994)

    Deriv               =              1
    GGA                 =           TRUE
    Meta                =          FALSE

    Exchange Hybrid     =           TRUE
    MP2 Hybrid          =          FALSE

   => Exchange Functionals <=

    0.0800   Slater exchange
    0.7200         Becke 88

   => Exact (HF) Exchange <=

    0.2000               HF 

   => Correlation Functionals <=

    0.1900   Vosko, Wilk & Nusair (VWN5_RPA)
    0.8100   Lee, Yang & Parr

   => Molecular Quadrature <=

    Radial Scheme       =       TREUTLER
    Pruning Scheme      =           FLAT
    Nuclear Scheme      =       TREUTLER

    BS radius alpha     =              1
    Pruning alpha       =              1
    Radial Points       =             75
    Spherical Points    =            302
    Total Points        =          88308
    Total Blocks        =            720
    Max Points          =            256
    Max Functions       =             38


  -Total Gradient:
     Atom            X                  Y                   Z
    ------   -----------------  -----------------  -----------------
       1       -0.000844955154    -0.003995981290     0.005368079317
       2        0.001236707071     0.006595266452    -0.000683253157
       3       -0.000199859608     0.002802375271    -0.004617061319
       4       -0.000191769229    -0.005400847269    -0.000066299611


*** tstop() called on loro.prib.upf.edu at Sat Sep 29 16:38:16 2018
Module time:
	user time   =       0.69 seconds =       0.01 minutes
	system time =       0.01 seconds =       0.00 minutes
	total time  =          1 seconds =       0.02 minutes
Total time:
	user time   =      12.72 seconds =       0.21 minutes
	system time =       0.37 seconds =       0.01 minutes
	total time  =         19 seconds =       0.32 minutes

			-----------------------------------------
			 OPTKING 2.0: for geometry optimizations 
			  - R.A. King,  Bethel University        
			-----------------------------------------
	At level 1: Red. Int., RFO, no backsteps, dynamic trust

	Previous internal coordinate definitions found.
	---Fragment 1 Geometry and Gradient---
	 O           1.9166462445       -0.0554885646        0.1255640489
	 O           4.6511524310       -0.1664954896       -0.0417937554
	 H           1.3941111133       -1.5787040428       -0.7709486770
	 H           4.9462840811       -0.1507432633       -1.8610322690
	            -0.0008449552       -0.0039959813        0.0053680793
	             0.0012367071        0.0065952665       -0.0006832532
	            -0.0001998596        0.0028023753       -0.0046170613
	            -0.0001917692       -0.0054008473       -0.0000662996

	---Fragment 1 Intrafragment Coordinates---
	 - Coordinate -           - BOHR/RAD -       - ANG/DEG -
	 R(1,2)           =         2.741871	       1.450936
	 R(1,3)           =         1.843085	       0.975319
	 R(2,4)           =         1.843090	       0.975321
	 B(1,2,4)         =         1.792201	     102.685573
	 B(2,1,3)         =         1.792201	     102.685548
	*D(3,1,2,4)       =         1.047198	      60.000021

	Current energy   :      -151.5461822614

	Energy change for the previous step:
		Projected    :        -0.0000489461
		Actual       :        -0.0000258809

	Performing BFGS update.
	Previous computed or guess Hessian on step 1.
	Steps to be used in Hessian update: 3 2
	Taking RFO optimization step.
	Going to follow RFO solution 1.
	Using RFO vector 1.
	Norm of target step-size    0.00405
	Projected energy change by RFO approximation:        -0.0000049651

	Back-transformation to cartesian coordinates...
	Successfully converged to displaced geometry.

	Back-transformation to cartesian coordinates to adjust frozen coordinates...
	Successfully converged to displaced geometry.

	--- Internal Coordinate Step in ANG or DEG, aJ/ANG or AJ/DEG ---
	 ---------------------------------------------------------------------------
	   Coordinate                Previous        Force       Change         New 
	   ----------                --------       ------       ------       ------
	    1 R(1,2)          =      1.450936    -0.008580    -0.002080     1.448855
	    2 R(1,3)          =      0.975319     0.000120     0.000005     0.975323
	    3 R(2,4)          =      0.975321     0.000103     0.000003     0.975324
	    4 B(1,2,4)        =    102.685573    -0.000005     0.039378   102.724951
	    5 B(2,1,3)        =    102.685548    -0.000005     0.039400   102.724948
	    6 *D(3,1,2,4)     =     60.000021    -0.000000     0.000000    60.000021
	 ---------------------------------------------------------------------------
	Successfully symmetrized geometry.

  ==> Convergence Check <==

  Measures of convergence in internal coordinates in au.
  Criteria marked as inactive (o), active & met (*), and active & unmet ( ).
  ---------------------------------------------------------------------------------------------
   Step     Total Energy     Delta E     MAX Force     RMS Force      MAX Disp      RMS Disp   
  ---------------------------------------------------------------------------------------------
    Convergence Criteria    1.00e-06 *    3.00e-04 *             o    1.20e-03 *             o
  ---------------------------------------------------------------------------------------------
      4    -151.54618226   -2.59e-05      1.04e-03      4.27e-04 o    3.93e-03      1.65e-03 o  ~
  ---------------------------------------------------------------------------------------------

	Writing optimization data to binary file.
	Structure for next step:
	Cartesian Geometry (in Angstrom)
	    O     1.0152788089  -0.0293904504   0.0663029665
	    O     2.4602420835  -0.0881383630  -0.0220825915
	    H     0.7380873743  -0.8352777077  -0.4080030409
	    H     2.6171137333  -0.0798464788  -0.9846723341
			--------------------------
			 OPTKING Finished Execution 
			--------------------------

    Structure for next step:
    Molecular point group: c1
    Full point group: C1

    Geometry (in Angstrom), charge = 0, multiplicity = 1:

    O            1.015278808870    -0.029390450395     0.066302966520
    O            2.460242083484    -0.088138363048    -0.022082591537
    H            0.738087374314    -0.835277707708    -0.408003040928
    H            2.617113733331    -0.079846478848    -0.984672334055

gradient() will perform analytic gradient computation.

*** tstart() called on loro.prib.upf.edu
*** at Sat Sep 29 16:38:16 2018

   => Loading Basis Set <=

    Name: CC-PVDZ
    Role: ORBITAL
    Keyword: BASIS
    atoms 1-2 entry O          line   198 file /shared/joao/test_parameterize/miniconda3/share/psi4/basis/cc-pvdz.gbs 
    atoms 3-4 entry H          line    22 file /shared/joao/test_parameterize/miniconda3/share/psi4/basis/cc-pvdz.gbs 


         ---------------------------------------------------------
                                   SCF
            by Justin Turney, Rob Parrish, Andy Simmonett
                             and Daniel Smith
                              RKS Reference
                        1 Threads,   5100 MiB Core
         ---------------------------------------------------------

  ==> Geometry <==

    Molecular point group: c1
    Full point group: C1

    Geometry (in Angstrom), charge = 0, multiplicity = 1:

       Center              X                  Y                   Z               Mass       
    ------------   -----------------  -----------------  -----------------  -----------------
         O            1.015278808870    -0.029390450395     0.066302966520    15.994914619560
         O            2.460242083484    -0.088138363048    -0.022082591537    15.994914619560
         H            0.738087374314    -0.835277707708    -0.408003040928     1.007825032070
         H            2.617113733331    -0.079846478848    -0.984672334055     1.007825032070

  Running in c1 symmetry.

  Rotational constants: A =      9.26533  B =      0.13873  C =      0.13782 [cm^-1]
  Rotational constants: A = 277767.56454  B =   4159.13687  C =   4131.68730 [MHz]
  Nuclear repulsion =   36.725463299185641

  Charge       = 0
  Multiplicity = 1
  Electrons    = 18
  Nalpha       = 9
  Nbeta        = 9

  ==> Algorithm <==

  SCF Algorithm Type is DF.
  DIIS enabled.
  MOM disabled.
  Fractional occupation disabled.
  Guess Type is READ.
  Energy threshold   = 1.00e-08
  Density threshold  = 1.00e-08
  Integral threshold = 0.00e+00

  ==> Primary Basis <==

  Basis Set: CC-PVDZ
    Blend: CC-PVDZ
    Number of shells: 18
    Number of basis function: 38
    Number of Cartesian functions: 40
    Spherical Harmonics?: true
    Max angular momentum: 2

  ==> DFT Potential <==

   => Composite Functional: B3LYP-D3ZERO <= 

    B3LYP-d3zero Hyb-GGA Exchange-Correlation Functional

    P. J. Stephens, F. J. Devlin, C. F. Chabalowski, and M. J. Frisch, J. Phys. Chem. 98, 11623 (1994)

    Deriv               =              1
    GGA                 =           TRUE
    Meta                =          FALSE

    Exchange Hybrid     =           TRUE
    MP2 Hybrid          =          FALSE

   => Exchange Functionals <=

    0.0800   Slater exchange
    0.7200         Becke 88

   => Exact (HF) Exchange <=

    0.2000               HF 

   => Correlation Functionals <=

    0.1900   Vosko, Wilk & Nusair (VWN5_RPA)
    0.8100   Lee, Yang & Parr

   => Molecular Quadrature <=

    Radial Scheme       =       TREUTLER
    Pruning Scheme      =           FLAT
    Nuclear Scheme      =       TREUTLER

    BS radius alpha     =              1
    Pruning alpha       =              1
    Radial Points       =             75
    Spherical Points    =            302
    Total Points        =          88310
    Total Blocks        =            720
    Max Points          =            256
    Max Functions       =             38

   => -D3ZERO: Empirical Dispersion <=

    Grimme's -D3 (zero-damping) Dispersion Correction
    Grimme S.; Antony J.; Ehrlich S.; Krieg H. (2010), J. Chem. Phys., 132: 154104

        S6 =   1.000000E+00
        S8 =   1.703000E+00
       SR6 =   1.261000E+00
       SR8 =   1.000000E+00
    ALPHA6 =   1.400000E+01

   => Loading Basis Set <=

    Name: (CC-PVDZ AUX)
    Role: JKFIT
    Keyword: DF_BASIS_SCF
    atoms 1-2 entry O          line   221 file /shared/joao/test_parameterize/miniconda3/share/psi4/basis/cc-pvdz-jkfit.gbs 
    atoms 3-4 entry H          line    51 file /shared/joao/test_parameterize/miniconda3/share/psi4/basis/cc-pvdz-jkfit.gbs 

  Reading orbitals from file 180, no projection.

  ==> Pre-Iterations <==

   -------------------------------------------------------
    Irrep   Nso     Nmo     Nalpha   Nbeta   Ndocc  Nsocc
   -------------------------------------------------------
     A         38      38       0       0       0       0
   -------------------------------------------------------
    Total      38      38       9       9       9       0
   -------------------------------------------------------

  ==> Integral Setup <==

  DFHelper Memory: AOs need 0.003 [GiB]; user supplied 3.486 [GiB]. Using in-core AOs.

  ==> MemDFJK: Density-Fitted J/K Matrices <==

    J tasked:                   Yes
    K tasked:                   Yes
    wK tasked:                   No
    OpenMP threads:               1
    Memory (MB):               3570
    Algorithm:                 Core
    Schwarz Cutoff:           1E-12
    Mask sparsity (%):       0.0000
    Fitting Condition:        1E-12

   => Auxiliary Basis Set <=

  Basis Set: (CC-PVDZ AUX)
    Blend: CC-PVDZ-JKFIT
    Number of shells: 66
    Number of basis function: 186
    Number of Cartesian functions: 212
    Spherical Harmonics?: true
    Max angular momentum: 3

  Minimum eigenvalue in the overlap matrix is 2.5653590412E-02.
  Using Symmetric Orthogonalization.

  SCF Guess: Orbitals guess was supplied from a previous computation.

  ==> Iterations <==

                           Total Energy        Delta E     RMS |[F,P]|

   @DF-RKS iter   0:  -151.54717435807871   -1.51547e+02   1.11893e-04 
   @DF-RKS iter   1:  -151.54618384233524    9.90516e-04   2.59616e-05 
   @DF-RKS iter   2:  -151.54618407711604   -2.34781e-07   1.32374e-05 DIIS
   @DF-RKS iter   3:  -151.54618415855256   -8.14365e-08   2.20895e-06 DIIS
   @DF-RKS iter   4:  -151.54618416113669   -2.58413e-09   2.11828e-07 DIIS
   @DF-RKS iter   5:  -151.54618416116480   -2.81091e-11   3.78339e-08 DIIS
   @DF-RKS iter   6:  -151.54618416116492   -1.13687e-13   3.60958e-08 DIIS
   @DF-RKS iter   7:  -151.54618416116566   -7.38964e-13   3.49374e-09 DIIS

  ==> Post-Iterations <==

    Orbital Energies [Eh]
    ---------------------

    Doubly Occupied:                                                      

       1A    -19.189943     2A    -19.189907     3A     -1.111947  
       4A     -0.890427     5A     -0.551535     6A     -0.442466  
       7A     -0.418361     8A     -0.320414     9A     -0.265796  

    Virtual:                                                              

      10A      0.018777    11A      0.034721    12A      0.117707  
      13A      0.564474    14A      0.580147    15A      0.860599  
      16A      0.869573    17A      0.933472    18A      0.935996  
      19A      1.013966    20A      1.020768    21A      1.254945  
      22A      1.291135    23A      1.333258    24A      1.432287  
      25A      1.624873    26A      1.737496    27A      2.052193  
      28A      2.081123    29A      2.390154    30A      2.402246  
      31A      2.562753    32A      2.870298    33A      2.922255  
      34A      3.059683    35A      3.132778    36A      3.484217  
      37A      3.573451    38A      3.799654  

    Final Occupation by Irrep:
              A 
    DOCC [     9 ]

  Energy converged.

  @DF-RKS Final Energy:  -151.54618416116566

   => Energetics <=

    Nuclear Repulsion Energy =             36.7254632991856411
    One-Electron Energy =                -281.3988746401528260
    Two-Electron Energy =                 107.5873840355454121
    DFT Exchange-Correlation Energy =     -14.4598488857438667
    Empirical Dispersion Energy =          -0.0003079700000000
    VV10 Nonlocal Energy =                  0.0000000000000000
    Total Energy =                       -151.5461841611656553



Properties will be evaluated at   0.000000,   0.000000,   0.000000 [a0]

Properties computed using the SCF density matrix

  Nuclear Dipole Moment: [e a0]
     X:    58.8827      Y:    -3.5061      Z:    -1.9633

  Electronic Dipole Moment: [e a0]
     X:   -58.9626      Y:     2.9765      Z:     1.0092

  Dipole Moment: [e a0]
     X:    -0.0799      Y:    -0.5296      Z:    -0.9540     Total:     1.0941

  Dipole Moment: [D]
     X:    -0.2031      Y:    -1.3460      Z:    -2.4249     Total:     2.7809


*** tstop() called on loro.prib.upf.edu at Sat Sep 29 16:38:19 2018
Module time:
	user time   =       2.06 seconds =       0.03 minutes
	system time =       0.06 seconds =       0.00 minutes
	total time  =          3 seconds =       0.05 minutes
Total time:
	user time   =      14.79 seconds =       0.25 minutes
	system time =       0.43 seconds =       0.01 minutes
	total time  =         22 seconds =       0.37 minutes

*** tstart() called on loro.prib.upf.edu
*** at Sat Sep 29 16:38:19 2018


         ------------------------------------------------------------
                                   SCF GRAD                          
                          Rob Parrish, Justin Turney,                
                       Andy Simmonett, and Alex Sokolov              
         ------------------------------------------------------------

  ==> Geometry <==

    Molecular point group: c1
    Full point group: C1

    Geometry (in Angstrom), charge = 0, multiplicity = 1:

       Center              X                  Y                   Z               Mass       
    ------------   -----------------  -----------------  -----------------  -----------------
         O            1.015278808870    -0.029390450395     0.066302966520    15.994914619560
         O            2.460242083484    -0.088138363048    -0.022082591537    15.994914619560
         H            0.738087374314    -0.835277707708    -0.408003040928     1.007825032070
         H            2.617113733331    -0.079846478848    -0.984672334055     1.007825032070

  Nuclear repulsion =   36.725463299185641

  ==> Basis Set <==

  Basis Set: CC-PVDZ
    Blend: CC-PVDZ
    Number of shells: 18
    Number of basis function: 38
    Number of Cartesian functions: 40
    Spherical Harmonics?: true
    Max angular momentum: 2

  ==> DFJKGrad: Density-Fitted SCF Gradients <==

    Gradient:                    1
    J tasked:                  Yes
    K tasked:                  Yes
    wK tasked:                  No
    OpenMP threads:              1
    Integrals threads:           1
    Memory (MB):              3570
    Schwarz Cutoff:          0E+00
    Fitting Condition:       1E-12

   => Auxiliary Basis Set <=

  Basis Set: (CC-PVDZ AUX)
    Blend: CC-PVDZ-JKFIT
    Number of shells: 66
    Number of basis function: 186
    Number of Cartesian functions: 212
    Spherical Harmonics?: true
    Max angular momentum: 3

  ==> DFT Potential <==

   => Composite Functional: B3LYP-D3ZERO <= 

    B3LYP-d3zero Hyb-GGA Exchange-Correlation Functional

    P. J. Stephens, F. J. Devlin, C. F. Chabalowski, and M. J. Frisch, J. Phys. Chem. 98, 11623 (1994)

    Deriv               =              1
    GGA                 =           TRUE
    Meta                =          FALSE

    Exchange Hybrid     =           TRUE
    MP2 Hybrid          =          FALSE

   => Exchange Functionals <=

    0.0800   Slater exchange
    0.7200         Becke 88

   => Exact (HF) Exchange <=

    0.2000               HF 

   => Correlation Functionals <=

    0.1900   Vosko, Wilk & Nusair (VWN5_RPA)
    0.8100   Lee, Yang & Parr

   => Molecular Quadrature <=

    Radial Scheme       =       TREUTLER
    Pruning Scheme      =           FLAT
    Nuclear Scheme      =       TREUTLER

    BS radius alpha     =              1
    Pruning alpha       =              1
    Radial Points       =             75
    Spherical Points    =            302
    Total Points        =          88310
    Total Blocks        =            720
    Max Points          =            256
    Max Functions       =             38


  -Total Gradient:
     Atom            X                  Y                   Z
    ------   -----------------  -----------------  -----------------
       1        0.000215015317    -0.004003635736     0.005321358368
       2        0.000181843599     0.006634855758    -0.000580688022
       3       -0.000155402100     0.002786034131    -0.004649608852
       4       -0.000241345754    -0.005416518529    -0.000089736181


*** tstop() called on loro.prib.upf.edu at Sat Sep 29 16:38:20 2018
Module time:
	user time   =       0.69 seconds =       0.01 minutes
	system time =       0.01 seconds =       0.00 minutes
	total time  =          1 seconds =       0.02 minutes
Total time:
	user time   =      15.48 seconds =       0.26 minutes
	system time =       0.44 seconds =       0.01 minutes
	total time  =         23 seconds =       0.38 minutes

			-----------------------------------------
			 OPTKING 2.0: for geometry optimizations 
			  - R.A. King,  Bethel University        
			-----------------------------------------
	At level 1: Red. Int., RFO, no backsteps, dynamic trust

	Previous internal coordinate definitions found.
	---Fragment 1 Geometry and Gradient---
	 O           1.9185988973       -0.0555399022        0.1252944485
	 O           4.6491837584       -0.1665573680       -0.0417300503
	 H           1.3947829996       -1.5784461125       -0.7710140087
	 H           4.9456282146       -0.1508879777       -1.8607610420
	             0.0002150153       -0.0040036357        0.0053213584
	             0.0001818436        0.0066348558       -0.0005806880
	            -0.0001554021        0.0027860341       -0.0046496089
	            -0.0002413458       -0.0054165185       -0.0000897362

	---Fragment 1 Intrafragment Coordinates---
	 - Coordinate -           - BOHR/RAD -       - ANG/DEG -
	 R(1,2)           =         2.737940	       1.448855
	 R(1,3)           =         1.843094	       0.975323
	 R(2,4)           =         1.843095	       0.975324
	 B(1,2,4)         =         1.792889	     102.724951
	 B(2,1,3)         =         1.792889	     102.724948
	*D(3,1,2,4)       =         1.047198	      60.000021

	Current energy   :      -151.5461841612

	Energy change for the previous step:
		Projected    :        -0.0000049651
		Actual       :        -0.0000018998

	Performing BFGS update.
	Previous computed or guess Hessian on step 1.
	Steps to be used in Hessian update: 4 3
	Taking RFO optimization step.
	Going to follow RFO solution 1.
	Using RFO vector 1.
	Norm of target step-size    0.00022
	Projected energy change by RFO approximation:        -0.0000000241

	Back-transformation to cartesian coordinates...
	Successfully converged to displaced geometry.

	Back-transformation to cartesian coordinates to adjust frozen coordinates...
	Successfully converged to displaced geometry.

	--- Internal Coordinate Step in ANG or DEG, aJ/ANG or AJ/DEG ---
	 ---------------------------------------------------------------------------
	   Coordinate                Previous        Force       Change         New 
	   ----------                --------       ------       ------       ------
	    1 R(1,2)          =      1.448855     0.000544     0.000101     1.448957
	    2 R(1,3)          =      0.975323    -0.000018    -0.000000     0.975323
	    3 R(2,4)          =      0.975324    -0.000022    -0.000001     0.975323
	    4 B(1,2,4)        =    102.724951     0.000002     0.004084   102.729036
	    5 B(2,1,3)        =    102.724948     0.000002     0.004084   102.729032
	    6 *D(3,1,2,4)     =     60.000021     0.000000     0.000000    60.000021
	 ---------------------------------------------------------------------------
	Successfully symmetrized geometry.

  ==> Convergence Check <==

  Measures of convergence in internal coordinates in au.
  Criteria marked as inactive (o), active & met (*), and active & unmet ( ).
  ---------------------------------------------------------------------------------------------
   Step     Total Energy     Delta E     MAX Force     RMS Force      MAX Disp      RMS Disp   
  ---------------------------------------------------------------------------------------------
    Convergence Criteria    1.00e-06 *    3.00e-04 *             o    1.20e-03 *             o
  ---------------------------------------------------------------------------------------------
      5    -151.54618416   -1.90e-06      6.60e-05 *    3.12e-05 o    1.92e-04 *    8.84e-05 o  ~
  ---------------------------------------------------------------------------------------------


  **** Optimization is complete! (in 5 steps) ****

  ==> Optimization Summary <==

  Measures of convergence in internal coordinates in au.
  --------------------------------------------------------------------------------------------------------------- ~
   Step         Total Energy             Delta E       MAX Force       RMS Force        MAX Disp        RMS Disp  ~
  --------------------------------------------------------------------------------------------------------------- ~
      1    -151.543731180973   -151.543731180973      0.02350801      0.01463812      0.14005963      0.08206338  ~
      2    -151.545536260350     -0.001805079377      0.01555897      0.00839279      0.03535552      0.02337115  ~
      3    -151.546156380468     -0.000620120119      0.00394863      0.00162122      0.01061440      0.00448867  ~
      4    -151.546182261385     -0.000025880916      0.00104141      0.00042704      0.00393070      0.00165307  ~
      5    -151.546184161166     -0.000001899781      0.00006597      0.00003116      0.00019152      0.00008836  ~
  --------------------------------------------------------------------------------------------------------------- ~

	Writing optimization data to binary file.
	Final energy is   -151.5461841611657
	Final (previous) structure:
	Cartesian Geometry (in Angstrom)
	    O     1.0152788089  -0.0293904504   0.0663029665
	    O     2.4602420835  -0.0881383630  -0.0220825915
	    H     0.7380873743  -0.8352777077  -0.4080030409
	    H     2.6171137333  -0.0798464788  -0.9846723341
	Saving final (previous) structure.
	Removing binary optimization data file.
			--------------------------
			 OPTKING Finished Execution 
			--------------------------

    Final optimized geometry and variables:
    Molecular point group: c1
    Full point group: C1

    Geometry (in Angstrom), charge = 0, multiplicity = 1:

    O            1.015278808870    -0.029390450395     0.066302966520
    O            2.460242083484    -0.088138363048    -0.022082591537
    H            0.738087374314    -0.835277707708    -0.408003040928
    H            2.617113733331    -0.079846478848    -0.984672334055

	Removing binary optimization data file.
	Cleaning optimization helper files.


Properties will be evaluated at   0.000000,   0.000000,   0.000000 [a0]
OEProp: No title given, name of density matrix used for the following properties is 'SCF density'
  Nuclear Dipole Moment: [e a0]
     X:    58.8827      Y:    -3.5061      Z:    -1.9633

  Electronic Dipole Moment: [e a0]
     X:   -58.9626      Y:     2.9765      Z:     1.0092

  Dipole Moment: [e a0]
     X:    -0.0799      Y:    -0.5296      Z:    -0.9540     Total:     1.0941

  Dipole Moment: [D]
     X:    -0.2031      Y:    -1.3460      Z:    -2.4249     Total:     2.7809

  Quadrupole Moment: [D A]
    XX:   -11.3969     YY:   -10.7547     ZZ:    -9.7073
    XY:    -0.7743     XZ:    -4.9563     YZ:     0.9285

  Traceless Quadrupole Moment: [D A]
    XX:    -0.7773     YY:    -0.1351     ZZ:     0.9123
    XY:    -0.7743     XZ:    -4.9563     YZ:     0.9285

  Mulliken Charges: (a.u.)
   Center  Symbol    Alpha    Beta     Spin     Total
       1     O     4.08410  4.08410  0.00000 -0.16819
       2     O     4.08410  4.08410  0.00000 -0.16819
       3     H     0.41590  0.41590  0.00000  0.16819
       4     H     0.41590  0.41590  0.00000  0.16819

   Total alpha =  9.00000, Total beta =  9.00000, Total charge =  0.00000


    Psi4 stopped on: Saturday, 29 September 2018 04:38PM
    Psi4 wall time for execution: 0:00:22.82

*** Psi4 exiting successfully. Buy a developer a beer!
