
    -----------------------------------------------------------------------
          Psi4: An Open-Source Ab Initio Electronic Structure Package
                               Psi4 1.2.1 release

                         Git: Rev {HEAD} 406f4de 


    R. M. Parrish, L. A. Burns, D. G. A. Smith, A. C. Simmonett,
    A. E. DePrince III, E. G. Hohenstein, U. Bozkaya, A. Yu. Sokolov,
    R. Di Remigio, R. M. Richard, J. F. Gonthier, A. M. James,
    H. R. McAlexander, A. Kumar, M. Saitow, X. Wang, B. P. Pritchard,
    P. Verma, H. F. Schaefer III, K. Patkowski, R. A. King, E. F. Valeev,
    F. A. Evangelista, J. M. Turney, T. D. Crawford, and C. D. Sherrill,
    J. Chem. Theory Comput. 13(7) pp 3185--3197 (2017).
    (doi: 10.1021/acs.jctc.7b00174)


                         Additional Contributions by
    P. Kraus, H. Kruse, M. H. Lechner, M. C. Schieber, and R. A. Shaw

    -----------------------------------------------------------------------


    Psi4 started on: Saturday, 29 September 2018 05:10PM

    Process ID: 13619
    Host:       loro.prib.upf.edu
    PSIDATADIR: /shared/joao/test_parameterize/miniconda3/share/psi4
    Memory:     500.0 MiB
    Threads:    1
    
  ==> Input File <==

--------------------------------------------------------------------------
set_num_threads(1)
set_memory('5348 MB')

set { scf_mem_safety_factor 0.7 }

set { reference rks }
set { basis cc-pVDZ }

molecule MOL {
    0 1
    noreorient
    nocom
    symmetry c1
    O    1.050400   0.042900  -0.048100
    C    2.474100   0.047400  -0.029000
    C    3.002600  -1.068900  -0.932000
    N    4.462700  -1.072400  -1.006800
    H    0.760400   0.728400   0.578000
    H    2.809900  -0.097900   1.003200
    H    2.817400   1.026800  -0.378600
    H    2.581000  -0.963300  -1.938400
    H    2.653800  -2.036400  -0.553400
    H    4.848205  -1.209062  -0.072888
    H    4.778033  -0.149864  -1.306374
}

set optking { frozen_dihedral = (" 2 3 4 10 ") }

energy, wfn = energy('B3LYP-D3', return_wfn=True)

import os
os.chdir(os.environ['HTMD_PSI4_WORKDIR'])

oeprop(wfn, 'DIPOLE', 'QUADRUPOLE', 'MULLIKEN_CHARGES')

with open('psi4out.xyz', 'w') as f:
    f.write('11 ' )
    f.write('%.12f\n' % energy)
    f.write(MOL.save_string_xyz())
--------------------------------------------------------------------------
  Threads set to 1 by Python driver.

  Memory set to   4.981 GiB by Python driver.

*** tstart() called on loro.prib.upf.edu
*** at Sat Sep 29 17:10:05 2018

   => Loading Basis Set <=

    Name: CC-PVDZ
    Role: ORBITAL
    Keyword: BASIS
    atoms 1    entry O          line   198 file /shared/joao/test_parameterize/miniconda3/share/psi4/basis/cc-pvdz.gbs 
    atoms 2-3  entry C          line   138 file /shared/joao/test_parameterize/miniconda3/share/psi4/basis/cc-pvdz.gbs 
    atoms 4    entry N          line   168 file /shared/joao/test_parameterize/miniconda3/share/psi4/basis/cc-pvdz.gbs 
    atoms 5-11 entry H          line    22 file /shared/joao/test_parameterize/miniconda3/share/psi4/basis/cc-pvdz.gbs 


         ---------------------------------------------------------
                                   SCF
            by Justin Turney, Rob Parrish, Andy Simmonett
                             and Daniel Smith
                              RKS Reference
                        1 Threads,   5100 MiB Core
         ---------------------------------------------------------

  ==> Geometry <==

    Molecular point group: c1
    Full point group: C1

    Geometry (in Angstrom), charge = 0, multiplicity = 1:

       Center              X                  Y                   Z               Mass       
    ------------   -----------------  -----------------  -----------------  -----------------
         O            1.050400000000     0.042900000000    -0.048100000000    15.994914619560
         C            2.474100000000     0.047400000000    -0.029000000000    12.000000000000
         C            3.002600000000    -1.068900000000    -0.932000000000    12.000000000000
         N            4.462700000000    -1.072400000000    -1.006800000000    14.003074004780
         H            0.760400000000     0.728400000000     0.578000000000     1.007825032070
         H            2.809900000000    -0.097900000000     1.003200000000     1.007825032070
         H            2.817400000000     1.026800000000    -0.378600000000     1.007825032070
         H            2.581000000000    -0.963300000000    -1.938400000000     1.007825032070
         H            2.653800000000    -2.036400000000    -0.553400000000     1.007825032070
         H            4.848205000000    -1.209062000000    -0.072888000000     1.007825032070
         H            4.778033000000    -0.149864000000    -1.306374000000     1.007825032070

  Running in c1 symmetry.

  Rotational constants: A =      0.72294  B =      0.02780  C =      0.02716 [cm^-1]
  Rotational constants: A =  21673.24618  B =    833.30270  C =    814.10176 [MHz]
  Nuclear repulsion =  130.883687878545345

  Charge       = 0
  Multiplicity = 1
  Electrons    = 34
  Nalpha       = 17
  Nbeta        = 17

  ==> Algorithm <==

  SCF Algorithm Type is DF.
  DIIS enabled.
  MOM disabled.
  Fractional occupation disabled.
  Guess Type is SAD.
  Energy threshold   = 1.00e-06
  Density threshold  = 1.00e-06
  Integral threshold = 0.00e+00

  ==> Primary Basis <==

  Basis Set: CC-PVDZ
    Blend: CC-PVDZ
    Number of shells: 45
    Number of basis function: 91
    Number of Cartesian functions: 95
    Spherical Harmonics?: true
    Max angular momentum: 2

  ==> DFT Potential <==

   => Composite Functional: B3LYP-D3ZERO <= 

    B3LYP-d3zero Hyb-GGA Exchange-Correlation Functional

    P. J. Stephens, F. J. Devlin, C. F. Chabalowski, and M. J. Frisch, J. Phys. Chem. 98, 11623 (1994)

    Deriv               =              1
    GGA                 =           TRUE
    Meta                =          FALSE

    Exchange Hybrid     =           TRUE
    MP2 Hybrid          =          FALSE

   => Exchange Functionals <=

    0.0800   Slater exchange
    0.7200         Becke 88

   => Exact (HF) Exchange <=

    0.2000               HF 

   => Correlation Functionals <=

    0.1900   Vosko, Wilk & Nusair (VWN5_RPA)
    0.8100   Lee, Yang & Parr

   => Molecular Quadrature <=

    Radial Scheme       =       TREUTLER
    Pruning Scheme      =           FLAT
    Nuclear Scheme      =       TREUTLER

    BS radius alpha     =              1
    Pruning alpha       =              1
    Radial Points       =             75
    Spherical Points    =            302
    Total Points        =         245068
    Total Blocks        =           1893
    Max Points          =            256
    Max Functions       =             91

   => -D3ZERO: Empirical Dispersion <=

    Grimme's -D3 (zero-damping) Dispersion Correction
    Grimme S.; Antony J.; Ehrlich S.; Krieg H. (2010), J. Chem. Phys., 132: 154104

        S6 =   1.000000E+00
        S8 =   1.703000E+00
       SR6 =   1.261000E+00
       SR8 =   1.000000E+00
    ALPHA6 =   1.400000E+01

   => Loading Basis Set <=

    Name: (CC-PVDZ AUX)
    Role: JKFIT
    Keyword: DF_BASIS_SCF
    atoms 1    entry O          line   221 file /shared/joao/test_parameterize/miniconda3/share/psi4/basis/cc-pvdz-jkfit.gbs 
    atoms 2-3  entry C          line   121 file /shared/joao/test_parameterize/miniconda3/share/psi4/basis/cc-pvdz-jkfit.gbs 
    atoms 4    entry N          line   171 file /shared/joao/test_parameterize/miniconda3/share/psi4/basis/cc-pvdz-jkfit.gbs 
    atoms 5-11 entry H          line    51 file /shared/joao/test_parameterize/miniconda3/share/psi4/basis/cc-pvdz-jkfit.gbs 

  ==> Pre-Iterations <==

   -------------------------------------------------------
    Irrep   Nso     Nmo     Nalpha   Nbeta   Ndocc  Nsocc
   -------------------------------------------------------
     A         91      91       0       0       0       0
   -------------------------------------------------------
    Total      91      91      17      17      17       0
   -------------------------------------------------------

  ==> Integral Setup <==

  DFHelper Memory: AOs need 0.036 [GiB]; user supplied 3.486 [GiB]. Using in-core AOs.

  ==> MemDFJK: Density-Fitted J/K Matrices <==

    J tasked:                   Yes
    K tasked:                   Yes
    wK tasked:                   No
    OpenMP threads:               1
    Memory (MB):               3570
    Algorithm:                 Core
    Schwarz Cutoff:           1E-12
    Mask sparsity (%):       0.0966
    Fitting Condition:        1E-12

   => Auxiliary Basis Set <=

  Basis Set: (CC-PVDZ AUX)
    Blend: CC-PVDZ-JKFIT
    Number of shells: 159
    Number of basis function: 441
    Number of Cartesian functions: 499
    Spherical Harmonics?: true
    Max angular momentum: 3

  Minimum eigenvalue in the overlap matrix is 4.6947156828E-03.
  Using Symmetric Orthogonalization.

  SCF Guess: Superposition of Atomic Densities via on-the-fly atomic UHF.

  ==> Iterations <==

                           Total Energy        Delta E     RMS |[F,P]|

   @DF-RKS iter   0:  -210.84162789347226   -2.10842e+02   3.66225e-02 
   @DF-RKS iter   1:  -210.22223557525089    6.19392e-01   6.95705e-03 
   @DF-RKS iter   2:  -210.07605200260645    1.46184e-01   9.61767e-03 DIIS
   @DF-RKS iter   3:  -210.39213495319493   -3.16083e-01   6.30574e-04 DIIS
   @DF-RKS iter   4:  -210.39310618315574   -9.71230e-04   3.58498e-04 DIIS
   @DF-RKS iter   5:  -210.39357290750800   -4.66724e-04   4.75274e-05 DIIS
   @DF-RKS iter   6:  -210.39357868246029   -5.77495e-06   2.45691e-05 DIIS
   @DF-RKS iter   7:  -210.39358083843757   -2.15598e-06   2.24817e-06 DIIS
   @DF-RKS iter   8:  -210.39358085642050   -1.79829e-08   9.00976e-07 DIIS

  ==> Post-Iterations <==

    Orbital Energies [Eh]
    ---------------------

    Doubly Occupied:                                                      

       1A    -19.128415     2A    -14.308324     3A    -10.224554  
       4A    -10.202949     5A     -1.011128     6A     -0.880128  
       7A     -0.710709     8A     -0.605287     9A     -0.504751  
      10A     -0.500065    11A     -0.438260    12A     -0.420661  
      13A     -0.402773    14A     -0.350833    15A     -0.332111  
      16A     -0.263538    17A     -0.236727  

    Virtual:                                                              

      18A      0.050745    19A      0.054851    20A      0.094559  
      21A      0.111075    22A      0.131088    23A      0.161367  
      24A      0.164482    25A      0.204178    26A      0.250283  
      27A      0.254414    28A      0.433054    29A      0.447844  
      30A      0.493984    31A      0.507326    32A      0.510614  
      33A      0.562400    34A      0.596755    35A      0.635023  
      36A      0.639200    37A      0.650676    38A      0.657129  
      39A      0.678903    40A      0.722553    41A      0.825293  
      42A      0.836738    43A      0.851556    44A      0.919134  
      45A      0.938850    46A      0.990701    47A      0.995355  
      48A      1.062374    49A      1.193673    50A      1.209225  
      51A      1.227410    52A      1.266283    53A      1.298418  
      54A      1.342342    55A      1.359717    56A      1.505290  
      57A      1.583889    58A      1.586686    59A      1.630852  
      60A      1.635334    61A      1.653879    62A      1.657399  
      63A      1.669134    64A      1.724823    65A      1.730276  
      66A      1.789232    67A      1.802523    68A      1.886316  
      69A      1.919594    70A      1.941774    71A      1.948851  
      72A      1.982614    73A      2.092063    74A      2.096485  
      75A      2.173925    76A      2.215894    77A      2.292821  
      78A      2.398936    79A      2.403198    80A      2.439505  
      81A      2.461965    82A      2.500995    83A      2.645997  
      84A      2.676946    85A      2.811345    86A      2.949596  
      87A      3.027599    88A      3.051482    89A      3.096120  
      90A      3.206378    91A      3.692144  

    Final Occupation by Irrep:
              A 
    DOCC [    17 ]

  Energy converged.

  @DF-RKS Final Energy:  -210.39358085642050

   => Energetics <=

    Nuclear Repulsion Energy =            130.8836878785453450
    One-Electron Energy =                -544.6300833638126733
    Two-Electron Energy =                 226.8437041995287871
    DFT Exchange-Correlation Energy =     -23.4857015806819653
    Empirical Dispersion Energy =          -0.0051879900000000
    VV10 Nonlocal Energy =                  0.0000000000000000
    Total Energy =                       -210.3935808564204990



Properties will be evaluated at   0.000000,   0.000000,   0.000000 [a0]

Properties computed using the SCF density matrix

  Nuclear Dipole Moment: [e a0]
     X:   177.1638      Y:   -30.2241      Z:   -29.9840

  Electronic Dipole Moment: [e a0]
     X:  -176.9591      Y:    30.9326      Z:    30.6341

  Dipole Moment: [e a0]
     X:     0.2047      Y:     0.7085      Z:     0.6501     Total:     0.9831

  Dipole Moment: [D]
     X:     0.5203      Y:     1.8007      Z:     1.6523     Total:     2.4987


*** tstop() called on loro.prib.upf.edu at Sat Sep 29 17:10:22 2018
Module time:
	user time   =      14.77 seconds =       0.25 minutes
	system time =       0.23 seconds =       0.00 minutes
	total time  =         17 seconds =       0.28 minutes
Total time:
	user time   =      14.77 seconds =       0.25 minutes
	system time =       0.23 seconds =       0.00 minutes
	total time  =         17 seconds =       0.28 minutes


Properties will be evaluated at   0.000000,   0.000000,   0.000000 [a0]
OEProp: No title given, name of density matrix used for the following properties is 'SCF density'
  Nuclear Dipole Moment: [e a0]
     X:   177.1638      Y:   -30.2241      Z:   -29.9840

  Electronic Dipole Moment: [e a0]
     X:  -176.9591      Y:    30.9326      Z:    30.6341

  Dipole Moment: [e a0]
     X:     0.2047      Y:     0.7085      Z:     0.6501     Total:     0.9831

  Dipole Moment: [D]
     X:     0.5203      Y:     1.8007      Z:     1.6523     Total:     2.4987

  Quadrupole Moment: [D A]
    XX:   -24.3940     YY:   -26.2516     ZZ:   -25.9804
    XY:     5.1545     XZ:     4.6199     YZ:    -1.8341

  Traceless Quadrupole Moment: [D A]
    XX:     1.1480     YY:    -0.7096     ZZ:    -0.4384
    XY:     5.1545     XZ:     4.6199     YZ:    -1.8341

  Mulliken Charges: (a.u.)
   Center  Symbol    Alpha    Beta     Spin     Total
       1     O     4.13879  4.13879  0.00000 -0.27758
       2     C     2.94199  2.94199  0.00000  0.11602
       3     C     2.97747  2.97747  0.00000  0.04506
       4     N     3.59035  3.59035  0.00000 -0.18070
       5     H     0.43098  0.43098  0.00000  0.13804
       6     H     0.50568  0.50568  0.00000 -0.01136
       7     H     0.50578  0.50578  0.00000 -0.01156
       8     H     0.48837  0.48837  0.00000  0.02327
       9     H     0.48919  0.48919  0.00000  0.02162
      10     H     0.46563  0.46563  0.00000  0.06875
      11     H     0.46577  0.46577  0.00000  0.06845

   Total alpha = 17.00000, Total beta = 17.00000, Total charge = -0.00000


    Psi4 stopped on: Saturday, 29 September 2018 05:10PM
    Psi4 wall time for execution: 0:00:16.86

*** Psi4 exiting successfully. Buy a developer a beer!
