
    -----------------------------------------------------------------------
          Psi4: An Open-Source Ab Initio Electronic Structure Package
                               Psi4 1.2.1 release

                         Git: Rev {HEAD} 406f4de 


    R. M. Parrish, L. A. Burns, D. G. A. Smith, A. C. Simmonett,
    A. E. DePrince III, E. G. Hohenstein, U. Bozkaya, A. Yu. Sokolov,
    R. Di Remigio, R. M. Richard, J. F. Gonthier, A. M. James,
    H. R. McAlexander, A. Kumar, M. Saitow, X. Wang, B. P. Pritchard,
    P. Verma, H. F. Schaefer III, K. Patkowski, R. A. King, E. F. Valeev,
    F. A. Evangelista, J. M. Turney, T. D. Crawford, and C. D. Sherrill,
    J. Chem. Theory Comput. 13(7) pp 3185--3197 (2017).
    (doi: 10.1021/acs.jctc.7b00174)


                         Additional Contributions by
    P. Kraus, H. Kruse, M. H. Lechner, M. C. Schieber, and R. A. Shaw

    -----------------------------------------------------------------------


    Psi4 started on: Saturday, 29 September 2018 04:50PM

    Process ID: 5768
    Host:       loro.prib.upf.edu
    PSIDATADIR: /shared/joao/test_parameterize/miniconda3/share/psi4
    Memory:     500.0 MiB
    Threads:    1
    
  ==> Input File <==

--------------------------------------------------------------------------
set_num_threads(1)
set_memory('5348 MB')

set { scf_mem_safety_factor 0.7 }

set { reference rks }
set { basis cc-pVDZ }

molecule MOL {
    0 1
    noreorient
    nocom
    symmetry c1
    O    1.141000   0.017000   0.083000
    C    2.558000   0.086000  -0.005000
    C    3.192000  -0.789000   1.067000
    O    4.610000  -0.719000   0.979000
    H    0.789000   0.590000  -0.620000
    H    2.874000   1.128000   0.115000
    H    2.871000  -0.243000  -1.001000
    H    2.876000  -1.830000   0.947000
    H    2.879000  -0.459000   2.064000
    H    4.935359  -0.529387   1.876259
}

set optking { frozen_dihedral = (" 2 3 4 10 ") }

energy, wfn = energy('B3LYP-D3', return_wfn=True)

import os
os.chdir(os.environ['HTMD_PSI4_WORKDIR'])

oeprop(wfn, 'DIPOLE', 'QUADRUPOLE', 'MULLIKEN_CHARGES')

with open('psi4out.xyz', 'w') as f:
    f.write('10 ' )
    f.write('%.12f\n' % energy)
    f.write(MOL.save_string_xyz())
--------------------------------------------------------------------------
  Threads set to 1 by Python driver.

  Memory set to   4.981 GiB by Python driver.

*** tstart() called on loro.prib.upf.edu
*** at Sat Sep 29 16:50:41 2018

   => Loading Basis Set <=

    Name: CC-PVDZ
    Role: ORBITAL
    Keyword: BASIS
    atoms 1, 4 entry O          line   198 file /shared/joao/test_parameterize/miniconda3/share/psi4/basis/cc-pvdz.gbs 
    atoms 2-3  entry C          line   138 file /shared/joao/test_parameterize/miniconda3/share/psi4/basis/cc-pvdz.gbs 
    atoms 5-10 entry H          line    22 file /shared/joao/test_parameterize/miniconda3/share/psi4/basis/cc-pvdz.gbs 


         ---------------------------------------------------------
                                   SCF
            by Justin Turney, Rob Parrish, Andy Simmonett
                             and Daniel Smith
                              RKS Reference
                        1 Threads,   5100 MiB Core
         ---------------------------------------------------------

  ==> Geometry <==

    Molecular point group: c1
    Full point group: C1

    Geometry (in Angstrom), charge = 0, multiplicity = 1:

       Center              X                  Y                   Z               Mass       
    ------------   -----------------  -----------------  -----------------  -----------------
         O            1.141000000000     0.017000000000     0.083000000000    15.994914619560
         C            2.558000000000     0.086000000000    -0.005000000000    12.000000000000
         C            3.192000000000    -0.789000000000     1.067000000000    12.000000000000
         O            4.610000000000    -0.719000000000     0.979000000000    15.994914619560
         H            0.789000000000     0.590000000000    -0.620000000000     1.007825032070
         H            2.874000000000     1.128000000000     0.115000000000     1.007825032070
         H            2.871000000000    -0.243000000000    -1.001000000000     1.007825032070
         H            2.876000000000    -1.830000000000     0.947000000000     1.007825032070
         H            2.879000000000    -0.459000000000     2.064000000000     1.007825032070
         H            4.935359000000    -0.529387000000     1.876259000000     1.007825032070

  Running in c1 symmetry.

  Rotational constants: A =      0.82319  B =      0.02539  C =      0.02490 [cm^-1]
  Rotational constants: A =  24678.52258  B =    761.27636  C =    746.45820 [MHz]
  Nuclear repulsion =  129.529542168457851

  Charge       = 0
  Multiplicity = 1
  Electrons    = 34
  Nalpha       = 17
  Nbeta        = 17

  ==> Algorithm <==

  SCF Algorithm Type is DF.
  DIIS enabled.
  MOM disabled.
  Fractional occupation disabled.
  Guess Type is SAD.
  Energy threshold   = 1.00e-06
  Density threshold  = 1.00e-06
  Integral threshold = 0.00e+00

  ==> Primary Basis <==

  Basis Set: CC-PVDZ
    Blend: CC-PVDZ
    Number of shells: 42
    Number of basis function: 86
    Number of Cartesian functions: 90
    Spherical Harmonics?: true
    Max angular momentum: 2

  ==> DFT Potential <==

   => Composite Functional: B3LYP-D3ZERO <= 

    B3LYP-d3zero Hyb-GGA Exchange-Correlation Functional

    P. J. Stephens, F. J. Devlin, C. F. Chabalowski, and M. J. Frisch, J. Phys. Chem. 98, 11623 (1994)

    Deriv               =              1
    GGA                 =           TRUE
    Meta                =          FALSE

    Exchange Hybrid     =           TRUE
    MP2 Hybrid          =          FALSE

   => Exchange Functionals <=

    0.0800   Slater exchange
    0.7200         Becke 88

   => Exact (HF) Exchange <=

    0.2000               HF 

   => Correlation Functionals <=

    0.1900   Vosko, Wilk & Nusair (VWN5_RPA)
    0.8100   Lee, Yang & Parr

   => Molecular Quadrature <=

    Radial Scheme       =       TREUTLER
    Pruning Scheme      =           FLAT
    Nuclear Scheme      =       TREUTLER

    BS radius alpha     =              1
    Pruning alpha       =              1
    Radial Points       =             75
    Spherical Points    =            302
    Total Points        =         222552
    Total Blocks        =           1743
    Max Points          =            256
    Max Functions       =             86

   => -D3ZERO: Empirical Dispersion <=

    Grimme's -D3 (zero-damping) Dispersion Correction
    Grimme S.; Antony J.; Ehrlich S.; Krieg H. (2010), J. Chem. Phys., 132: 154104

        S6 =   1.000000E+00
        S8 =   1.703000E+00
       SR6 =   1.261000E+00
       SR8 =   1.000000E+00
    ALPHA6 =   1.400000E+01

   => Loading Basis Set <=

    Name: (CC-PVDZ AUX)
    Role: JKFIT
    Keyword: DF_BASIS_SCF
    atoms 1, 4 entry O          line   221 file /shared/joao/test_parameterize/miniconda3/share/psi4/basis/cc-pvdz-jkfit.gbs 
    atoms 2-3  entry C          line   121 file /shared/joao/test_parameterize/miniconda3/share/psi4/basis/cc-pvdz-jkfit.gbs 
    atoms 5-10 entry H          line    51 file /shared/joao/test_parameterize/miniconda3/share/psi4/basis/cc-pvdz-jkfit.gbs 

  ==> Pre-Iterations <==

   -------------------------------------------------------
    Irrep   Nso     Nmo     Nalpha   Nbeta   Ndocc  Nsocc
   -------------------------------------------------------
     A         86      86       0       0       0       0
   -------------------------------------------------------
    Total      86      86      17      17      17       0
   -------------------------------------------------------

  ==> Integral Setup <==

  DFHelper Memory: AOs need 0.030 [GiB]; user supplied 3.486 [GiB]. Using in-core AOs.

  ==> MemDFJK: Density-Fitted J/K Matrices <==

    J tasked:                   Yes
    K tasked:                   Yes
    wK tasked:                   No
    OpenMP threads:               1
    Memory (MB):               3570
    Algorithm:                 Core
    Schwarz Cutoff:           1E-12
    Mask sparsity (%):       0.6220
    Fitting Condition:        1E-12

   => Auxiliary Basis Set <=

  Basis Set: (CC-PVDZ AUX)
    Blend: CC-PVDZ-JKFIT
    Number of shells: 150
    Number of basis function: 418
    Number of Cartesian functions: 474
    Spherical Harmonics?: true
    Max angular momentum: 3

  Minimum eigenvalue in the overlap matrix is 5.1832127203E-03.
  Using Symmetric Orthogonalization.

  SCF Guess: Superposition of Atomic Densities via on-the-fly atomic UHF.

  ==> Iterations <==

                           Total Energy        Delta E     RMS |[F,P]|

   @DF-RKS iter   0:  -231.05278238833532   -2.31053e+02   4.13899e-02 
   @DF-RKS iter   1:  -230.18994645757448    8.62836e-01   4.70726e-03 
   @DF-RKS iter   2:  -230.16300362298324    2.69428e-02   5.91088e-03 DIIS
   @DF-RKS iter   3:  -230.25527477193026   -9.22711e-02   7.00328e-04 DIIS
   @DF-RKS iter   4:  -230.25658284361711   -1.30807e-03   2.10222e-04 DIIS
   @DF-RKS iter   5:  -230.25673559483207   -1.52751e-04   5.02088e-05 DIIS
   @DF-RKS iter   6:  -230.25674446681694   -8.87198e-06   5.28022e-06 DIIS
   @DF-RKS iter   7:  -230.25674452076814   -5.39512e-08   3.47803e-06 DIIS
   @DF-RKS iter   8:  -230.25674455249873   -3.17306e-08   5.29617e-07 DIIS

  ==> Post-Iterations <==

    Orbital Energies [Eh]
    ---------------------

    Doubly Occupied:                                                      

       1A    -19.132861     2A    -19.130635     3A    -10.226640  
       4A    -10.224131     5A     -1.019177     6A     -1.008611  
       7A     -0.731233     8A     -0.605623     9A     -0.525858  
      10A     -0.489603    11A     -0.460266    12A     -0.418318  
      13A     -0.395719    14A     -0.342614    15A     -0.321932  
      16A     -0.267116    17A     -0.263216  

    Virtual:                                                              

      18A      0.041518    19A      0.054394    20A      0.108596  
      21A      0.121576    22A      0.123773    23A      0.165360  
      24A      0.189344    25A      0.247272    26A      0.248368  
      27A      0.435269    28A      0.443626    29A      0.502645  
      30A      0.535787    31A      0.559465    32A      0.587758  
      33A      0.606639    34A      0.624279    35A      0.630731  
      36A      0.651246    37A      0.655291    38A      0.679679  
      39A      0.885768    40A      0.903618    41A      0.910271  
      42A      0.969505    43A      1.013786    44A      1.057390  
      45A      1.060734    46A      1.133015    47A      1.193160  
      48A      1.210620    49A      1.246880    50A      1.335117  
      51A      1.346294    52A      1.388418    53A      1.467700  
      54A      1.539685    55A      1.597068    56A      1.615224  
      57A      1.633530    58A      1.651271    59A      1.668536  
      60A      1.694376    61A      1.748739    62A      1.758005  
      63A      1.802474    64A      1.853830    65A      1.907250  
      66A      2.004101    67A      2.019098    68A      2.076025  
      69A      2.120635    70A      2.132289    71A      2.246694  
      72A      2.290742    73A      2.404213    74A      2.452294  
      75A      2.468235    76A      2.527911    77A      2.925403  
      78A      2.945227    79A      2.973383    80A      3.020895  
      81A      3.072550    82A      3.146980    83A      3.188566  
      84A      3.219765    85A      3.667197    86A      3.699332  

    Final Occupation by Irrep:
              A 
    DOCC [    17 ]

  Energy converged.

  @DF-RKS Final Energy:  -230.25674455249873

   => Energetics <=

    Nuclear Repulsion Energy =            129.5295421684578514
    One-Electron Energy =                -570.8124516671706488
    Two-Electron Energy =                 235.5697724598772425
    DFT Exchange-Correlation Energy =     -24.5391772936631547
    Empirical Dispersion Energy =          -0.0044302200000000
    VV10 Nonlocal Energy =                  0.0000000000000000
    Total Energy =                       -230.2567445524987022



Properties will be evaluated at   0.000000,   0.000000,   0.000000 [a0]

Properties computed using the SCF density matrix

  Nuclear Dipole Moment: [e a0]
     X:   184.6874      Y:   -21.1222      Z:    34.4861

  Electronic Dipole Moment: [e a0]
     X:  -184.6924      Y:    21.5649      Z:   -34.3449

  Dipole Moment: [e a0]
     X:    -0.0050      Y:     0.4427      Z:     0.1412     Total:     0.4647

  Dipole Moment: [D]
     X:    -0.0127      Y:     1.1253      Z:     0.3588     Total:     1.1812


*** tstop() called on loro.prib.upf.edu at Sat Sep 29 16:50:57 2018
Module time:
	user time   =      12.65 seconds =       0.21 minutes
	system time =       0.20 seconds =       0.00 minutes
	total time  =         16 seconds =       0.27 minutes
Total time:
	user time   =      12.65 seconds =       0.21 minutes
	system time =       0.20 seconds =       0.00 minutes
	total time  =         16 seconds =       0.27 minutes


Properties will be evaluated at   0.000000,   0.000000,   0.000000 [a0]
OEProp: No title given, name of density matrix used for the following properties is 'SCF density'
  Nuclear Dipole Moment: [e a0]
     X:   184.6874      Y:   -21.1222      Z:    34.4861

  Electronic Dipole Moment: [e a0]
     X:  -184.6924      Y:    21.5649      Z:   -34.3449

  Dipole Moment: [e a0]
     X:    -0.0050      Y:     0.4427      Z:     0.1412     Total:     0.4647

  Dipole Moment: [D]
     X:    -0.0127      Y:     1.1253      Z:     0.3588     Total:     1.1812

  Quadrupole Moment: [D A]
    XX:   -26.7872     YY:   -24.6646     ZZ:   -19.4955
    XY:     2.2610     XZ:     6.3458     YZ:    -1.1953

  Traceless Quadrupole Moment: [D A]
    XX:    -3.1381     YY:    -1.0155     ZZ:     4.1536
    XY:     2.2610     XZ:     6.3458     YZ:    -1.1953

  Mulliken Charges: (a.u.)
   Center  Symbol    Alpha    Beta     Spin     Total
       1     O     4.14093  4.14093  0.00000 -0.28186
       2     C     2.93539  2.93539  0.00000  0.12923
       3     C     2.93754  2.93754  0.00000  0.12493
       4     O     4.14021  4.14021  0.00000 -0.28042
       5     H     0.42783  0.42783  0.00000  0.14434
       6     H     0.50270  0.50270  0.00000 -0.00539
       7     H     0.49763  0.49763  0.00000  0.00474
       8     H     0.49322  0.49322  0.00000  0.01356
       9     H     0.49759  0.49759  0.00000  0.00481
      10     H     0.42697  0.42697  0.00000  0.14606

   Total alpha = 17.00000, Total beta = 17.00000, Total charge = -0.00000


    Psi4 stopped on: Saturday, 29 September 2018 04:50PM
    Psi4 wall time for execution: 0:00:15.99

*** Psi4 exiting successfully. Buy a developer a beer!
