
    -----------------------------------------------------------------------
          Psi4: An Open-Source Ab Initio Electronic Structure Package
                               Psi4 1.2.1 release

                         Git: Rev {HEAD} 406f4de 


    R. M. Parrish, L. A. Burns, D. G. A. Smith, A. C. Simmonett,
    A. E. DePrince III, E. G. Hohenstein, U. Bozkaya, A. Yu. Sokolov,
    R. Di Remigio, R. M. Richard, J. F. Gonthier, A. M. James,
    H. R. McAlexander, A. Kumar, M. Saitow, X. Wang, B. P. Pritchard,
    P. Verma, H. F. Schaefer III, K. Patkowski, R. A. King, E. F. Valeev,
    F. A. Evangelista, J. M. Turney, T. D. Crawford, and C. D. Sherrill,
    J. Chem. Theory Comput. 13(7) pp 3185--3197 (2017).
    (doi: 10.1021/acs.jctc.7b00174)


                         Additional Contributions by
    P. Kraus, H. Kruse, M. H. Lechner, M. C. Schieber, and R. A. Shaw

    -----------------------------------------------------------------------


    Psi4 started on: Saturday, 29 September 2018 04:46PM

    Process ID: 2555
    Host:       loro.prib.upf.edu
    PSIDATADIR: /shared/joao/test_parameterize/miniconda3/share/psi4
    Memory:     500.0 MiB
    Threads:    1
    
  ==> Input File <==

--------------------------------------------------------------------------
set_num_threads(1)
set_memory('5348 MB')

set { scf_mem_safety_factor 0.7 }

set { reference rks }
set { basis cc-pVDZ }

molecule MOL {
    0 1
    noreorient
    nocom
    symmetry c1
    C    0.940800  -0.041500  -0.056200
    C    2.276600  -0.041500  -0.056200
    H    0.380900   0.578300  -0.749400
    H    0.380900  -0.661400   0.637000
    H    2.836500  -0.970922  -0.085414
    H    2.836500   0.887986  -0.026909
}

set optking { frozen_dihedral = (" 3 1 2 5 ") }

energy, wfn = energy('B3LYP-D3', return_wfn=True)

import os
os.chdir(os.environ['HTMD_PSI4_WORKDIR'])

oeprop(wfn, 'DIPOLE', 'QUADRUPOLE', 'MULLIKEN_CHARGES')

with open('psi4out.xyz', 'w') as f:
    f.write('6 ' )
    f.write('%.12f\n' % energy)
    f.write(MOL.save_string_xyz())
--------------------------------------------------------------------------
  Threads set to 1 by Python driver.

  Memory set to   4.981 GiB by Python driver.

*** tstart() called on loro.prib.upf.edu
*** at Sat Sep 29 16:46:44 2018

   => Loading Basis Set <=

    Name: CC-PVDZ
    Role: ORBITAL
    Keyword: BASIS
    atoms 1-2 entry C          line   138 file /shared/joao/test_parameterize/miniconda3/share/psi4/basis/cc-pvdz.gbs 
    atoms 3-6 entry H          line    22 file /shared/joao/test_parameterize/miniconda3/share/psi4/basis/cc-pvdz.gbs 


         ---------------------------------------------------------
                                   SCF
            by Justin Turney, Rob Parrish, Andy Simmonett
                             and Daniel Smith
                              RKS Reference
                        1 Threads,   5100 MiB Core
         ---------------------------------------------------------

  ==> Geometry <==

    Molecular point group: c1
    Full point group: C1

    Geometry (in Angstrom), charge = 0, multiplicity = 1:

       Center              X                  Y                   Z               Mass       
    ------------   -----------------  -----------------  -----------------  -----------------
         C            0.940800000000    -0.041500000000    -0.056200000000    12.000000000000
         C            2.276600000000    -0.041500000000    -0.056200000000    12.000000000000
         H            0.380900000000     0.578300000000    -0.749400000000     1.007825032070
         H            0.380900000000    -0.661400000000     0.637000000000     1.007825032070
         H            2.836500000000    -0.970922000000    -0.085414000000     1.007825032070
         H            2.836500000000     0.887986000000    -0.026909000000     1.007825032070

  Running in c1 symmetry.

  Rotational constants: A =      4.80167  B =      0.18713  C =      0.18263 [cm^-1]
  Rotational constants: A = 143950.51482  B =   5610.07186  C =   5475.24185 [MHz]
  Nuclear repulsion =   33.311407943277025

  Charge       = 0
  Multiplicity = 1
  Electrons    = 16
  Nalpha       = 8
  Nbeta        = 8

  ==> Algorithm <==

  SCF Algorithm Type is DF.
  DIIS enabled.
  MOM disabled.
  Fractional occupation disabled.
  Guess Type is SAD.
  Energy threshold   = 1.00e-06
  Density threshold  = 1.00e-06
  Integral threshold = 0.00e+00

  ==> Primary Basis <==

  Basis Set: CC-PVDZ
    Blend: CC-PVDZ
    Number of shells: 24
    Number of basis function: 48
    Number of Cartesian functions: 50
    Spherical Harmonics?: true
    Max angular momentum: 2

  ==> DFT Potential <==

   => Composite Functional: B3LYP-D3ZERO <= 

    B3LYP-d3zero Hyb-GGA Exchange-Correlation Functional

    P. J. Stephens, F. J. Devlin, C. F. Chabalowski, and M. J. Frisch, J. Phys. Chem. 98, 11623 (1994)

    Deriv               =              1
    GGA                 =           TRUE
    Meta                =          FALSE

    Exchange Hybrid     =           TRUE
    MP2 Hybrid          =          FALSE

   => Exchange Functionals <=

    0.0800   Slater exchange
    0.7200         Becke 88

   => Exact (HF) Exchange <=

    0.2000               HF 

   => Correlation Functionals <=

    0.1900   Vosko, Wilk & Nusair (VWN5_RPA)
    0.8100   Lee, Yang & Parr

   => Molecular Quadrature <=

    Radial Scheme       =       TREUTLER
    Pruning Scheme      =           FLAT
    Nuclear Scheme      =       TREUTLER

    BS radius alpha     =              1
    Pruning alpha       =              1
    Radial Points       =             75
    Spherical Points    =            302
    Total Points        =         133252
    Total Blocks        =           1100
    Max Points          =            256
    Max Functions       =             48

   => -D3ZERO: Empirical Dispersion <=

    Grimme's -D3 (zero-damping) Dispersion Correction
    Grimme S.; Antony J.; Ehrlich S.; Krieg H. (2010), J. Chem. Phys., 132: 154104

        S6 =   1.000000E+00
        S8 =   1.703000E+00
       SR6 =   1.261000E+00
       SR8 =   1.000000E+00
    ALPHA6 =   1.400000E+01

   => Loading Basis Set <=

    Name: (CC-PVDZ AUX)
    Role: JKFIT
    Keyword: DF_BASIS_SCF
    atoms 1-2 entry C          line   121 file /shared/joao/test_parameterize/miniconda3/share/psi4/basis/cc-pvdz-jkfit.gbs 
    atoms 3-6 entry H          line    51 file /shared/joao/test_parameterize/miniconda3/share/psi4/basis/cc-pvdz-jkfit.gbs 

  ==> Pre-Iterations <==

   -------------------------------------------------------
    Irrep   Nso     Nmo     Nalpha   Nbeta   Ndocc  Nsocc
   -------------------------------------------------------
     A         48      48       0       0       0       0
   -------------------------------------------------------
    Total      48      48       8       8       8       0
   -------------------------------------------------------

  ==> Integral Setup <==

  DFHelper Memory: AOs need 0.005 [GiB]; user supplied 3.486 [GiB]. Using in-core AOs.

  ==> MemDFJK: Density-Fitted J/K Matrices <==

    J tasked:                   Yes
    K tasked:                   Yes
    wK tasked:                   No
    OpenMP threads:               1
    Memory (MB):               3570
    Algorithm:                 Core
    Schwarz Cutoff:           1E-12
    Mask sparsity (%):       0.0000
    Fitting Condition:        1E-12

   => Auxiliary Basis Set <=

  Basis Set: (CC-PVDZ AUX)
    Blend: CC-PVDZ-JKFIT
    Number of shells: 84
    Number of basis function: 232
    Number of Cartesian functions: 262
    Spherical Harmonics?: true
    Max angular momentum: 3

  Minimum eigenvalue in the overlap matrix is 4.9773659683E-03.
  Using Symmetric Orthogonalization.

  SCF Guess: Superposition of Atomic Densities via on-the-fly atomic UHF.

  ==> Iterations <==

                           Total Energy        Delta E     RMS |[F,P]|

   @DF-RKS iter   0:   -78.84736080139201   -7.88474e+01   4.98644e-02 
   @DF-RKS iter   1:   -78.50618237046882    3.41178e-01   4.92046e-03 
   @DF-RKS iter   2:   -78.50418424224935    1.99813e-03   5.30524e-03 DIIS
   @DF-RKS iter   3:   -78.54099970089653   -3.68155e-02   7.63624e-04 DIIS
   @DF-RKS iter   4:   -78.54128064611693   -2.80945e-04   6.21588e-04 DIIS
   @DF-RKS iter   5:   -78.54176613780555   -4.85492e-04   2.08078e-05 DIIS
   @DF-RKS iter   6:   -78.54176666243308   -5.24628e-07   1.04732e-05 DIIS
   @DF-RKS iter   7:   -78.54176680167100   -1.39238e-07   1.47279e-06 DIIS
   @DF-RKS iter   8:   -78.54176680419829   -2.52729e-09   2.49826e-07 DIIS

  ==> Post-Iterations <==

    Orbital Energies [Eh]
    ---------------------

    Doubly Occupied:                                                      

       1A    -10.188834     2A    -10.188052     3A     -0.762307  
       4A     -0.579436     5A     -0.458196     6A     -0.417618  
       7A     -0.394188     8A     -0.225409  

    Virtual:                                                              

       9A     -0.036394    10A      0.086623    11A      0.106653  
      12A      0.122614    13A      0.169584    14A      0.292919  
      15A      0.407555    16A      0.479229    17A      0.491655  
      18A      0.502990    19A      0.548697    20A      0.549694  
      21A      0.659660    22A      0.666471    23A      0.707631  
      24A      0.768488    25A      0.820941    26A      0.947539  
      27A      0.964133    28A      1.030164    29A      1.229457  
      30A      1.439583    31A      1.458425    32A      1.461399  
      33A      1.473648    34A      1.489152    35A      1.598873  
      36A      1.665312    37A      1.693102    38A      1.802908  
      39A      1.903404    40A      1.997771    41A      2.002947  
      42A      2.103990    43A      2.191121    44A      2.321864  
      45A      2.494028    46A      2.511270    47A      2.599309  
      48A      2.831695  

    Final Occupation by Irrep:
              A 
    DOCC [     8 ]

  Energy converged.

  @DF-RKS Final Energy:   -78.54176680419829

   => Energetics <=

    Nuclear Repulsion Energy =             33.3114079432770254
    One-Electron Energy =                -170.1189705445754043
    Two-Electron Energy =                  68.2145157087081770
    DFT Exchange-Correlation Energy =      -9.9478710116080951
    Empirical Dispersion Energy =          -0.0008489000000000
    VV10 Nonlocal Energy =                  0.0000000000000000
    Total Energy =                        -78.5417668041982893



Properties will be evaluated at   0.000000,   0.000000,   0.000000 [a0]

Properties computed using the SCF density matrix

  Nuclear Dipole Moment: [e a0]
     X:    48.6400      Y:    -1.2548      Z:    -1.6991

  Electronic Dipole Moment: [e a0]
     X:   -48.6400      Y:     1.2548      Z:     1.6991

  Dipole Moment: [e a0]
     X:     0.0000      Y:    -0.0000      Z:     0.0000     Total:     0.0000

  Dipole Moment: [D]
     X:     0.0000      Y:    -0.0000      Z:     0.0000     Total:     0.0000


*** tstop() called on loro.prib.upf.edu at Sat Sep 29 16:46:51 2018
Module time:
	user time   =       4.62 seconds =       0.08 minutes
	system time =       0.09 seconds =       0.00 minutes
	total time  =          7 seconds =       0.12 minutes
Total time:
	user time   =       4.62 seconds =       0.08 minutes
	system time =       0.09 seconds =       0.00 minutes
	total time  =          7 seconds =       0.12 minutes


Properties will be evaluated at   0.000000,   0.000000,   0.000000 [a0]
OEProp: No title given, name of density matrix used for the following properties is 'SCF density'
  Nuclear Dipole Moment: [e a0]
     X:    48.6400      Y:    -1.2548      Z:    -1.6991

  Electronic Dipole Moment: [e a0]
     X:   -48.6400      Y:     1.2548      Z:     1.6991

  Dipole Moment: [e a0]
     X:     0.0000      Y:    -0.0000      Z:     0.0000     Total:     0.0000

  Dipole Moment: [D]
     X:     0.0000      Y:    -0.0000      Z:     0.0000     Total:     0.0000

  Quadrupole Moment: [D A]
    XX:   -12.5971     YY:   -13.2552     ZZ:   -14.1421
    XY:    -0.0001     XZ:     0.0002     YZ:    -0.4656

  Traceless Quadrupole Moment: [D A]
    XX:     0.7343     YY:     0.0763     ZZ:    -0.8106
    XY:    -0.0001     XZ:     0.0002     YZ:    -0.4656

  Mulliken Charges: (a.u.)
   Center  Symbol    Alpha    Beta     Spin     Total
       1     C     3.03109  3.03109  0.00000 -0.06217
       2     C     3.03109  3.03109  0.00000 -0.06217
       3     H     0.48446  0.48446  0.00000  0.03108
       4     H     0.48445  0.48445  0.00000  0.03109
       5     H     0.48446  0.48446  0.00000  0.03108
       6     H     0.48445  0.48445  0.00000  0.03109

   Total alpha =  8.00000, Total beta =  8.00000, Total charge =  0.00000


    Psi4 stopped on: Saturday, 29 September 2018 04:46PM
    Psi4 wall time for execution: 0:00:06.91

*** Psi4 exiting successfully. Buy a developer a beer!
