
    -----------------------------------------------------------------------
          Psi4: An Open-Source Ab Initio Electronic Structure Package
                               Psi4 1.2.1 release

                         Git: Rev {HEAD} 406f4de 


    R. M. Parrish, L. A. Burns, D. G. A. Smith, A. C. Simmonett,
    A. E. DePrince III, E. G. Hohenstein, U. Bozkaya, A. Yu. Sokolov,
    R. Di Remigio, R. M. Richard, J. F. Gonthier, A. M. James,
    H. R. McAlexander, A. Kumar, M. Saitow, X. Wang, B. P. Pritchard,
    P. Verma, H. F. Schaefer III, K. Patkowski, R. A. King, E. F. Valeev,
    F. A. Evangelista, J. M. Turney, T. D. Crawford, and C. D. Sherrill,
    J. Chem. Theory Comput. 13(7) pp 3185--3197 (2017).
    (doi: 10.1021/acs.jctc.7b00174)


                         Additional Contributions by
    P. Kraus, H. Kruse, M. H. Lechner, M. C. Schieber, and R. A. Shaw

    -----------------------------------------------------------------------


    Psi4 started on: Saturday, 29 September 2018 05:08PM

    Process ID: 12295
    Host:       loro.prib.upf.edu
    PSIDATADIR: /shared/joao/test_parameterize/miniconda3/share/psi4
    Memory:     500.0 MiB
    Threads:    1
    
  ==> Input File <==

--------------------------------------------------------------------------
set_num_threads(1)
set_memory('5348 MB')

set { scf_mem_safety_factor 0.7 }

set { reference rks }
set { basis cc-pVDZ }

molecule MOL {
    0 1
    noreorient
    nocom
    symmetry c1
    O    1.050400   0.042900  -0.048100
    C    2.474100   0.047400  -0.029000
    C    3.002600  -1.068900  -0.932000
    N    3.616885  -2.152530  -0.166560
    H    0.760400   0.728400   0.578000
    H    2.809900  -0.097900   1.003200
    H    2.817400   1.026800  -0.378600
    H    3.730327  -0.658938  -1.641989
    H    2.178442  -1.468287  -1.533922
    H    4.455063  -1.804597   0.298072
    H    3.935918  -2.872276  -0.814970
}

set optking { frozen_dihedral = (" 1 2 3 4 ") }

energy, wfn = energy('B3LYP-D3', return_wfn=True)

import os
os.chdir(os.environ['HTMD_PSI4_WORKDIR'])

oeprop(wfn, 'DIPOLE', 'QUADRUPOLE', 'MULLIKEN_CHARGES')

with open('psi4out.xyz', 'w') as f:
    f.write('11 ' )
    f.write('%.12f\n' % energy)
    f.write(MOL.save_string_xyz())
--------------------------------------------------------------------------
  Threads set to 1 by Python driver.

  Memory set to   4.981 GiB by Python driver.

*** tstart() called on loro.prib.upf.edu
*** at Sat Sep 29 17:08:29 2018

   => Loading Basis Set <=

    Name: CC-PVDZ
    Role: ORBITAL
    Keyword: BASIS
    atoms 1    entry O          line   198 file /shared/joao/test_parameterize/miniconda3/share/psi4/basis/cc-pvdz.gbs 
    atoms 2-3  entry C          line   138 file /shared/joao/test_parameterize/miniconda3/share/psi4/basis/cc-pvdz.gbs 
    atoms 4    entry N          line   168 file /shared/joao/test_parameterize/miniconda3/share/psi4/basis/cc-pvdz.gbs 
    atoms 5-11 entry H          line    22 file /shared/joao/test_parameterize/miniconda3/share/psi4/basis/cc-pvdz.gbs 


         ---------------------------------------------------------
                                   SCF
            by Justin Turney, Rob Parrish, Andy Simmonett
                             and Daniel Smith
                              RKS Reference
                        1 Threads,   5100 MiB Core
         ---------------------------------------------------------

  ==> Geometry <==

    Molecular point group: c1
    Full point group: C1

    Geometry (in Angstrom), charge = 0, multiplicity = 1:

       Center              X                  Y                   Z               Mass       
    ------------   -----------------  -----------------  -----------------  -----------------
         O            1.050400000000     0.042900000000    -0.048100000000    15.994914619560
         C            2.474100000000     0.047400000000    -0.029000000000    12.000000000000
         C            3.002600000000    -1.068900000000    -0.932000000000    12.000000000000
         N            3.616885000000    -2.152530000000    -0.166560000000    14.003074004780
         H            0.760400000000     0.728400000000     0.578000000000     1.007825032070
         H            2.809900000000    -0.097900000000     1.003200000000     1.007825032070
         H            2.817400000000     1.026800000000    -0.378600000000     1.007825032070
         H            3.730327000000    -0.658938000000    -1.641989000000     1.007825032070
         H            2.178442000000    -1.468287000000    -1.533922000000     1.007825032070
         H            4.455063000000    -1.804597000000     0.298072000000     1.007825032070
         H            3.935918000000    -2.872276000000    -0.814970000000     1.007825032070

  Running in c1 symmetry.

  Rotational constants: A =      0.41889  B =      0.03136  C =      0.03040 [cm^-1]
  Rotational constants: A =  12558.15312  B =    940.20489  C =    911.51032 [MHz]
  Nuclear repulsion =  131.186441707282142

  Charge       = 0
  Multiplicity = 1
  Electrons    = 34
  Nalpha       = 17
  Nbeta        = 17

  ==> Algorithm <==

  SCF Algorithm Type is DF.
  DIIS enabled.
  MOM disabled.
  Fractional occupation disabled.
  Guess Type is SAD.
  Energy threshold   = 1.00e-06
  Density threshold  = 1.00e-06
  Integral threshold = 0.00e+00

  ==> Primary Basis <==

  Basis Set: CC-PVDZ
    Blend: CC-PVDZ
    Number of shells: 45
    Number of basis function: 91
    Number of Cartesian functions: 95
    Spherical Harmonics?: true
    Max angular momentum: 2

  ==> DFT Potential <==

   => Composite Functional: B3LYP-D3ZERO <= 

    B3LYP-d3zero Hyb-GGA Exchange-Correlation Functional

    P. J. Stephens, F. J. Devlin, C. F. Chabalowski, and M. J. Frisch, J. Phys. Chem. 98, 11623 (1994)

    Deriv               =              1
    GGA                 =           TRUE
    Meta                =          FALSE

    Exchange Hybrid     =           TRUE
    MP2 Hybrid          =          FALSE

   => Exchange Functionals <=

    0.0800   Slater exchange
    0.7200         Becke 88

   => Exact (HF) Exchange <=

    0.2000               HF 

   => Correlation Functionals <=

    0.1900   Vosko, Wilk & Nusair (VWN5_RPA)
    0.8100   Lee, Yang & Parr

   => Molecular Quadrature <=

    Radial Scheme       =       TREUTLER
    Pruning Scheme      =           FLAT
    Nuclear Scheme      =       TREUTLER

    BS radius alpha     =              1
    Pruning alpha       =              1
    Radial Points       =             75
    Spherical Points    =            302
    Total Points        =         245085
    Total Blocks        =           1894
    Max Points          =            256
    Max Functions       =             91

   => -D3ZERO: Empirical Dispersion <=

    Grimme's -D3 (zero-damping) Dispersion Correction
    Grimme S.; Antony J.; Ehrlich S.; Krieg H. (2010), J. Chem. Phys., 132: 154104

        S6 =   1.000000E+00
        S8 =   1.703000E+00
       SR6 =   1.261000E+00
       SR8 =   1.000000E+00
    ALPHA6 =   1.400000E+01

   => Loading Basis Set <=

    Name: (CC-PVDZ AUX)
    Role: JKFIT
    Keyword: DF_BASIS_SCF
    atoms 1    entry O          line   221 file /shared/joao/test_parameterize/miniconda3/share/psi4/basis/cc-pvdz-jkfit.gbs 
    atoms 2-3  entry C          line   121 file /shared/joao/test_parameterize/miniconda3/share/psi4/basis/cc-pvdz-jkfit.gbs 
    atoms 4    entry N          line   171 file /shared/joao/test_parameterize/miniconda3/share/psi4/basis/cc-pvdz-jkfit.gbs 
    atoms 5-11 entry H          line    51 file /shared/joao/test_parameterize/miniconda3/share/psi4/basis/cc-pvdz-jkfit.gbs 

  ==> Pre-Iterations <==

   -------------------------------------------------------
    Irrep   Nso     Nmo     Nalpha   Nbeta   Ndocc  Nsocc
   -------------------------------------------------------
     A         91      91       0       0       0       0
   -------------------------------------------------------
    Total      91      91      17      17      17       0
   -------------------------------------------------------

  ==> Integral Setup <==

  DFHelper Memory: AOs need 0.036 [GiB]; user supplied 3.486 [GiB]. Using in-core AOs.

  ==> MemDFJK: Density-Fitted J/K Matrices <==

    J tasked:                   Yes
    K tasked:                   Yes
    wK tasked:                   No
    OpenMP threads:               1
    Memory (MB):               3570
    Algorithm:                 Core
    Schwarz Cutoff:           1E-12
    Mask sparsity (%):       0.2898
    Fitting Condition:        1E-12

   => Auxiliary Basis Set <=

  Basis Set: (CC-PVDZ AUX)
    Blend: CC-PVDZ-JKFIT
    Number of shells: 159
    Number of basis function: 441
    Number of Cartesian functions: 499
    Spherical Harmonics?: true
    Max angular momentum: 3

  Minimum eigenvalue in the overlap matrix is 4.6119200378E-03.
  Using Symmetric Orthogonalization.

  SCF Guess: Superposition of Atomic Densities via on-the-fly atomic UHF.

  ==> Iterations <==

                           Total Energy        Delta E     RMS |[F,P]|

   @DF-RKS iter   0:  -210.90629180411074   -2.10906e+02   3.72097e-02 
   @DF-RKS iter   1:  -210.24191144495148    6.64380e-01   6.37101e-03 
   @DF-RKS iter   2:  -210.10347197097079    1.38439e-01   9.14928e-03 DIIS
   @DF-RKS iter   3:  -210.38483354643398   -2.81362e-01   5.76834e-04 DIIS
   @DF-RKS iter   4:  -210.38559212830469   -7.58582e-04   3.51109e-04 DIIS
   @DF-RKS iter   5:  -210.38604370493528   -4.51577e-04   4.47978e-05 DIIS
   @DF-RKS iter   6:  -210.38604973287167   -6.02794e-06   1.78364e-05 DIIS
   @DF-RKS iter   7:  -210.38605085855946   -1.12569e-06   3.07872e-06 DIIS
   @DF-RKS iter   8:  -210.38605089340140   -3.48419e-08   6.04323e-07 DIIS

  ==> Post-Iterations <==

    Orbital Energies [Eh]
    ---------------------

    Doubly Occupied:                                                      

       1A    -19.123701     2A    -14.302101     3A    -10.222831  
       4A    -10.201154     5A     -1.006740     6A     -0.874888  
       7A     -0.712786     8A     -0.596844     9A     -0.507678  
      10A     -0.479172    11A     -0.462929    12A     -0.396143  
      13A     -0.389590    14A     -0.372204    15A     -0.322263  
      16A     -0.257215    17A     -0.228467  

    Virtual:                                                              

      18A      0.054628    19A      0.061123    20A      0.104914  
      21A      0.112125    22A      0.130095    23A      0.143766  
      24A      0.154606    25A      0.219951    26A      0.230790  
      27A      0.262588    28A      0.456066    29A      0.476825  
      30A      0.489905    31A      0.512300    32A      0.537197  
      33A      0.565131    34A      0.612870    35A      0.620649  
      36A      0.637925    37A      0.653888    38A      0.659989  
      39A      0.688340    40A      0.706365    41A      0.791551  
      42A      0.810034    43A      0.841879    44A      0.900542  
      45A      0.960139    46A      0.995967    47A      1.011564  
      48A      1.056465    49A      1.184139    50A      1.224108  
      51A      1.233166    52A      1.283311    53A      1.339016  
      54A      1.374029    55A      1.426342    56A      1.494799  
      57A      1.536600    58A      1.574117    59A      1.584170  
      60A      1.611249    61A      1.629709    62A      1.648126  
      63A      1.695437    64A      1.741200    65A      1.768157  
      66A      1.806519    67A      1.860489    68A      1.910985  
      69A      1.924887    70A      1.966273    71A      1.978252  
      72A      2.007930    73A      2.028764    74A      2.135592  
      75A      2.166648    76A      2.189944    77A      2.286232  
      78A      2.376453    79A      2.388182    80A      2.452809  
      81A      2.461602    82A      2.518253    83A      2.618928  
      84A      2.677252    85A      2.817816    86A      2.967285  
      87A      3.020236    88A      3.057817    89A      3.098244  
      90A      3.192758    91A      3.693278  

    Final Occupation by Irrep:
              A 
    DOCC [    17 ]

  Energy converged.

  @DF-RKS Final Energy:  -210.38605089340140

   => Energetics <=

    Nuclear Repulsion Energy =            131.1864417072821425
    One-Electron Energy =                -545.3480232580537859
    Two-Electron Energy =                 227.2693896931760378
    DFT Exchange-Correlation Energy =     -23.4891427758057780
    Empirical Dispersion Energy =          -0.0047162600000000
    VV10 Nonlocal Energy =                  0.0000000000000000
    Total Energy =                       -210.3860508934014035



Properties will be evaluated at   0.000000,   0.000000,   0.000000 [a0]

Properties computed using the SCF density matrix

  Nuclear Dipole Moment: [e a0]
     X:   164.9146      Y:   -49.1335      Z:   -18.5324

  Electronic Dipole Moment: [e a0]
     X:  -164.2550      Y:    49.6048      Z:    18.5618

  Dipole Moment: [e a0]
     X:     0.6596      Y:     0.4714      Z:     0.0294     Total:     0.8113

  Dipole Moment: [D]
     X:     1.6766      Y:     1.1981      Z:     0.0748     Total:     2.0621


*** tstop() called on loro.prib.upf.edu at Sat Sep 29 17:08:49 2018
Module time:
	user time   =      15.34 seconds =       0.26 minutes
	system time =       0.22 seconds =       0.00 minutes
	total time  =         20 seconds =       0.33 minutes
Total time:
	user time   =      15.34 seconds =       0.26 minutes
	system time =       0.22 seconds =       0.00 minutes
	total time  =         20 seconds =       0.33 minutes


Properties will be evaluated at   0.000000,   0.000000,   0.000000 [a0]
OEProp: No title given, name of density matrix used for the following properties is 'SCF density'
  Nuclear Dipole Moment: [e a0]
     X:   164.9146      Y:   -49.1335      Z:   -18.5324

  Electronic Dipole Moment: [e a0]
     X:  -164.2550      Y:    49.6048      Z:    18.5618

  Dipole Moment: [e a0]
     X:     0.6596      Y:     0.4714      Z:     0.0294     Total:     0.8113

  Dipole Moment: [D]
     X:     1.6766      Y:     1.1981      Z:     0.0748     Total:     2.0621

  Quadrupole Moment: [D A]
    XX:   -15.3749     YY:   -25.4235     ZZ:   -24.5108
    XY:    -1.1099     XZ:    -1.9686     YZ:     3.6654

  Traceless Quadrupole Moment: [D A]
    XX:     6.3948     YY:    -3.6537     ZZ:    -2.7411
    XY:    -1.1099     XZ:    -1.9686     YZ:     3.6654

  Mulliken Charges: (a.u.)
   Center  Symbol    Alpha    Beta     Spin     Total
       1     O     4.13946  4.13946  0.00000 -0.27892
       2     C     2.92327  2.92327  0.00000  0.15345
       3     C     2.98069  2.98069  0.00000  0.03863
       4     N     3.59144  3.59144  0.00000 -0.18288
       5     H     0.43234  0.43234  0.00000  0.13532
       6     H     0.50253  0.50253  0.00000 -0.00506
       7     H     0.50507  0.50507  0.00000 -0.01015
       8     H     0.50682  0.50682  0.00000 -0.01365
       9     H     0.48556  0.48556  0.00000  0.02887
      10     H     0.46681  0.46681  0.00000  0.06638
      11     H     0.46600  0.46600  0.00000  0.06800

   Total alpha = 17.00000, Total beta = 17.00000, Total charge =  0.00000


    Psi4 stopped on: Saturday, 29 September 2018 05:08PM
    Psi4 wall time for execution: 0:00:19.67

*** Psi4 exiting successfully. Buy a developer a beer!
