
    -----------------------------------------------------------------------
          Psi4: An Open-Source Ab Initio Electronic Structure Package
                               Psi4 1.2.1 release

                         Git: Rev {HEAD} 406f4de 


    R. M. Parrish, L. A. Burns, D. G. A. Smith, A. C. Simmonett,
    A. E. DePrince III, E. G. Hohenstein, U. Bozkaya, A. Yu. Sokolov,
    R. Di Remigio, R. M. Richard, J. F. Gonthier, A. M. James,
    H. R. McAlexander, A. Kumar, M. Saitow, X. Wang, B. P. Pritchard,
    P. Verma, H. F. Schaefer III, K. Patkowski, R. A. King, E. F. Valeev,
    F. A. Evangelista, J. M. Turney, T. D. Crawford, and C. D. Sherrill,
    J. Chem. Theory Comput. 13(7) pp 3185--3197 (2017).
    (doi: 10.1021/acs.jctc.7b00174)


                         Additional Contributions by
    P. Kraus, H. Kruse, M. H. Lechner, M. C. Schieber, and R. A. Shaw

    -----------------------------------------------------------------------


    Psi4 started on: Saturday, 29 September 2018 04:46PM

    Process ID: 2568
    Host:       loro.prib.upf.edu
    PSIDATADIR: /shared/joao/test_parameterize/miniconda3/share/psi4
    Memory:     500.0 MiB
    Threads:    1
    
  ==> Input File <==

--------------------------------------------------------------------------
set_num_threads(1)
set_memory('5348 MB')

set { scf_mem_safety_factor 0.7 }

set { reference rks }
set { basis cc-pVDZ }

molecule MOL {
    0 1
    noreorient
    nocom
    symmetry c1
    C    0.940800  -0.041500  -0.056200
    C    2.276600  -0.041500  -0.056200
    H    0.380900   0.578300  -0.749400
    H    0.380900  -0.661400   0.637000
    H    2.836500  -0.734700  -0.676000
    H    2.836500   0.651700   0.563700
}

set optking { frozen_dihedral = (" 3 1 2 5 ") }

energy, wfn = energy('B3LYP-D3', return_wfn=True)

import os
os.chdir(os.environ['HTMD_PSI4_WORKDIR'])

oeprop(wfn, 'DIPOLE', 'QUADRUPOLE', 'MULLIKEN_CHARGES')

with open('psi4out.xyz', 'w') as f:
    f.write('6 ' )
    f.write('%.12f\n' % energy)
    f.write(MOL.save_string_xyz())
--------------------------------------------------------------------------
  Threads set to 1 by Python driver.

  Memory set to   4.981 GiB by Python driver.

*** tstart() called on loro.prib.upf.edu
*** at Sat Sep 29 16:46:44 2018

   => Loading Basis Set <=

    Name: CC-PVDZ
    Role: ORBITAL
    Keyword: BASIS
    atoms 1-2 entry C          line   138 file /shared/joao/test_parameterize/miniconda3/share/psi4/basis/cc-pvdz.gbs 
    atoms 3-6 entry H          line    22 file /shared/joao/test_parameterize/miniconda3/share/psi4/basis/cc-pvdz.gbs 


         ---------------------------------------------------------
                                   SCF
            by Justin Turney, Rob Parrish, Andy Simmonett
                             and Daniel Smith
                              RKS Reference
                        1 Threads,   5100 MiB Core
         ---------------------------------------------------------

  ==> Geometry <==

    Molecular point group: c1
    Full point group: C1

    Geometry (in Angstrom), charge = 0, multiplicity = 1:

       Center              X                  Y                   Z               Mass       
    ------------   -----------------  -----------------  -----------------  -----------------
         C            0.940800000000    -0.041500000000    -0.056200000000    12.000000000000
         C            2.276600000000    -0.041500000000    -0.056200000000    12.000000000000
         H            0.380900000000     0.578300000000    -0.749400000000     1.007825032070
         H            0.380900000000    -0.661400000000     0.637000000000     1.007825032070
         H            2.836500000000    -0.734700000000    -0.676000000000     1.007825032070
         H            2.836500000000     0.651700000000     0.563700000000     1.007825032070

  Running in c1 symmetry.

  Rotational constants: A =      4.80342  B =      0.18488  C =      0.18483 [cm^-1]
  Rotational constants: A = 144002.99789  B =   5542.51127  C =   5541.08466 [MHz]
  Nuclear repulsion =   33.305470461382114

  Charge       = 0
  Multiplicity = 1
  Electrons    = 16
  Nalpha       = 8
  Nbeta        = 8

  ==> Algorithm <==

  SCF Algorithm Type is DF.
  DIIS enabled.
  MOM disabled.
  Fractional occupation disabled.
  Guess Type is SAD.
  Energy threshold   = 1.00e-06
  Density threshold  = 1.00e-06
  Integral threshold = 0.00e+00

  ==> Primary Basis <==

  Basis Set: CC-PVDZ
    Blend: CC-PVDZ
    Number of shells: 24
    Number of basis function: 48
    Number of Cartesian functions: 50
    Spherical Harmonics?: true
    Max angular momentum: 2

  ==> DFT Potential <==

   => Composite Functional: B3LYP-D3ZERO <= 

    B3LYP-d3zero Hyb-GGA Exchange-Correlation Functional

    P. J. Stephens, F. J. Devlin, C. F. Chabalowski, and M. J. Frisch, J. Phys. Chem. 98, 11623 (1994)

    Deriv               =              1
    GGA                 =           TRUE
    Meta                =          FALSE

    Exchange Hybrid     =           TRUE
    MP2 Hybrid          =          FALSE

   => Exchange Functionals <=

    0.0800   Slater exchange
    0.7200         Becke 88

   => Exact (HF) Exchange <=

    0.2000               HF 

   => Correlation Functionals <=

    0.1900   Vosko, Wilk & Nusair (VWN5_RPA)
    0.8100   Lee, Yang & Parr

   => Molecular Quadrature <=

    Radial Scheme       =       TREUTLER
    Pruning Scheme      =           FLAT
    Nuclear Scheme      =       TREUTLER

    BS radius alpha     =              1
    Pruning alpha       =              1
    Radial Points       =             75
    Spherical Points    =            302
    Total Points        =         133300
    Total Blocks        =           1070
    Max Points          =            256
    Max Functions       =             48

   => -D3ZERO: Empirical Dispersion <=

    Grimme's -D3 (zero-damping) Dispersion Correction
    Grimme S.; Antony J.; Ehrlich S.; Krieg H. (2010), J. Chem. Phys., 132: 154104

        S6 =   1.000000E+00
        S8 =   1.703000E+00
       SR6 =   1.261000E+00
       SR8 =   1.000000E+00
    ALPHA6 =   1.400000E+01

   => Loading Basis Set <=

    Name: (CC-PVDZ AUX)
    Role: JKFIT
    Keyword: DF_BASIS_SCF
    atoms 1-2 entry C          line   121 file /shared/joao/test_parameterize/miniconda3/share/psi4/basis/cc-pvdz-jkfit.gbs 
    atoms 3-6 entry H          line    51 file /shared/joao/test_parameterize/miniconda3/share/psi4/basis/cc-pvdz-jkfit.gbs 

  ==> Pre-Iterations <==

   -------------------------------------------------------
    Irrep   Nso     Nmo     Nalpha   Nbeta   Ndocc  Nsocc
   -------------------------------------------------------
     A         48      48       0       0       0       0
   -------------------------------------------------------
    Total      48      48       8       8       8       0
   -------------------------------------------------------

  ==> Integral Setup <==

  DFHelper Memory: AOs need 0.005 [GiB]; user supplied 3.486 [GiB]. Using in-core AOs.

  ==> MemDFJK: Density-Fitted J/K Matrices <==

    J tasked:                   Yes
    K tasked:                   Yes
    wK tasked:                   No
    OpenMP threads:               1
    Memory (MB):               3570
    Algorithm:                 Core
    Schwarz Cutoff:           1E-12
    Mask sparsity (%):       0.0000
    Fitting Condition:        1E-12

   => Auxiliary Basis Set <=

  Basis Set: (CC-PVDZ AUX)
    Blend: CC-PVDZ-JKFIT
    Number of shells: 84
    Number of basis function: 232
    Number of Cartesian functions: 262
    Spherical Harmonics?: true
    Max angular momentum: 3

  Minimum eigenvalue in the overlap matrix is 5.0631032693E-03.
  Using Symmetric Orthogonalization.

  SCF Guess: Superposition of Atomic Densities via on-the-fly atomic UHF.

  ==> Iterations <==

                           Total Energy        Delta E     RMS |[F,P]|

   @DF-RKS iter   0:   -78.91872509446188   -7.89187e+01   4.98529e-02 
   @DF-RKS iter   1:   -78.33499197957235    5.83733e-01   7.77643e-03 
   @DF-RKS iter   2:   -78.05367826293116    2.81314e-01   1.57692e-02 DIIS
   @DF-RKS iter   3:   -78.42022920037496   -3.66551e-01   2.88928e-03 DIIS
   @DF-RKS iter   4:   -78.41552439530319    4.70481e-03   3.76445e-03 DIIS
   @DF-RKS iter   5:   -78.43146663472650   -1.59422e-02   1.43693e-03 DIIS
   @DF-RKS iter   6:   -78.43360087122129   -2.13424e-03   6.62686e-04 DIIS
   @DF-RKS iter   7:   -78.43412274477785   -5.21874e-04   1.51232e-04 DIIS
   @DF-RKS iter   8:   -78.43415184066151   -2.90959e-05   1.15644e-05 DIIS
   @DF-RKS iter   9:   -78.43415200287524   -1.62214e-07   1.28100e-06 DIIS
   @DF-RKS iter  10:   -78.43415200494483   -2.06960e-09   1.00324e-07 DIIS

  ==> Post-Iterations <==

    Orbital Energies [Eh]
    ---------------------

    Doubly Occupied:                                                      

       1A    -10.190838     2A    -10.190070     3A     -0.768317  
       4A     -0.581277     5A     -0.435793     6A     -0.434845  
       7A     -0.421442     8A     -0.164583  

    Virtual:                                                              

       9A     -0.103160    10A      0.089549    11A      0.100312  
      12A      0.144223    13A      0.144305    14A      0.283862  
      15A      0.407592    16A      0.507510    17A      0.513812  
      18A      0.517982    19A      0.542862    20A      0.577862  
      21A      0.578056    22A      0.677753    23A      0.679304  
      24A      0.699944    25A      0.848712    26A      0.898345  
      27A      0.968287    28A      1.044490    29A      1.348226  
      30A      1.350073    31A      1.389008    32A      1.464711  
      33A      1.465990    34A      1.559413    35A      1.673033  
      36A      1.673761    37A      1.688820    38A      1.701797  
      39A      1.826457    40A      2.075707    41A      2.081878  
      42A      2.083933    43A      2.181478    44A      2.325864  
      45A      2.460538    46A      2.576062    47A      2.595549  
      48A      2.596401  

    Final Occupation by Irrep:
              A 
    DOCC [     8 ]

  Energy converged.

  @DF-RKS Final Energy:   -78.43415200494483

   => Energetics <=

    Nuclear Repulsion Energy =             33.3054704613821144
    One-Electron Energy =                -169.9495003718544694
    Two-Electron Energy =                  68.1530277380107776
    DFT Exchange-Correlation Energy =      -9.9423182924832645
    Empirical Dispersion Energy =          -0.0008315400000000
    VV10 Nonlocal Energy =                  0.0000000000000000
    Total Energy =                        -78.4341520049448206



Properties will be evaluated at   0.000000,   0.000000,   0.000000 [a0]

Properties computed using the SCF density matrix

  Nuclear Dipole Moment: [e a0]
     X:    48.6400      Y:    -1.2550      Z:    -1.6991

  Electronic Dipole Moment: [e a0]
     X:   -48.6400      Y:     1.2549      Z:     1.6990

  Dipole Moment: [e a0]
     X:    -0.0000      Y:    -0.0000      Z:    -0.0000     Total:     0.0000

  Dipole Moment: [D]
     X:    -0.0000      Y:    -0.0001      Z:    -0.0000     Total:     0.0001


*** tstop() called on loro.prib.upf.edu at Sat Sep 29 16:46:52 2018
Module time:
	user time   =       5.52 seconds =       0.09 minutes
	system time =       0.11 seconds =       0.00 minutes
	total time  =          8 seconds =       0.13 minutes
Total time:
	user time   =       5.52 seconds =       0.09 minutes
	system time =       0.11 seconds =       0.00 minutes
	total time  =          8 seconds =       0.13 minutes


Properties will be evaluated at   0.000000,   0.000000,   0.000000 [a0]
OEProp: No title given, name of density matrix used for the following properties is 'SCF density'
  Nuclear Dipole Moment: [e a0]
     X:    48.6400      Y:    -1.2550      Z:    -1.6991

  Electronic Dipole Moment: [e a0]
     X:   -48.6400      Y:     1.2549      Z:     1.6990

  Dipole Moment: [e a0]
     X:    -0.0000      Y:    -0.0000      Z:    -0.0000     Total:     0.0000

  Dipole Moment: [D]
     X:    -0.0000      Y:    -0.0001      Z:    -0.0000     Total:     0.0001

  Quadrupole Moment: [D A]
    XX:   -13.1957     YY:   -12.9838     ZZ:   -14.4870
    XY:    -0.0002     XZ:     0.0000     YZ:    -0.0842

  Traceless Quadrupole Moment: [D A]
    XX:     0.3598     YY:     0.5717     ZZ:    -0.9315
    XY:    -0.0002     XZ:     0.0000     YZ:    -0.0842

  Mulliken Charges: (a.u.)
   Center  Symbol    Alpha    Beta     Spin     Total
       1     C     3.04331  3.04331  0.00000 -0.08662
       2     C     3.04331  3.04331  0.00000 -0.08662
       3     H     0.47835  0.47835  0.00000  0.04330
       4     H     0.47834  0.47834  0.00000  0.04332
       5     H     0.47835  0.47835  0.00000  0.04331
       6     H     0.47834  0.47834  0.00000  0.04331

   Total alpha =  8.00000, Total beta =  8.00000, Total charge =  0.00000


    Psi4 stopped on: Saturday, 29 September 2018 04:46PM
    Psi4 wall time for execution: 0:00:08.11

*** Psi4 exiting successfully. Buy a developer a beer!
