
    -----------------------------------------------------------------------
          Psi4: An Open-Source Ab Initio Electronic Structure Package
                               Psi4 1.2.1 release

                         Git: Rev {HEAD} 406f4de 


    R. M. Parrish, L. A. Burns, D. G. A. Smith, A. C. Simmonett,
    A. E. DePrince III, E. G. Hohenstein, U. Bozkaya, A. Yu. Sokolov,
    R. Di Remigio, R. M. Richard, J. F. Gonthier, A. M. James,
    H. R. McAlexander, A. Kumar, M. Saitow, X. Wang, B. P. Pritchard,
    P. Verma, H. F. Schaefer III, K. Patkowski, R. A. King, E. F. Valeev,
    F. A. Evangelista, J. M. Turney, T. D. Crawford, and C. D. Sherrill,
    J. Chem. Theory Comput. 13(7) pp 3185--3197 (2017).
    (doi: 10.1021/acs.jctc.7b00174)


                         Additional Contributions by
    P. Kraus, H. Kruse, M. H. Lechner, M. C. Schieber, and R. A. Shaw

    -----------------------------------------------------------------------


    Psi4 started on: Saturday, 29 September 2018 08:51PM

    Process ID: 4462
    Host:       rosa.prib.upf.edu
    PSIDATADIR: /shared/joao/test_parameterize/miniconda3/share/psi4
    Memory:     500.0 MiB
    Threads:    1
    
  ==> Input File <==

--------------------------------------------------------------------------
set_num_threads(4)
set_memory('3000 MB')

set { scf_mem_safety_factor 0.7 }

set { reference rks }
set { basis 6-31G* }

molecule MOL {
    1 1
    noreorient
    nocom
    symmetry c1
    C   -0.000000  -0.000000  -0.177864
    C    0.036678   1.219374   0.524165
    C    0.031765   1.213120   1.915444
    C    0.000000   0.000000   2.610107
    C   -0.031765  -1.213120   1.915444
    C   -0.036678  -1.219375   0.524165
    C   -0.000000   0.000000  -1.644734
    H    0.018170   2.164705  -0.010854
    H    0.042402   2.152895   2.457886
    H    0.000000   0.000000   3.695756
    H   -0.042402  -2.152895   2.457886
    H   -0.018170  -2.164705  -0.010853
    N    0.980419  -0.606060  -2.308460
    N   -0.980419   0.606060  -2.308460
    H   -1.075890   0.555834  -3.315997
    H   -1.631576   1.201131  -1.813316
    H    1.631576  -1.201131  -1.813317
    H    1.075890  -0.555834  -3.315997
}

set optking { frozen_dihedral = (" 2 1 7 13 ") }

set optking { dynamic_level = 1 
 geom_maxiter = 250
 print_trajectory_xyz_file = True }

energy, wfn = optimize('B3LYP-D3', return_wfn=True)

import os
os.chdir(os.environ['HTMD_PSI4_WORKDIR'])

oeprop(wfn, 'DIPOLE', 'QUADRUPOLE', 'MULLIKEN_CHARGES')

with open('psi4out.xyz', 'w') as f:
    f.write('18 ' )
    f.write('%.12f\n' % energy)
    f.write(MOL.save_string_xyz())
--------------------------------------------------------------------------
  Threads set to 4 by Python driver.

  Memory set to   2.794 GiB by Python driver.
gradient() will perform analytic gradient computation.

*** tstart() called on rosa.prib.upf.edu
*** at Sat Sep 29 20:51:07 2018

   => Loading Basis Set <=

    Name: 6-31G*
    Role: ORBITAL
    Keyword: BASIS
    atoms 1-7         entry C          line   111 file /shared/joao/test_parameterize/miniconda3/share/psi4/basis/6-31gs.gbs 
    atoms 8-12, 15-18 entry H          line    44 file /shared/joao/test_parameterize/miniconda3/share/psi4/basis/6-31gs.gbs 
    atoms 13-14       entry N          line   128 file /shared/joao/test_parameterize/miniconda3/share/psi4/basis/6-31gs.gbs 


         ---------------------------------------------------------
                                   SCF
            by Justin Turney, Rob Parrish, Andy Simmonett
                             and Daniel Smith
                              RKS Reference
                        4 Threads,   2861 MiB Core
         ---------------------------------------------------------

  ==> Geometry <==

    Molecular point group: c1
    Full point group: C1

    Geometry (in Angstrom), charge = 1, multiplicity = 1:

       Center              X                  Y                   Z               Mass       
    ------------   -----------------  -----------------  -----------------  -----------------
         C            0.000000000000     0.000000000000    -0.177864000000    12.000000000000
         C            0.036678000000     1.219374000000     0.524165000000    12.000000000000
         C            0.031765000000     1.213120000000     1.915444000000    12.000000000000
         C            0.000000000000     0.000000000000     2.610107000000    12.000000000000
         C           -0.031765000000    -1.213120000000     1.915444000000    12.000000000000
         C           -0.036678000000    -1.219375000000     0.524165000000    12.000000000000
         C            0.000000000000     0.000000000000    -1.644734000000    12.000000000000
         H            0.018170000000     2.164705000000    -0.010854000000     1.007825032070
         H            0.042402000000     2.152895000000     2.457886000000     1.007825032070
         H            0.000000000000     0.000000000000     3.695756000000     1.007825032070
         H           -0.042402000000    -2.152895000000     2.457886000000     1.007825032070
         H           -0.018170000000    -2.164705000000    -0.010853000000     1.007825032070
         N            0.980419000000    -0.606060000000    -2.308460000000    14.003074004780
         N           -0.980419000000     0.606060000000    -2.308460000000    14.003074004780
         H           -1.075890000000     0.555834000000    -3.315997000000     1.007825032070
         H           -1.631576000000     1.201131000000    -1.813316000000     1.007825032070
         H            1.631576000000    -1.201131000000    -1.813317000000     1.007825032070
         H            1.075890000000    -0.555834000000    -3.315997000000     1.007825032070

  Running in c1 symmetry.

  Rotational constants: A =      0.12190  B =      0.03807  C =      0.03230 [cm^-1]
  Rotational constants: A =   3654.48716  B =   1141.45825  C =    968.19322 [MHz]
  Nuclear repulsion =  416.269075451347646

  Charge       = 1
  Multiplicity = 1
  Electrons    = 64
  Nalpha       = 32
  Nbeta        = 32

  ==> Algorithm <==

  SCF Algorithm Type is DF.
  DIIS enabled.
  MOM disabled.
  Fractional occupation disabled.
  Guess Type is SAD.
  Energy threshold   = 1.00e-08
  Density threshold  = 1.00e-08
  Integral threshold = 0.00e+00

  ==> Primary Basis <==

  Basis Set: 6-31G*
    Blend: 6-31G*
    Number of shells: 72
    Number of basis function: 153
    Number of Cartesian functions: 153
    Spherical Harmonics?: false
    Max angular momentum: 2

  ==> DFT Potential <==

   => Composite Functional: B3LYP-D3ZERO <= 

    B3LYP-d3zero Hyb-GGA Exchange-Correlation Functional

    P. J. Stephens, F. J. Devlin, C. F. Chabalowski, and M. J. Frisch, J. Phys. Chem. 98, 11623 (1994)

    Deriv               =              1
    GGA                 =           TRUE
    Meta                =          FALSE

    Exchange Hybrid     =           TRUE
    MP2 Hybrid          =          FALSE

   => Exchange Functionals <=

    0.0800   Slater exchange
    0.7200         Becke 88

   => Exact (HF) Exchange <=

    0.2000               HF 

   => Correlation Functionals <=

    0.1900   Vosko, Wilk & Nusair (VWN5_RPA)
    0.8100   Lee, Yang & Parr

   => Molecular Quadrature <=

    Radial Scheme       =       TREUTLER
    Pruning Scheme      =           FLAT
    Nuclear Scheme      =       TREUTLER

    BS radius alpha     =              1
    Pruning alpha       =              1
    Radial Points       =             75
    Spherical Points    =            302
    Total Points        =         397094
    Total Blocks        =           2985
    Max Points          =            256
    Max Functions       =            149

   => -D3ZERO: Empirical Dispersion <=

    Grimme's -D3 (zero-damping) Dispersion Correction
    Grimme S.; Antony J.; Ehrlich S.; Krieg H. (2010), J. Chem. Phys., 132: 154104

        S6 =   1.000000E+00
        S8 =   1.703000E+00
       SR6 =   1.261000E+00
       SR8 =   1.000000E+00
    ALPHA6 =   1.400000E+01

   => Loading Basis Set <=

    Name: (6-31G* AUX)
    Role: JKFIT
    Keyword: DF_BASIS_SCF
    atoms 1-7         entry C          line   121 file /shared/joao/test_parameterize/miniconda3/share/psi4/basis/cc-pvdz-jkfit.gbs 
    atoms 8-12, 15-18 entry H          line    51 file /shared/joao/test_parameterize/miniconda3/share/psi4/basis/cc-pvdz-jkfit.gbs 
    atoms 13-14       entry N          line   171 file /shared/joao/test_parameterize/miniconda3/share/psi4/basis/cc-pvdz-jkfit.gbs 

  ==> Pre-Iterations <==

   -------------------------------------------------------
    Irrep   Nso     Nmo     Nalpha   Nbeta   Ndocc  Nsocc
   -------------------------------------------------------
     A        153     153       0       0       0       0
   -------------------------------------------------------
    Total     153     153      32      32      32       0
   -------------------------------------------------------

  ==> Integral Setup <==

  ==> DiskDFJK: Density-Fitted J/K Matrices <==

    J tasked:                  Yes
    K tasked:                  Yes
    wK tasked:                  No
    OpenMP threads:              4
    Integrals threads:           4
    Memory (MB):              2002
    Algorithm:                Core
    Integral Cache:           NONE
    Schwarz Cutoff:          1E-12
    Fitting Condition:       1E-12

   => Auxiliary Basis Set <=

  Basis Set: (6-31G* AUX)
    Blend: CC-PVDZ-JKFIT
    Number of shells: 297
    Number of basis function: 954
    Number of Cartesian functions: 954
    Spherical Harmonics?: false
    Max angular momentum: 3

  Minimum eigenvalue in the overlap matrix is 4.8802975472E-04.
  Using Symmetric Orthogonalization.

  SCF Guess: Superposition of Atomic Densities via on-the-fly atomic UHF.

  ==> Iterations <==

                           Total Energy        Delta E     RMS |[F,P]|

   @DF-RKS iter   0:  -379.55141606317363   -3.79551e+02   4.80243e-02 
   @DF-RKS iter   1:  -381.02533857077646   -1.47392e+00   8.59051e-03 
   @DF-RKS iter   2:  -380.93249521735970    9.28434e-02   9.45545e-03 DIIS
   @DF-RKS iter   3:  -381.45444552623707   -5.21950e-01   1.33763e-03 DIIS
   @DF-RKS iter   4:  -381.46168391949271   -7.23839e-03   6.47820e-04 DIIS
   @DF-RKS iter   5:  -381.46373535259352   -2.05143e-03   1.71049e-04 DIIS
   @DF-RKS iter   6:  -381.46387843358752   -1.43081e-04   5.25743e-05 DIIS
   @DF-RKS iter   7:  -381.46389288761861   -1.44540e-05   1.24331e-05 DIIS
   @DF-RKS iter   8:  -381.46389323492986   -3.47311e-07   3.92609e-06 DIIS
   @DF-RKS iter   9:  -381.46389332354443   -8.86146e-08   1.03235e-06 DIIS
   @DF-RKS iter  10:  -381.46389332907438   -5.52996e-09   5.38993e-07 DIIS
   @DF-RKS iter  11:  -381.46389333093839   -1.86401e-09   6.26144e-08 DIIS
   @DF-RKS iter  12:  -381.46389333095601   -1.76215e-11   3.67267e-08 DIIS
   @DF-RKS iter  13:  -381.46389333096272   -6.70752e-12   1.41213e-08 DIIS
   @DF-RKS iter  14:  -381.46389333096312   -3.97904e-13   7.52446e-09 DIIS

  ==> Post-Iterations <==

    Orbital Energies [Eh]
    ---------------------

    Doubly Occupied:                                                      

       1A    -14.573817     2A    -14.573809     3A    -10.503222  
       4A    -10.370948     5A    -10.352257     6A    -10.352249  
       7A    -10.336622     8A    -10.336231     9A    -10.335858  
      10A     -1.188595    11A     -1.096315    12A     -1.011106  
      13A     -0.925333    14A     -0.898201    15A     -0.846345  
      16A     -0.787994    17A     -0.770073    18A     -0.747969  
      19A     -0.731066    20A     -0.692046    21A     -0.668633  
      22A     -0.622240    23A     -0.620867    24A     -0.580733  
      25A     -0.575993    26A     -0.570994    27A     -0.515099  
      28A     -0.502418    29A     -0.493938    30A     -0.475745  
      31A     -0.405738    32A     -0.401491  

    Virtual:                                                              

      33A     -0.206900    34A     -0.154234    35A     -0.153056  
      36A     -0.111287    37A     -0.067993    38A     -0.064439  
      39A     -0.038588    40A     -0.033405    41A      0.009845  
      42A      0.017867    43A      0.023179    44A      0.058988  
      45A      0.061632    46A      0.073480    47A      0.133941  
      48A      0.148936    49A      0.162154    50A      0.172242  
      51A      0.203349    52A      0.224825    53A      0.295058  
      54A      0.345462    55A      0.356030    56A      0.377228  
      57A      0.389272    58A      0.397727    59A      0.407591  
      60A      0.424994    61A      0.447925    62A      0.450142  
      63A      0.450520    64A      0.470571    65A      0.472805  
      66A      0.478589    67A      0.483851    68A      0.512477  
      69A      0.515476    70A      0.535614    71A      0.542254  
      72A      0.566495    73A      0.598959    74A      0.653007  
      75A      0.659216    76A      0.680769    77A      0.681771  
      78A      0.702049    79A      0.708238    80A      0.709845  
      81A      0.732097    82A      0.758708    83A      0.777916  
      84A      0.792687    85A      0.813286    86A      0.833755  
      87A      0.852908    88A      0.937052    89A      0.970893  
      90A      1.008805    91A      1.010516    92A      1.021662  
      93A      1.026480    94A      1.062978    95A      1.134748  
      96A      1.196969    97A      1.207325    98A      1.277136  
      99A      1.282260   100A      1.326075   101A      1.327934  
     102A      1.345123   103A      1.363531   104A      1.379852  
     105A      1.419987   106A      1.445225   107A      1.497845  
     108A      1.609116   109A      1.643679   110A      1.648899  
     111A      1.665978   112A      1.739273   113A      1.757767  
     114A      1.804314   115A      1.822176   116A      1.850407  
     117A      1.892287   118A      1.906949   119A      1.956678  
     120A      1.981924   121A      1.998942   122A      2.012186  
     123A      2.037698   124A      2.083246   125A      2.132018  
     126A      2.148734   127A      2.158745   128A      2.168347  
     129A      2.217194   130A      2.262470   131A      2.372224  
     132A      2.372730   133A      2.417241   134A      2.449158  
     135A      2.499181   136A      2.563129   137A      2.575200  
     138A      2.591557   139A      2.604935   140A      2.629050  
     141A      2.725876   142A      2.882728   143A      2.944628  
     144A      3.258280   145A      3.633736   146A      3.638719  
     147A      3.934859   148A      3.965124   149A      3.969518  
     150A      4.091540   151A      4.181775   152A      4.259432  
     153A      4.548425  

    Final Occupation by Irrep:
              A 
    DOCC [    32 ]

  Energy converged.

  @DF-RKS Final Energy:  -381.46389333096312

   => Energetics <=

    Nuclear Repulsion Energy =            416.2690754513476463
    One-Electron Energy =               -1327.7922413751734894
    Two-Electron Energy =                 574.4740753463570400
    DFT Exchange-Correlation Energy =     -44.4029112534942456
    Empirical Dispersion Energy =          -0.0118915000000000
    VV10 Nonlocal Energy =                  0.0000000000000000
    Total Energy =                       -381.4638933309631170



Properties will be evaluated at   0.000000,   0.000000,   0.000000 [a0]

Properties computed using the SCF density matrix

  Nuclear Dipole Moment: [e a0]
     X:     0.0000      Y:    -0.0000      Z:     0.0248

  Electronic Dipole Moment: [e a0]
     X:    -0.0000      Y:     0.0000      Z:    -2.4928

  Dipole Moment: [e a0]
     X:    -0.0000      Y:    -0.0000      Z:    -2.4680     Total:     2.4680

  Dipole Moment: [D]
     X:    -0.0000      Y:    -0.0000      Z:    -6.2731     Total:     6.2731


*** tstop() called on rosa.prib.upf.edu at Sat Sep 29 20:51:44 2018
Module time:
	user time   =     107.14 seconds =       1.79 minutes
	system time =       1.18 seconds =       0.02 minutes
	total time  =         37 seconds =       0.62 minutes
Total time:
	user time   =     107.14 seconds =       1.79 minutes
	system time =       1.18 seconds =       0.02 minutes
	total time  =         37 seconds =       0.62 minutes

*** tstart() called on rosa.prib.upf.edu
*** at Sat Sep 29 20:51:45 2018


         ------------------------------------------------------------
                                   SCF GRAD                          
                          Rob Parrish, Justin Turney,                
                       Andy Simmonett, and Alex Sokolov              
         ------------------------------------------------------------

  ==> Geometry <==

    Molecular point group: c1
    Full point group: C1

    Geometry (in Angstrom), charge = 1, multiplicity = 1:

       Center              X                  Y                   Z               Mass       
    ------------   -----------------  -----------------  -----------------  -----------------
         C            0.000000000000     0.000000000000    -0.177864000000    12.000000000000
         C            0.036678000000     1.219374000000     0.524165000000    12.000000000000
         C            0.031765000000     1.213120000000     1.915444000000    12.000000000000
         C            0.000000000000     0.000000000000     2.610107000000    12.000000000000
         C           -0.031765000000    -1.213120000000     1.915444000000    12.000000000000
         C           -0.036678000000    -1.219375000000     0.524165000000    12.000000000000
         C            0.000000000000     0.000000000000    -1.644734000000    12.000000000000
         H            0.018170000000     2.164705000000    -0.010854000000     1.007825032070
         H            0.042402000000     2.152895000000     2.457886000000     1.007825032070
         H            0.000000000000     0.000000000000     3.695756000000     1.007825032070
         H           -0.042402000000    -2.152895000000     2.457886000000     1.007825032070
         H           -0.018170000000    -2.164705000000    -0.010853000000     1.007825032070
         N            0.980419000000    -0.606060000000    -2.308460000000    14.003074004780
         N           -0.980419000000     0.606060000000    -2.308460000000    14.003074004780
         H           -1.075890000000     0.555834000000    -3.315997000000     1.007825032070
         H           -1.631576000000     1.201131000000    -1.813316000000     1.007825032070
         H            1.631576000000    -1.201131000000    -1.813317000000     1.007825032070
         H            1.075890000000    -0.555834000000    -3.315997000000     1.007825032070

  Nuclear repulsion =  416.269075451347646

  ==> Basis Set <==

  Basis Set: 6-31G*
    Blend: 6-31G*
    Number of shells: 72
    Number of basis function: 153
    Number of Cartesian functions: 153
    Spherical Harmonics?: false
    Max angular momentum: 2

  ==> DFJKGrad: Density-Fitted SCF Gradients <==

    Gradient:                    1
    J tasked:                  Yes
    K tasked:                  Yes
    wK tasked:                  No
    OpenMP threads:              4
    Integrals threads:           4
    Memory (MB):              2002
    Schwarz Cutoff:          0E+00
    Fitting Condition:       1E-12

   => Auxiliary Basis Set <=

  Basis Set: (6-31G* AUX)
    Blend: CC-PVDZ-JKFIT
    Number of shells: 297
    Number of basis function: 954
    Number of Cartesian functions: 954
    Spherical Harmonics?: false
    Max angular momentum: 3

  ==> DFT Potential <==

   => Composite Functional: B3LYP-D3ZERO <= 

    B3LYP-d3zero Hyb-GGA Exchange-Correlation Functional

    P. J. Stephens, F. J. Devlin, C. F. Chabalowski, and M. J. Frisch, J. Phys. Chem. 98, 11623 (1994)

    Deriv               =              1
    GGA                 =           TRUE
    Meta                =          FALSE

    Exchange Hybrid     =           TRUE
    MP2 Hybrid          =          FALSE

   => Exchange Functionals <=

    0.0800   Slater exchange
    0.7200         Becke 88

   => Exact (HF) Exchange <=

    0.2000               HF 

   => Correlation Functionals <=

    0.1900   Vosko, Wilk & Nusair (VWN5_RPA)
    0.8100   Lee, Yang & Parr

   => Molecular Quadrature <=

    Radial Scheme       =       TREUTLER
    Pruning Scheme      =           FLAT
    Nuclear Scheme      =       TREUTLER

    BS radius alpha     =              1
    Pruning alpha       =              1
    Radial Points       =             75
    Spherical Points    =            302
    Total Points        =         397094
    Total Blocks        =           2985
    Max Points          =            256
    Max Functions       =            149


  -Total Gradient:
     Atom            X                  Y                   Z
    ------   -----------------  -----------------  -----------------
       1        0.000000009275     0.000000527945    -0.011103499016
       2        0.008160172249     0.000619518077     0.003891639185
       3        0.000499327983     0.001899024342    -0.001649353212
       4       -0.000000001004    -0.000000076284     0.000076719403
       5       -0.000499324280    -0.001898801353    -0.001649220448
       6       -0.008160170991    -0.000620947127     0.003891264779
       7       -0.000000006904     0.000000006507     0.010566101396
       8       -0.003063961275    -0.000098219861     0.000735671257
       9       -0.000868189837    -0.000090659968     0.000121678256
      10       -0.000000000097     0.000000005436     0.000038859593
      11        0.000868188171     0.000090657952     0.000121620526
      12        0.003063947111     0.000098977185     0.000736145601
      13        0.005226259469     0.002938982358    -0.002280439230
      14       -0.005226046496    -0.002939192925    -0.002280763395
      15       -0.001904022402    -0.002966015600     0.001075760333
      16        0.002862747554     0.002999039674    -0.001686352446
      17       -0.002862992415    -0.002998805717    -0.001686664235
      18        0.001904063794     0.002965979367     0.001075776115


*** tstop() called on rosa.prib.upf.edu at Sat Sep 29 20:51:54 2018
Module time:
	user time   =      27.30 seconds =       0.45 minutes
	system time =       0.67 seconds =       0.01 minutes
	total time  =          9 seconds =       0.15 minutes
Total time:
	user time   =     134.52 seconds =       2.24 minutes
	system time =       1.86 seconds =       0.03 minutes
	total time  =         47 seconds =       0.78 minutes

			-----------------------------------------
			 OPTKING 2.0: for geometry optimizations 
			  - R.A. King,  Bethel University        
			-----------------------------------------
	At level 1: Red. Int., RFO, no backsteps, dynamic trust

	Internal coordinates to be generated automatically.
	Detected frag 1 with atoms:  1 2 3 4 5 6 7 8 9 10 11 12 13 14 15 16 17 18
	---Fragment 1 Bond Connectivity---
	 1 : 2 6 7
	 2 : 1 3 8
	 3 : 2 4 9
	 4 : 3 5 10
	 5 : 4 6 11
	 6 : 1 5 12
	 7 : 1 13 14
	 8 : 2
	 9 : 3
	 10 : 4
	 11 : 5
	 12 : 6
	 13 : 7 17 18
	 14 : 7 15 16
	 15 : 14
	 16 : 14
	 17 : 13
	 18 : 13

	Assuming in current code that numbering for constraints corresponds to unified fragment.
	Frozen dihedral atom list: 
	     2     1     7    13
	---Fragment 1 Geometry and Gradient---
	 C           0.0000000000        0.0000000000       -0.3361142489
	 C           0.0693113751        2.3042829136        0.9905282984
	 C           0.0600271506        2.2924645663        3.6196645829
	 C           0.0000000000        0.0000000000        4.9323874075
	 C          -0.0600271506       -2.2924645663        3.6196645829
	 C          -0.0693113751       -2.3042848033        0.9905282984
	 C           0.0000000000        0.0000000000       -3.1080968214
	 H           0.0343363238        4.0906996085       -0.0205110874
	 H           0.0801281675        4.0683819429        4.6447314059
	 H           0.0000000000        0.0000000000        6.9839666940
	 H          -0.0801281675       -4.0683819429        4.6447314059
	 H          -0.0343363238       -4.0906996085       -0.0205091977
	 N           1.8527234055       -1.1452874201       -4.3623571887
	 N          -1.8527234055        1.1452874201       -4.3623571887
	 H          -2.0331374491        1.0503740353       -6.2663261875
	 H          -3.0832318050        2.2698086397       -3.4266706324
	 H           3.0832318050       -2.2698086397       -3.4266725221
	 H           2.0331374491       -1.0503740353       -6.2663261875
	             0.0000000093        0.0000005279       -0.0111034990
	             0.0081601722        0.0006195181        0.0038916392
	             0.0004993280        0.0018990243       -0.0016493532
	            -0.0000000010       -0.0000000763        0.0000767194
	            -0.0004993243       -0.0018988014       -0.0016492204
	            -0.0081601710       -0.0006209471        0.0038912648
	            -0.0000000069        0.0000000065        0.0105661014
	            -0.0030639613       -0.0000982199        0.0007356713
	            -0.0008681898       -0.0000906600        0.0001216783
	            -0.0000000001        0.0000000054        0.0000388596
	             0.0008681882        0.0000906580        0.0001216205
	             0.0030639471        0.0000989772        0.0007361456
	             0.0052262595        0.0029389824       -0.0022804392
	            -0.0052260465       -0.0029391929       -0.0022807634
	            -0.0019040224       -0.0029660156        0.0010757603
	             0.0028627476        0.0029990397       -0.0016863524
	            -0.0028629924       -0.0029988057       -0.0016866642
	             0.0019040638        0.0029659794        0.0010757761

	Previous optimization step data not found.  Starting new optimization.

	---Fragment 1 Intrafragment Coordinates---
	 - Coordinate -           - BOHR/RAD -       - ANG/DEG -
	 R(1,2)           =         2.659794	       1.407502
	 R(1,6)           =         2.659796	       1.407503
	 R(1,7)           =         2.771983	       1.466870
	 R(2,3)           =         2.629179	       1.391302
	 R(2,8)           =         2.052976	       1.086388
	 R(3,4)           =         2.642393	       1.398294
	 R(3,9)           =         2.050622	       1.085142
	 R(4,5)           =         2.642393	       1.398294
	 R(4,10)          =         2.051579	       1.085649
	 R(5,6)           =         2.629179	       1.391302
	 R(5,11)          =         2.050622	       1.085142
	 R(6,12)          =         2.052973	       1.086386
	 R(7,13)          =         2.513451	       1.330061
	 R(7,14)          =         2.513451	       1.330061
	 R(13,17)         =         1.911597	       1.011574
	 R(13,18)         =         1.914851	       1.013296
	 R(14,15)         =         1.914851	       1.013296
	 R(14,16)         =         1.911598	       1.011574
	 B(1,2,3)         =         2.088380	     119.655376
	 B(1,2,8)         =         2.103396	     120.515689
	 B(1,6,5)         =         2.088379	     119.655315
	 B(1,6,12)        =         2.103396	     120.515729
	 B(1,7,13)        =         2.093263	     119.935132
	 B(1,7,14)        =         2.093263	     119.935132
	 B(2,1,6)         =         2.097220	     120.161857
	 B(2,1,7)         =         2.092983	     119.919082
	 B(2,3,4)         =         2.095279	     120.050636
	 B(2,3,9)         =         2.089719	     119.732108
	 B(3,2,8)         =         2.090149	     119.756722
	 B(3,4,5)         =         2.101793	     120.423859
	 B(3,4,10)        =         2.090696	     119.788070
	 B(4,3,9)         =         2.098135	     120.214297
	 B(4,5,6)         =         2.095280	     120.050677
	 B(4,5,11)        =         2.098135	     120.214297
	 B(5,4,10)        =         2.090696	     119.788070
	 B(5,6,12)        =         2.090149	     119.756743
	 B(6,1,7)         =         2.092982	     119.919061
	 B(6,5,11)        =         2.089719	     119.732067
	 B(7,13,17)       =         2.092413	     119.886413
	 B(7,13,18)       =         2.144859	     122.891363
	 B(7,14,15)       =         2.144859	     122.891363
	 B(7,14,16)       =         2.092412	     119.886364
	 B(13,7,14)       =         2.096659	     120.129735
	 B(15,14,16)      =         2.043400	     117.078209
	 B(17,13,18)      =         2.043399	     117.078160
	 D(1,2,3,4)       =         0.007799	       0.446825
	 D(1,2,3,9)       =        -3.122896	    -178.928735
	 D(1,6,5,4)       =         0.007799	       0.446822
	 D(1,6,5,11)      =        -3.122896	    -178.928737
	 D(1,7,13,17)     =         0.187845	      10.762740
	 D(1,7,13,18)     =        -3.032166	    -173.730295
	 D(1,7,14,15)     =        -3.032166	    -173.730295
	 D(1,7,14,16)     =         0.187845	      10.762730
	 D(2,1,6,5)       =        -0.003906	      -0.223802
	 D(2,1,6,12)      =        -3.091437	    -177.126283
	*D(2,1,7,13)      =         2.094395	     119.999974
	 D(2,1,7,14)      =        -1.047198	     -60.000026
	 D(2,3,4,5)       =        -0.003942	      -0.225875
	 D(2,3,4,10)      =         3.137650	     179.774125
	 D(3,2,1,6)       =        -0.003906	      -0.223806
	 D(3,2,1,7)       =         3.137687	     179.776196
	 D(3,4,5,6)       =        -0.003942	      -0.225874
	 D(3,4,5,11)      =         3.126699	     179.146646
	 D(4,3,2,8)       =         3.095744	     177.373058
	 D(4,5,6,12)      =         3.095744	     177.373055
	 D(5,4,3,9)       =         3.126699	     179.146646
	 D(5,6,1,7)       =         3.137687	     179.776197
	 D(6,1,2,8)       =        -3.091437	    -177.126287
	 D(6,1,7,13)      =        -1.047198	     -60.000024
	 D(6,1,7,14)      =         2.094395	     119.999976
	 D(6,5,4,10)      =         3.137650	     179.774126
	 D(7,1,2,8)       =         0.050156	       2.873714
	 D(7,1,6,12)      =         0.050156	       2.873716
	 D(8,2,3,9)       =        -0.034950	      -2.002503
	 D(9,3,4,10)      =        -0.014894	      -0.853354
	 D(10,4,5,11)     =        -0.014894	      -0.853354
	 D(11,5,6,12)     =        -0.034950	      -2.002504
	 D(13,7,14,15)    =         0.109427	       6.269705
	 D(13,7,14,16)    =        -2.953748	    -169.237270
	 D(14,7,13,17)    =        -2.953747	    -169.237260
	 D(14,7,13,18)    =         0.109427	       6.269705

	Current energy   :      -381.4638933310

	Generating empirical Hessian (Schlegel '84) for each fragment.
	Taking RFO optimization step.
	Going to follow RFO solution 1.
	Using RFO vector 1.
	Norm of target step-size    0.43268
	Projected energy change by RFO approximation:        -0.0021032513

	Back-transformation to cartesian coordinates...
	Could not converge backtransformation.
	Using first guess instead.

	Back-transformation to cartesian coordinates to adjust frozen coordinates...
	Successfully converged to displaced geometry.

	--- Internal Coordinate Step in ANG or DEG, aJ/ANG or AJ/DEG ---
	 ---------------------------------------------------------------------------
	   Coordinate                Previous        Force       Change         New 
	   ----------                --------       ------       ------       ------
	    1 R(1,2)          =      1.407502    -0.025398    -0.003684     1.403818
	    2 R(1,6)          =      1.407503    -0.025406    -0.002979     1.404524
	    3 R(1,7)          =      1.466870     0.039425     0.006977     1.473847
	    4 R(2,3)          =      1.391302     0.012111     0.002006     1.393307
	    5 R(2,8)          =      1.086388     0.003260     0.001573     1.087960
	    6 R(3,4)          =      1.398294    -0.005442    -0.000542     1.397752
	    7 R(3,9)          =      1.085142     0.000215     0.000466     1.085609
	    8 R(4,5)          =      1.398294    -0.005445    -0.000619     1.397675
	    9 R(4,10)         =      1.085649    -0.000322     0.000017     1.085666
	   10 R(5,6)          =      1.391302     0.012103     0.001648     1.392950
	   11 R(5,11)         =      1.085142     0.000215     0.000095     1.085237
	   12 R(6,12)         =      1.086386     0.003267     0.001466     1.087853
	   13 R(7,13)         =      1.330061    -0.026889    -0.002703     1.327358
	   14 R(7,14)         =      1.330061    -0.026889    -0.002178     1.327883
	   15 R(13,17)        =      1.011574     0.007451     0.006998     1.018571
	   16 R(13,18)        =      1.013296     0.006125     0.003974     1.017270
	   17 R(14,15)        =      1.013296     0.006125     0.007581     1.020877
	   18 R(14,16)        =      1.011574     0.007447     0.006880     1.018454
	   19 B(1,2,3)        =    119.655376    -0.000092    -0.310229   119.345147
	   20 B(1,2,8)        =    120.515689     0.000007     0.014085   120.529774
	   21 B(1,6,5)        =    119.655315    -0.000091    -0.309321   119.345993
	   22 B(1,6,12)       =    120.515729     0.000008    -0.063994   120.451735
	   23 B(1,7,13)       =    119.935132    -0.000137    -0.408307   119.526825
	   24 B(1,7,14)       =    119.935132    -0.000137    -0.415389   119.519743
	   25 B(2,1,6)        =    120.161857     0.000191     0.510690   120.672547
	   26 B(2,1,7)        =    119.919082    -0.000095    -0.257136   119.661946
	   27 B(2,3,4)        =    120.050636     0.000014     0.079806   120.130442
	   28 B(2,3,9)        =    119.732108    -0.000020    -0.071396   119.660712
	   29 B(3,2,8)        =    119.756722     0.000091     0.348005   120.104726
	   30 B(3,4,5)        =    120.423859    -0.000036    -0.067818   120.356042
	   31 B(3,4,10)       =    119.788070     0.000018     0.038405   119.826476
	   32 B(4,3,9)        =    120.214297     0.000006    -0.006808   120.207488
	   33 B(4,5,6)        =    120.050677     0.000014     0.073139   120.123816
	   34 B(4,5,11)       =    120.214297     0.000006     0.022011   120.236307
	   35 B(5,4,10)       =    119.788070     0.000018     0.028769   119.816839
	   36 B(5,6,12)       =    119.756743     0.000091     0.417312   120.174055
	   37 B(6,1,7)        =    119.919061    -0.000095    -0.294005   119.625057
	   38 B(6,5,11)       =    119.732067    -0.000020    -0.092328   119.639738
	   39 B(7,13,17)      =    119.886413    -0.000065    -0.408244   119.478169
	   40 B(7,13,18)      =    122.891363     0.000041     0.077486   122.968848
	   41 B(7,14,15)      =    122.891363     0.000041     0.202911   123.094274
	   42 B(7,14,16)      =    119.886364    -0.000065    -0.696751   119.189613
	   43 B(13,7,14)      =    120.129735     0.000274     0.784439   120.914175
	   44 B(15,14,16)     =    117.078209     0.000027     0.569902   117.648111
	   45 B(17,13,18)     =    117.078160     0.000027     0.407534   117.485694
	   46 D(1,2,3,4)      =      0.446825    -0.000009    -1.223937    -0.777112
	   47 D(1,2,3,9)      =   -178.928735    -0.000017    -2.271313  -181.200049
	   48 D(1,6,5,4)      =      0.446822    -0.000014    -2.085178    -1.638356
	   49 D(1,6,5,11)     =   -178.928737    -0.000020    -2.844568  -181.773306
	   50 D(1,7,13,17)    =     10.762740    -0.000056    -6.799405     3.963335
	   51 D(1,7,13,18)    =   -173.730295    -0.000044    -5.366619  -179.096914
	   52 D(1,7,14,15)    =   -173.730295    -0.000057    -7.585902  -181.316197
	   53 D(1,7,14,16)    =     10.762730    -0.000069    -9.006937     1.755793
	   54 D(2,1,6,5)      =     -0.223802     0.000012     1.918081     1.694279
	   55 D(2,1,6,12)     =   -177.126283    -0.000024    -3.108102  -180.234384
	   56 *D(2,1,7,13)    =    119.999974    -0.000000     0.000000   119.999974
	   57 D(2,1,7,14)     =    -60.000026     0.000013     2.257612   -57.742414
	   58 D(2,3,4,5)      =     -0.225875     0.000007     1.057411     0.831535
	   59 D(2,3,4,10)     =    179.774125     0.000006     0.765183   180.539308
	   60 D(3,2,1,6)      =     -0.223806     0.000000    -0.262891    -0.486697
	   61 D(3,2,1,7)      =    179.776196     0.000012     2.058935   181.835130
	   62 D(3,4,5,6)      =     -0.225874     0.000005     0.618874     0.393000
	   63 D(3,4,5,11)     =    179.146646     0.000010     1.382115   180.528761
	   64 D(4,3,2,8)      =    177.373058     0.000024     3.481972   180.855030
	   65 D(4,5,6,12)     =    177.373055     0.000020     2.911793   180.284849
	   66 D(5,4,3,9)      =    179.146646     0.000014     2.110156   181.256802
	   67 D(5,6,1,7)      =    179.776197    -0.000001    -0.402894   179.373304
	   68 D(6,1,2,8)      =   -177.126287    -0.000034    -4.999649  -182.125936
	   69 D(6,1,7,13)     =    -60.000024     0.000012     2.297287   -57.702737
	   70 D(6,1,7,14)     =    119.999976     0.000025     4.554899   124.554875
	   71 D(6,5,4,10)     =    179.774126     0.000006     0.911073   180.685199
	   72 D(7,1,2,8)      =      2.873714    -0.000021    -2.677823     0.195891
	   73 D(7,1,6,12)     =      2.873716    -0.000036    -5.429076    -2.555360
	   74 D(8,2,3,9)      =     -2.002503     0.000016     2.434596     0.432093
	   75 D(9,3,4,10)     =     -0.853354     0.000013     1.817929     0.964575
	   76 D(10,4,5,11)    =     -0.853354     0.000012     1.674314     0.820960
	   77 D(11,5,6,12)    =     -2.002504     0.000015     2.152403     0.149899
	   78 D(13,7,14,15)   =      6.269705    -0.000044    -5.296203     0.973502
	   79 D(13,7,14,16)   =   -169.237270    -0.000056    -6.717238  -175.954508
	   80 D(14,7,13,17)   =   -169.237260    -0.000069    -9.089264  -178.326524
	   81 D(14,7,13,18)   =      6.269705    -0.000057    -7.656479    -1.386773
	 ---------------------------------------------------------------------------
	Successfully symmetrized geometry.

  ==> Convergence Check <==

  Measures of convergence in internal coordinates in au.
  Criteria marked as inactive (o), active & met (*), and active & unmet ( ).
  --------------------------------------------------------------------------------------------- ~
   Step     Total Energy     Delta E     MAX Force     RMS Force      MAX Disp      RMS Disp    ~
  --------------------------------------------------------------------------------------------- ~
    Convergence Criteria    1.00e-06 *    3.00e-04 *             o    1.20e-03 *             o  ~
  --------------------------------------------------------------------------------------------- ~
      1    -381.46389333   -3.81e+02      4.79e-03      1.65e-03 o    1.59e-01      4.79e-02 o  ~
  ---------------------------------------------------------------------------------------------

	Writing optimization data to binary file.
	Structure for next step:
	Cartesian Geometry (in Angstrom)
	    C    -0.0297640284  -0.0078474809  -0.1764563325
	    C    -0.0024894681   1.2138974890   0.5144127936
	    C     0.0246152881   1.2101361863   1.9074513168
	    C     0.0081507178  -0.0002746605   2.6062690782
	    C    -0.0180443611  -1.2147192483   1.9149416749
	    C    -0.0196619281  -1.2263247121   0.5220407644
	    C    -0.0175174774  -0.0128043433  -1.6502443867
	    H     0.0243758217   2.1558278343  -0.0293734274
	    H     0.0655249479   2.1515545269   2.4465283360
	    H     0.0205518911   0.0027520086   3.6918601353
	    H    -0.0394450188  -2.1531934861   2.4595029623
	    H    -0.0447154575  -2.1709819769  -0.0168646708
	    N     0.9721031201  -0.6193428161  -2.2941703803
	    N    -0.9721417816   0.6279349287  -2.3146370737
	    H    -1.0057213642   0.6763089495  -3.3338143679
	    H    -1.6843121604   1.1364889429  -1.7936431728
	    H     1.6788239895  -1.1261333515  -1.7638905283
	    H     1.0396672694  -0.6432797905  -3.3089117210
			--------------------------
			 OPTKING Finished Execution 
			--------------------------

    Structure for next step:
    Molecular point group: c1
    Full point group: C1

    Geometry (in Angstrom), charge = 1, multiplicity = 1:

    C           -0.029764028450    -0.007847480857    -0.176456332520
    C           -0.002489468110     1.213897488951     0.514412793617
    C            0.024615288146     1.210136186315     1.907451316755
    C            0.008150717835    -0.000274660462     2.606269078207
    C           -0.018044361119    -1.214719248348     1.914941674888
    C           -0.019661928104    -1.226324712106     0.522040764415
    C           -0.017517477376    -0.012804343273    -1.650244386686
    H            0.024375821737     2.155827834257    -0.029373427425
    H            0.065524947883     2.151554526875     2.446528335995
    H            0.020551891115     0.002752008608     3.691860135344
    H           -0.039445018846    -2.153193486071     2.459502962261
    H           -0.044715457523    -2.170981976893    -0.016864670836
    N            0.972103120123    -0.619342816095    -2.294170380291
    N           -0.972141781580     0.627934928695    -2.314637073727
    H           -1.005721364189     0.676308949468    -3.333814367872
    H           -1.684312160395     1.136488942943    -1.793643172833
    H            1.678823989458    -1.126133351541    -1.763890528256
    H            1.039667269394    -0.643279790466    -3.308911721035

gradient() will perform analytic gradient computation.

*** tstart() called on rosa.prib.upf.edu
*** at Sat Sep 29 20:51:54 2018

   => Loading Basis Set <=

    Name: 6-31G*
    Role: ORBITAL
    Keyword: BASIS
    atoms 1-7         entry C          line   111 file /shared/joao/test_parameterize/miniconda3/share/psi4/basis/6-31gs.gbs 
    atoms 8-12, 15-18 entry H          line    44 file /shared/joao/test_parameterize/miniconda3/share/psi4/basis/6-31gs.gbs 
    atoms 13-14       entry N          line   128 file /shared/joao/test_parameterize/miniconda3/share/psi4/basis/6-31gs.gbs 


         ---------------------------------------------------------
                                   SCF
            by Justin Turney, Rob Parrish, Andy Simmonett
                             and Daniel Smith
                              RKS Reference
                        4 Threads,   2861 MiB Core
         ---------------------------------------------------------

  ==> Geometry <==

    Molecular point group: c1
    Full point group: C1

    Geometry (in Angstrom), charge = 1, multiplicity = 1:

       Center              X                  Y                   Z               Mass       
    ------------   -----------------  -----------------  -----------------  -----------------
         C           -0.029764028450    -0.007847480857    -0.176456332520    12.000000000000
         C           -0.002489468110     1.213897488951     0.514412793617    12.000000000000
         C            0.024615288146     1.210136186315     1.907451316755    12.000000000000
         C            0.008150717835    -0.000274660462     2.606269078207    12.000000000000
         C           -0.018044361119    -1.214719248348     1.914941674888    12.000000000000
         C           -0.019661928104    -1.226324712106     0.522040764415    12.000000000000
         C           -0.017517477376    -0.012804343273    -1.650244386686    12.000000000000
         H            0.024375821737     2.155827834257    -0.029373427425     1.007825032070
         H            0.065524947883     2.151554526875     2.446528335995     1.007825032070
         H            0.020551891115     0.002752008608     3.691860135344     1.007825032070
         H           -0.039445018846    -2.153193486071     2.459502962261     1.007825032070
         H           -0.044715457523    -2.170981976893    -0.016864670836     1.007825032070
         N            0.972103120123    -0.619342816095    -2.294170380291    14.003074004780
         N           -0.972141781580     0.627934928695    -2.314637073727    14.003074004780
         H           -1.005721364189     0.676308949468    -3.333814367872     1.007825032070
         H           -1.684312160395     1.136488942943    -1.793643172833     1.007825032070
         H            1.678823989458    -1.126133351541    -1.763890528256     1.007825032070
         H            1.039667269394    -0.643279790466    -3.308911721035     1.007825032070

  Running in c1 symmetry.

  Rotational constants: A =      0.12177  B =      0.03828  C =      0.03231 [cm^-1]
  Rotational constants: A =   3650.44387  B =   1147.51557  C =    968.52906 [MHz]
  Nuclear repulsion =  416.426678203264657

  Charge       = 1
  Multiplicity = 1
  Electrons    = 64
  Nalpha       = 32
  Nbeta        = 32

  ==> Algorithm <==

  SCF Algorithm Type is DF.
  DIIS enabled.
  MOM disabled.
  Fractional occupation disabled.
  Guess Type is READ.
  Energy threshold   = 1.00e-08
  Density threshold  = 1.00e-08
  Integral threshold = 0.00e+00

  ==> Primary Basis <==

  Basis Set: 6-31G*
    Blend: 6-31G*
    Number of shells: 72
    Number of basis function: 153
    Number of Cartesian functions: 153
    Spherical Harmonics?: false
    Max angular momentum: 2

  ==> DFT Potential <==

   => Composite Functional: B3LYP-D3ZERO <= 

    B3LYP-d3zero Hyb-GGA Exchange-Correlation Functional

    P. J. Stephens, F. J. Devlin, C. F. Chabalowski, and M. J. Frisch, J. Phys. Chem. 98, 11623 (1994)

    Deriv               =              1
    GGA                 =           TRUE
    Meta                =          FALSE

    Exchange Hybrid     =           TRUE
    MP2 Hybrid          =          FALSE

   => Exchange Functionals <=

    0.0800   Slater exchange
    0.7200         Becke 88

   => Exact (HF) Exchange <=

    0.2000               HF 

   => Correlation Functionals <=

    0.1900   Vosko, Wilk & Nusair (VWN5_RPA)
    0.8100   Lee, Yang & Parr

   => Molecular Quadrature <=

    Radial Scheme       =       TREUTLER
    Pruning Scheme      =           FLAT
    Nuclear Scheme      =       TREUTLER

    BS radius alpha     =              1
    Pruning alpha       =              1
    Radial Points       =             75
    Spherical Points    =            302
    Total Points        =         397121
    Total Blocks        =           2995
    Max Points          =            256
    Max Functions       =            148

   => -D3ZERO: Empirical Dispersion <=

    Grimme's -D3 (zero-damping) Dispersion Correction
    Grimme S.; Antony J.; Ehrlich S.; Krieg H. (2010), J. Chem. Phys., 132: 154104

        S6 =   1.000000E+00
        S8 =   1.703000E+00
       SR6 =   1.261000E+00
       SR8 =   1.000000E+00
    ALPHA6 =   1.400000E+01

   => Loading Basis Set <=

    Name: (6-31G* AUX)
    Role: JKFIT
    Keyword: DF_BASIS_SCF
    atoms 1-7         entry C          line   121 file /shared/joao/test_parameterize/miniconda3/share/psi4/basis/cc-pvdz-jkfit.gbs 
    atoms 8-12, 15-18 entry H          line    51 file /shared/joao/test_parameterize/miniconda3/share/psi4/basis/cc-pvdz-jkfit.gbs 
    atoms 13-14       entry N          line   171 file /shared/joao/test_parameterize/miniconda3/share/psi4/basis/cc-pvdz-jkfit.gbs 

  Reading orbitals from file 180, no projection.

  ==> Pre-Iterations <==

   -------------------------------------------------------
    Irrep   Nso     Nmo     Nalpha   Nbeta   Ndocc  Nsocc
   -------------------------------------------------------
     A        153     153       0       0       0       0
   -------------------------------------------------------
    Total     153     153      32      32      32       0
   -------------------------------------------------------

  ==> Integral Setup <==

  ==> DiskDFJK: Density-Fitted J/K Matrices <==

    J tasked:                  Yes
    K tasked:                  Yes
    wK tasked:                  No
    OpenMP threads:              4
    Integrals threads:           4
    Memory (MB):              2002
    Algorithm:                Core
    Integral Cache:           NONE
    Schwarz Cutoff:          1E-12
    Fitting Condition:       1E-12

   => Auxiliary Basis Set <=

  Basis Set: (6-31G* AUX)
    Blend: CC-PVDZ-JKFIT
    Number of shells: 297
    Number of basis function: 954
    Number of Cartesian functions: 954
    Spherical Harmonics?: false
    Max angular momentum: 3

  Minimum eigenvalue in the overlap matrix is 4.8650779815E-04.
  Using Symmetric Orthogonalization.

  SCF Guess: Orbitals guess was supplied from a previous computation.

  ==> Iterations <==

                           Total Energy        Delta E     RMS |[F,P]|

   @DF-RKS iter   0:  -381.45083827829450   -3.81451e+02   9.67835e-04 
   @DF-RKS iter   1:  -381.46699107121299   -1.61528e-02   1.09619e-04 
   @DF-RKS iter   2:  -381.46699939825157   -8.32704e-06   1.29991e-04 DIIS
   @DF-RKS iter   3:  -381.46710073952227   -1.01341e-04   4.19385e-05 DIIS
   @DF-RKS iter   4:  -381.46711048977943   -9.75026e-06   1.69637e-05 DIIS
   @DF-RKS iter   5:  -381.46711208040699   -1.59063e-06   3.87996e-06 DIIS
   @DF-RKS iter   6:  -381.46711216871364   -8.83066e-08   1.12051e-06 DIIS
   @DF-RKS iter   7:  -381.46711217510290   -6.38926e-09   3.31636e-07 DIIS
   @DF-RKS iter   8:  -381.46711217562876   -5.25858e-10   1.27015e-07 DIIS
   @DF-RKS iter   9:  -381.46711217571152   -8.27640e-11   4.31966e-08 DIIS
   @DF-RKS iter  10:  -381.46711217571726   -5.74119e-12   7.00018e-09 DIIS

  ==> Post-Iterations <==

    Orbital Energies [Eh]
    ---------------------

    Doubly Occupied:                                                      

       1A    -14.573570     2A    -14.573472     3A    -10.500681  
       4A    -10.370869     5A    -10.352518     6A    -10.352090  
       7A    -10.337357     8A    -10.336832     9A    -10.336533  
      10A     -1.186799    11A     -1.094641    12A     -1.011454  
      13A     -0.924165    14A     -0.898234    15A     -0.844224  
      16A     -0.786478    17A     -0.769112    18A     -0.747776  
      19A     -0.729901    20A     -0.687661    21A     -0.667847  
      22A     -0.622133    23A     -0.620438    24A     -0.581883  
      25A     -0.575760    26A     -0.570247    27A     -0.516608  
      28A     -0.501342    29A     -0.494547    30A     -0.475444  
      31A     -0.407342    32A     -0.401726  

    Virtual:                                                              

      33A     -0.205050    34A     -0.154125    35A     -0.148682  
      36A     -0.112580    37A     -0.067733    38A     -0.066502  
      39A     -0.038768    40A     -0.034645    41A      0.007554  
      42A      0.016692    43A      0.022394    44A      0.057196  
      45A      0.061324    46A      0.075459    47A      0.135844  
      48A      0.145973    49A      0.161380    50A      0.170402  
      51A      0.200427    52A      0.231219    53A      0.294824  
      54A      0.344396    55A      0.357200    56A      0.383173  
      57A      0.387128    58A      0.398566    59A      0.410670  
      60A      0.425641    61A      0.447048    62A      0.447922  
      63A      0.450538    64A      0.467979    65A      0.474364  
      66A      0.478786    67A      0.484463    68A      0.508867  
      69A      0.513213    70A      0.537311    71A      0.541977  
      72A      0.572964    73A      0.595485    74A      0.650129  
      75A      0.658817    76A      0.678261    77A      0.680019  
      78A      0.697826    79A      0.706459    80A      0.709192  
      81A      0.729632    82A      0.756492    83A      0.777662  
      84A      0.795653    85A      0.812330    86A      0.834047  
      87A      0.851411    88A      0.938237    89A      0.970353  
      90A      1.000977    91A      1.009720    92A      1.026750  
      93A      1.036648    94A      1.074972    95A      1.147133  
      96A      1.194719    97A      1.215337    98A      1.283239  
      99A      1.293598   100A      1.319856   101A      1.322853  
     102A      1.342432   103A      1.359148   104A      1.376658  
     105A      1.430948   106A      1.448479   107A      1.491289  
     108A      1.591658   109A      1.640633   110A      1.645981  
     111A      1.670083   112A      1.738760   113A      1.760723  
     114A      1.794610   115A      1.828782   116A      1.853993  
     117A      1.899177   118A      1.911434   119A      1.961890  
     120A      1.981470   121A      2.000142   122A      2.010110  
     123A      2.042167   124A      2.096043   125A      2.122552  
     126A      2.137669   127A      2.154803   128A      2.169265  
     129A      2.224736   130A      2.263254   131A      2.371215  
     132A      2.374263   133A      2.419520   134A      2.451262  
     135A      2.497455   136A      2.562813   137A      2.568315  
     138A      2.592029   139A      2.599655   140A      2.629176  
     141A      2.727387   142A      2.883889   143A      2.947024  
     144A      3.260104   145A      3.632882   146A      3.644960  
     147A      3.933941   148A      3.962651   149A      3.968792  
     150A      4.085462   151A      4.182952   152A      4.259507  
     153A      4.548887  

    Final Occupation by Irrep:
              A 
    DOCC [    32 ]

  Energy converged.

  @DF-RKS Final Energy:  -381.46711217571726

   => Energetics <=

    Nuclear Repulsion Energy =            416.4266782032646574
    One-Electron Energy =               -1328.1473036919790047
    Two-Electron Energy =                 574.6613318186757624
    DFT Exchange-Correlation Energy =     -44.3959090856785963
    Empirical Dispersion Energy =          -0.0119094200000000
    VV10 Nonlocal Energy =                  0.0000000000000000
    Total Energy =                       -381.4671121757172045



Properties will be evaluated at   0.000000,   0.000000,   0.000000 [a0]

Properties computed using the SCF density matrix

  Nuclear Dipole Moment: [e a0]
     X:    -0.5174      Y:    -0.2610      Z:    -0.1507

  Electronic Dipole Moment: [e a0]
     X:     0.5352      Y:     0.2716      Z:    -2.2788

  Dipole Moment: [e a0]
     X:     0.0178      Y:     0.0106      Z:    -2.4296     Total:     2.4296

  Dipole Moment: [D]
     X:     0.0453      Y:     0.0269      Z:    -6.1753     Total:     6.1755


*** tstop() called on rosa.prib.upf.edu at Sat Sep 29 20:52:22 2018
Module time:
	user time   =      80.13 seconds =       1.34 minutes
	system time =       0.83 seconds =       0.01 minutes
	total time  =         28 seconds =       0.47 minutes
Total time:
	user time   =     215.44 seconds =       3.59 minutes
	system time =       2.75 seconds =       0.05 minutes
	total time  =         75 seconds =       1.25 minutes

*** tstart() called on rosa.prib.upf.edu
*** at Sat Sep 29 20:52:22 2018


         ------------------------------------------------------------
                                   SCF GRAD                          
                          Rob Parrish, Justin Turney,                
                       Andy Simmonett, and Alex Sokolov              
         ------------------------------------------------------------

  ==> Geometry <==

    Molecular point group: c1
    Full point group: C1

    Geometry (in Angstrom), charge = 1, multiplicity = 1:

       Center              X                  Y                   Z               Mass       
    ------------   -----------------  -----------------  -----------------  -----------------
         C           -0.029764028450    -0.007847480857    -0.176456332520    12.000000000000
         C           -0.002489468110     1.213897488951     0.514412793617    12.000000000000
         C            0.024615288146     1.210136186315     1.907451316755    12.000000000000
         C            0.008150717835    -0.000274660462     2.606269078207    12.000000000000
         C           -0.018044361119    -1.214719248348     1.914941674888    12.000000000000
         C           -0.019661928104    -1.226324712106     0.522040764415    12.000000000000
         C           -0.017517477376    -0.012804343273    -1.650244386686    12.000000000000
         H            0.024375821737     2.155827834257    -0.029373427425     1.007825032070
         H            0.065524947883     2.151554526875     2.446528335995     1.007825032070
         H            0.020551891115     0.002752008608     3.691860135344     1.007825032070
         H           -0.039445018846    -2.153193486071     2.459502962261     1.007825032070
         H           -0.044715457523    -2.170981976893    -0.016864670836     1.007825032070
         N            0.972103120123    -0.619342816095    -2.294170380291    14.003074004780
         N           -0.972141781580     0.627934928695    -2.314637073727    14.003074004780
         H           -1.005721364189     0.676308949468    -3.333814367872     1.007825032070
         H           -1.684312160395     1.136488942943    -1.793643172833     1.007825032070
         H            1.678823989458    -1.126133351541    -1.763890528256     1.007825032070
         H            1.039667269394    -0.643279790466    -3.308911721035     1.007825032070

  Nuclear repulsion =  416.426678203264657

  ==> Basis Set <==

  Basis Set: 6-31G*
    Blend: 6-31G*
    Number of shells: 72
    Number of basis function: 153
    Number of Cartesian functions: 153
    Spherical Harmonics?: false
    Max angular momentum: 2

  ==> DFJKGrad: Density-Fitted SCF Gradients <==

    Gradient:                    1
    J tasked:                  Yes
    K tasked:                  Yes
    wK tasked:                  No
    OpenMP threads:              4
    Integrals threads:           4
    Memory (MB):              2002
    Schwarz Cutoff:          0E+00
    Fitting Condition:       1E-12

   => Auxiliary Basis Set <=

  Basis Set: (6-31G* AUX)
    Blend: CC-PVDZ-JKFIT
    Number of shells: 297
    Number of basis function: 954
    Number of Cartesian functions: 954
    Spherical Harmonics?: false
    Max angular momentum: 3

  ==> DFT Potential <==

   => Composite Functional: B3LYP-D3ZERO <= 

    B3LYP-d3zero Hyb-GGA Exchange-Correlation Functional

    P. J. Stephens, F. J. Devlin, C. F. Chabalowski, and M. J. Frisch, J. Phys. Chem. 98, 11623 (1994)

    Deriv               =              1
    GGA                 =           TRUE
    Meta                =          FALSE

    Exchange Hybrid     =           TRUE
    MP2 Hybrid          =          FALSE

   => Exchange Functionals <=

    0.0800   Slater exchange
    0.7200         Becke 88

   => Exact (HF) Exchange <=

    0.2000               HF 

   => Correlation Functionals <=

    0.1900   Vosko, Wilk & Nusair (VWN5_RPA)
    0.8100   Lee, Yang & Parr

   => Molecular Quadrature <=

    Radial Scheme       =       TREUTLER
    Pruning Scheme      =           FLAT
    Nuclear Scheme      =       TREUTLER

    BS radius alpha     =              1
    Pruning alpha       =              1
    Radial Points       =             75
    Spherical Points    =            302
    Total Points        =         397121
    Total Blocks        =           2995
    Max Points          =            256
    Max Functions       =            148


  -Total Gradient:
     Atom            X                  Y                   Z
    ------   -----------------  -----------------  -----------------
       1       -0.002168095715     0.002046792508    -0.001621389714
       2        0.002754779537    -0.001640143233     0.000692098779
       3        0.000000446124    -0.000020966606    -0.000280883928
       4       -0.000126844623    -0.000166294074     0.000326837063
       5       -0.000079219138     0.000211254660    -0.000120452852
       6       -0.000738881994     0.000798659796     0.000749433795
       7       -0.001564121693    -0.004624682908     0.003047979883
       8       -0.000001851992     0.000896525479    -0.000257315855
       9        0.000226904308     0.000168834604     0.000194505525
      10        0.000052749378    -0.000015450731     0.000071734534
      11       -0.000242106850     0.000013159556    -0.000019384582
      12        0.000316615326    -0.000766828382    -0.000314798335
      13        0.000056067662     0.006486698376    -0.000930669841
      14        0.000698269891    -0.003996078865     0.001179989871
      15       -0.000393109063    -0.001586334066    -0.005945557813
      16       -0.002059311444     0.004536274238     0.003191474151
      17        0.002757234510    -0.004249364868     0.002786495967
      18        0.000500419855     0.001913698807    -0.002747471744


*** tstop() called on rosa.prib.upf.edu at Sat Sep 29 20:52:30 2018
Module time:
	user time   =      25.61 seconds =       0.43 minutes
	system time =       0.51 seconds =       0.01 minutes
	total time  =          8 seconds =       0.13 minutes
Total time:
	user time   =     241.14 seconds =       4.02 minutes
	system time =       3.27 seconds =       0.05 minutes
	total time  =         83 seconds =       1.38 minutes

			-----------------------------------------
			 OPTKING 2.0: for geometry optimizations 
			  - R.A. King,  Bethel University        
			-----------------------------------------
	At level 1: Red. Int., RFO, no backsteps, dynamic trust

	Previous internal coordinate definitions found.
	---Fragment 1 Geometry and Gradient---
	 C          -0.0562458624       -0.0148295897       -0.3334541429
	 C          -0.0047044129        2.2939338075        0.9720992992
	 C           0.0465161533        2.2868259756        3.6045606005
	 C           0.0154026245       -0.0005190331        4.9251347864
	 C          -0.0340989008       -2.2954867077        3.6187153260
	 C          -0.0371556594       -2.3174178559        0.9865140749
	 C          -0.0331032348       -0.0241967021       -3.1185099432
	 H           0.0460636273        4.0739241964       -0.0555077334
	 H           0.1238242064        4.0658488158        4.6232685314
	 H           0.0388374457        0.0052005426        6.9766045767
	 H          -0.0745402829       -4.0689459998        4.6477870217
	 H          -0.0844999686       -4.1025613758       -0.0318696092
	 N           1.8370086700       -1.1703883048       -4.3353537209
	 N          -1.8370817295        1.1866250445       -4.3740301664
	 H          -1.9005379443        1.2780386957       -6.2999961332
	 H          -3.1828887054        2.1476528552       -3.3894943768
	 H           3.1725175654       -2.1280836235       -3.3332700268
	 H           1.9646864085       -1.2156226308       -6.2529369507
	            -0.0021680957        0.0020467925       -0.0016213897
	             0.0027547795       -0.0016401432        0.0006920988
	             0.0000004461       -0.0000209666       -0.0002808839
	            -0.0001268446       -0.0001662941        0.0003268371
	            -0.0000792191        0.0002112547       -0.0001204529
	            -0.0007388820        0.0007986598        0.0007494338
	            -0.0015641217       -0.0046246829        0.0030479799
	            -0.0000018520        0.0008965255       -0.0002573159
	             0.0002269043        0.0001688346        0.0001945055
	             0.0000527494       -0.0000154507        0.0000717345
	            -0.0002421068        0.0000131596       -0.0000193846
	             0.0003166153       -0.0007668284       -0.0003147983
	             0.0000560677        0.0064866984       -0.0009306698
	             0.0006982699       -0.0039960789        0.0011799899
	            -0.0003931091       -0.0015863341       -0.0059455578
	            -0.0020593114        0.0045362742        0.0031914742
	             0.0027572345       -0.0042493649        0.0027864960
	             0.0005004199        0.0019136988       -0.0027474717

	---Fragment 1 Intrafragment Coordinates---
	 - Coordinate -           - BOHR/RAD -       - ANG/DEG -
	 R(1,2)           =         2.652831	       1.403818
	 R(1,6)           =         2.654165	       1.404524
	 R(1,7)           =         2.785168	       1.473847
	 R(2,3)           =         2.632969	       1.393307
	 R(2,8)           =         2.055947	       1.087960
	 R(3,4)           =         2.641369	       1.397752
	 R(3,9)           =         2.051503	       1.085609
	 R(4,5)           =         2.641223	       1.397675
	 R(4,10)          =         2.051612	       1.085666
	 R(5,6)           =         2.632294	       1.392950
	 R(5,11)          =         2.050800	       1.085237
	 R(6,12)          =         2.055744	       1.087853
	 R(7,13)          =         2.508343	       1.327358
	 R(7,14)          =         2.509334	       1.327883
	 R(13,17)         =         1.924821	       1.018571
	 R(13,18)         =         1.922361	       1.017270
	 R(14,15)         =         1.929178	       1.020877
	 R(14,16)         =         1.924599	       1.018454
	 B(1,2,3)         =         2.082966	     119.345147
	 B(1,2,8)         =         2.103641	     120.529774
	 B(1,6,5)         =         2.082981	     119.345993
	 B(1,6,12)        =         2.102279	     120.451735
	 B(1,7,13)        =         2.086137	     119.526825
	 B(1,7,14)        =         2.086013	     119.519743
	 B(2,1,6)         =         2.106133	     120.672547
	 B(2,1,7)         =         2.088495	     119.661946
	 B(2,3,4)         =         2.096672	     120.130442
	 B(2,3,9)         =         2.088473	     119.660712
	 B(3,2,8)         =         2.096223	     120.104726
	 B(3,4,5)         =         2.100609	     120.356042
	 B(3,4,10)        =         2.091367	     119.826476
	 B(4,3,9)         =         2.098016	     120.207488
	 B(4,5,6)         =         2.096556	     120.123816
	 B(4,5,11)        =         2.098519	     120.236307
	 B(5,4,10)        =         2.091198	     119.816839
	 B(5,6,12)        =         2.097433	     120.174055
	 B(6,1,7)         =         2.087851	     119.625057
	 B(6,5,11)        =         2.088107	     119.639738
	 B(7,13,17)       =         2.085287	     119.478169
	 B(7,13,18)       =         2.146211	     122.968848
	 B(7,14,15)       =         2.148400	     123.094274
	 B(7,14,16)       =         2.080251	     119.189613
	 B(13,7,14)       =         2.110350	     120.914175
	 B(15,14,16)      =         2.053347	     117.648111
	 B(17,13,18)      =         2.050512	     117.485694
	 D(1,2,3,4)       =        -0.013563	      -0.777112
	 D(1,2,3,9)       =         3.120648	     178.799951
	 D(1,6,5,4)       =        -0.028595	      -1.638356
	 D(1,6,5,11)      =         3.110643	     178.226694
	 D(1,7,13,17)     =         0.069173	       3.963335
	 D(1,7,13,18)     =        -3.125831	    -179.096914
	 D(1,7,14,15)     =         3.118621	     178.683803
	 D(1,7,14,16)     =         0.030644	       1.755793
	 D(2,1,6,5)       =         0.029571	       1.694279
	 D(2,1,6,12)      =         3.137502	     179.765616
	*D(2,1,7,13)      =         2.094395	     119.999974
	 D(2,1,7,14)      =        -1.007795	     -57.742414
	 D(2,3,4,5)       =         0.014513	       0.831535
	 D(2,3,4,10)      =        -3.132180	    -179.460692
	 D(3,2,1,6)       =        -0.008494	      -0.486697
	 D(3,2,1,7)       =        -3.109564	    -178.164870
	 D(3,4,5,6)       =         0.006859	       0.393000
	 D(3,4,5,11)      =        -3.132364	    -179.471239
	 D(4,3,2,8)       =        -3.126670	    -179.144970
	 D(4,5,6,12)      =        -3.136621	    -179.715151
	 D(5,4,3,9)       =        -3.119657	    -178.743198
	 D(5,6,1,7)       =         3.130655	     179.373304
	 D(6,1,2,8)       =         3.104488	     177.874064
	 D(6,1,7,13)      =        -1.007103	     -57.702737
	 D(6,1,7,14)      =         2.173893	     124.554875
	 D(6,5,4,10)      =        -3.129634	    -179.314801
	 D(7,1,2,8)       =         0.003419	       0.195891
	 D(7,1,6,12)      =        -0.044599	      -2.555360
	 D(8,2,3,9)       =         0.007541	       0.432093
	 D(9,3,4,10)      =         0.016835	       0.964575
	 D(10,4,5,11)     =         0.014328	       0.820960
	 D(11,5,6,12)     =         0.002616	       0.149899
	 D(13,7,14,15)    =         0.016991	       0.973502
	 D(13,7,14,16)    =        -3.070985	    -175.954508
	 D(14,7,13,17)    =        -3.112385	    -178.326524
	 D(14,7,13,18)    =        -0.024204	      -1.386773

	Current energy   :      -381.4671121757

	Energy change for the previous step:
		Projected    :        -0.0021032513
		Actual       :        -0.0032188448
	Energy ratio indicates good step: Trust radius increased to 1.000e+00.


	Performing BFGS update.
	Previous computed or guess Hessian on step 1.
	Steps to be used in Hessian update: 1
	Taking RFO optimization step.
	Going to follow RFO solution 1.
	Using RFO vector 1.
	Norm of target step-size    0.32629
	Projected energy change by RFO approximation:        -0.0017614039

	Back-transformation to cartesian coordinates...
	Could not converge backtransformation.
	Using first guess instead.

	Back-transformation to cartesian coordinates to adjust frozen coordinates...
	Successfully converged to displaced geometry.

	--- Internal Coordinate Step in ANG or DEG, aJ/ANG or AJ/DEG ---
	 ---------------------------------------------------------------------------
	   Coordinate                Previous        Force       Change         New 
	   ----------                --------       ------       ------       ------
	    1 R(1,2)          =      1.403818     0.000419    -0.000363     1.403455
	    2 R(1,6)          =      1.404524    -0.002273    -0.000462     1.404062
	    3 R(1,7)          =      1.473847     0.004746     0.002424     1.476271
	    4 R(2,3)          =      1.393307    -0.001306     0.000240     1.393547
	    5 R(2,8)          =      1.087960    -0.007453    -0.001255     1.086706
	    6 R(3,4)          =      1.397752    -0.000019     0.000058     1.397810
	    7 R(3,9)          =      1.085609    -0.002070    -0.000281     1.085328
	    8 R(4,5)          =      1.397675     0.001668     0.000255     1.397930
	    9 R(4,10)         =      1.085666    -0.000594    -0.000031     1.085635
	   10 R(5,6)          =      1.392950    -0.000109     0.000468     1.393418
	   11 R(5,11)         =      1.085237     0.000134     0.000247     1.085484
	   12 R(6,12)         =      1.087853    -0.006713    -0.001100     1.086753
	   13 R(7,13)         =      1.327358    -0.008317    -0.001260     1.326098
	   14 R(7,14)         =      1.327883    -0.012697    -0.001434     1.326448
	   15 R(13,17)        =      1.018571    -0.045142    -0.002894     1.015677
	   16 R(13,18)        =      1.017270    -0.022481     0.000349     1.017619
	   17 R(14,15)        =      1.020877    -0.048393    -0.001699     1.019178
	   18 R(14,16)        =      1.018454    -0.043965     0.000389     1.018843
	   19 B(1,2,3)        =    119.345147    -0.000029    -0.164719   119.180427
	   20 B(1,2,8)        =    120.529774    -0.000002    -0.041768   120.488006
	   21 B(1,6,5)        =    119.345993    -0.000023    -0.128055   119.217938
	   22 B(1,6,12)       =    120.451735     0.000003    -0.055932   120.395803
	   23 B(1,7,13)       =    119.526825    -0.000066    -0.351871   119.174955
	   24 B(1,7,14)       =    119.519743    -0.000075    -0.372091   119.147652
	   25 B(2,1,6)        =    120.672547     0.000051     0.252417   120.924964
	   26 B(2,1,7)        =    119.661946    -0.000057    -0.318192   119.343754
	   27 B(2,3,4)        =    120.130442    -0.000007    -0.013776   120.116666
	   28 B(2,3,9)        =    119.660712    -0.000003    -0.030117   119.630595
	   29 B(3,2,8)        =    120.104726     0.000032     0.209823   120.314549
	   30 B(3,4,5)        =    120.356042     0.000025     0.111663   120.467705
	   31 B(3,4,10)       =    119.826476    -0.000014    -0.057184   119.769292
	   32 B(4,3,9)        =    120.207488     0.000010     0.041571   120.249059
	   33 B(4,5,6)        =    120.123816    -0.000016    -0.062439   120.061378
	   34 B(4,5,11)       =    120.236307     0.000007     0.023722   120.260029
	   35 B(5,4,10)       =    119.816839    -0.000011    -0.054726   119.762113
	   36 B(5,6,12)       =    120.174055     0.000020     0.178568   120.352623
	   37 B(6,1,7)        =    119.625057     0.000005    -0.079441   119.545615
	   38 B(6,5,11)       =    119.639738     0.000009     0.038702   119.678441
	   39 B(7,13,17)      =    119.478169    -0.000032    -0.453350   119.024819
	   40 B(7,13,18)      =    122.968848     0.000073     0.404524   123.373372
	   41 B(7,14,15)      =    123.094274     0.000055     0.423665   123.517939
	   42 B(7,14,16)      =    119.189613     0.000018    -0.499219   118.690394
	   43 B(13,7,14)      =    120.914175     0.000142     0.713336   121.627510
	   44 B(15,14,16)     =    117.648111    -0.000071     0.142655   117.790766
	   45 B(17,13,18)     =    117.485694    -0.000041     0.062189   117.547883
	   46 D(1,2,3,4)      =     -0.777112     0.000004     1.001350     0.224238
	   47 D(1,2,3,9)      =    178.799951     0.000003     0.728299   179.528250
	   48 D(1,6,5,4)      =     -1.638356     0.000002     0.297547    -1.340809
	   49 D(1,6,5,11)     =    178.226694     0.000002     0.290861   178.517556
	   50 D(1,7,13,17)    =      3.963335    -0.000027    -5.806029    -1.842694
	   51 D(1,7,13,18)    =   -179.096914    -0.000025    -5.484857  -184.581770
	   52 D(1,7,14,15)    =    178.683803    -0.000024    -5.238183   173.445620
	   53 D(1,7,14,16)    =      1.755793    -0.000037    -7.956734    -6.200941
	   54 D(2,1,6,5)      =      1.694279     0.000001     0.470498     2.164777
	   55 D(2,1,6,12)     =    179.765616     0.000001     0.297263   180.062878
	   56 *D(2,1,7,13)    =    119.999974    -0.000000    -0.000000   119.999974
	   57 D(2,1,7,14)     =    -57.742414    -0.000000     0.268648   -57.473766
	   58 D(2,3,4,5)      =      0.831535    -0.000001    -0.252417     0.579118
	   59 D(2,3,4,10)     =   -179.460692    -0.000001    -0.304075  -179.764767
	   60 D(3,2,1,6)      =     -0.486697    -0.000004    -1.118884    -1.605581
	   61 D(3,2,1,7)      =   -178.164870     0.000005     1.533742  -176.631128
	   62 D(3,4,5,6)      =      0.393000    -0.000002    -0.404911    -0.011911
	   63 D(3,4,5,11)     =   -179.471239    -0.000002    -0.398205  -179.869444
	   64 D(4,3,2,8)      =   -179.144970     0.000003     0.862363  -178.282608
	   65 D(4,5,6,12)     =   -179.715151     0.000002     0.475313  -179.239838
	   66 D(5,4,3,9)      =   -178.743198    -0.000001     0.022644  -178.720554
	   67 D(5,6,1,7)      =    179.373304    -0.000009    -2.192907   177.180396
	   68 D(6,1,2,8)      =    177.874064    -0.000003    -0.975455   176.898610
	   69 D(6,1,7,13)     =    -57.702737     0.000009     2.607678   -55.095059
	   70 D(6,1,7,14)     =    124.554875     0.000008     2.876326   127.431201
	   71 D(6,5,4,10)     =   -179.314801    -0.000002    -0.353250  -179.668051
	   72 D(7,1,2,8)      =      0.195891     0.000007     1.677171     1.873062
	   73 D(7,1,6,12)     =     -2.555360    -0.000008    -2.366143    -4.921503
	   74 D(8,2,3,9)      =      0.432093     0.000002     0.589312     1.021404
	   75 D(9,3,4,10)     =      0.964575    -0.000001    -0.029013     0.935562
	   76 D(10,4,5,11)    =      0.820960    -0.000002    -0.346545     0.474416
	   77 D(11,5,6,12)    =      0.149899     0.000002     0.468627     0.618526
	   78 D(13,7,14,15)   =      0.973502    -0.000023    -4.937315    -3.963813
	   79 D(13,7,14,16)   =   -175.954508    -0.000036    -7.655866  -183.610374
	   80 D(14,7,13,17)   =   -178.326524    -0.000028    -6.107426  -184.433950
	   81 D(14,7,13,18)   =     -1.386773    -0.000026    -5.786254    -7.173027
	 ---------------------------------------------------------------------------
	Successfully symmetrized geometry.

  ==> Convergence Check <==

  Measures of convergence in internal coordinates in au.
  Criteria marked as inactive (o), active & met (*), and active & unmet ( ).
  ---------------------------------------------------------------------------------------------
   Step     Total Energy     Delta E     MAX Force     RMS Force      MAX Disp      RMS Disp   
  ---------------------------------------------------------------------------------------------
    Convergence Criteria    1.00e-06 *    3.00e-04 *             o    1.20e-03 *             o
  ---------------------------------------------------------------------------------------------
      2    -381.46711218   -3.22e-03      5.87e-03      1.31e-03 o    1.39e-01      3.62e-02 o  ~
  ---------------------------------------------------------------------------------------------

	Writing optimization data to binary file.
	Structure for next step:
	Cartesian Geometry (in Angstrom)
	    C    -0.0602701288  -0.0084838120  -0.1778586843
	    C    -0.0173347825   1.2142235668   0.5097660933
	    C     0.0210171428   1.2093552995   1.9027768841
	    C     0.0212648284  -0.0020526067   2.6001750869
	    C    -0.0046466922  -1.2173658034   1.9098489610
	    C    -0.0312335843  -1.2283589577   0.5167281406
	    C    -0.0253714943  -0.0101055993  -1.6537161619
	    H     0.0104479188   2.1532745403  -0.0364394675
	    H     0.0621046607   2.1505106410   2.4417340856
	    H     0.0473785942   0.0007926557   3.6854921867
	    H    -0.0065052602  -2.1561041810   2.4548640705
	    H    -0.0638773582  -2.1701904949  -0.0244923383
	    N     0.9631825315  -0.6375740613  -2.2762757568
	    N    -0.9553066607   0.6586003195  -2.3226839574
	    H    -0.9409399147   0.7830878260  -3.3341285731
	    H    -1.7254301897   1.0773158870  -1.8034262476
	    H     1.6914038014  -1.0801163194  -1.7236005873
	    H     1.0141165878  -0.7368098999  -3.2877627345
			--------------------------
			 OPTKING Finished Execution 
			--------------------------

    Structure for next step:
    Molecular point group: c1
    Full point group: C1

    Geometry (in Angstrom), charge = 1, multiplicity = 1:

    C           -0.060270128829    -0.008483812037    -0.177858684277
    C           -0.017334782494     1.214223566832     0.509766093314
    C            0.021017142793     1.209355299504     1.902776884127
    C            0.021264828446    -0.002052606671     2.600175086871
    C           -0.004646692199    -1.217365803443     1.909848960993
    C           -0.031233584304    -1.228358957718     0.516728140622
    C           -0.025371494275    -0.010105599298    -1.653716161874
    H            0.010447918800     2.153274540291    -0.036439467484
    H            0.062104660719     2.150510641007     2.441734085554
    H            0.047378594208     0.000792655732     3.685492186708
    H           -0.006505260192    -2.156104181033     2.454864070461
    H           -0.063877358224    -2.170190494943    -0.024492338311
    N            0.963182531525    -0.637574061294    -2.276275756820
    N           -0.955306660732     0.658600319464    -2.322683957439
    H           -0.940939914743     0.783087825957    -3.334128573085
    H           -1.725430189665     1.077315886952    -1.803426247597
    H            1.691403801409    -1.080116319374    -1.723600587263
    H            1.014116587758    -0.736809899928    -3.287762734500

gradient() will perform analytic gradient computation.

*** tstart() called on rosa.prib.upf.edu
*** at Sat Sep 29 20:52:30 2018

   => Loading Basis Set <=

    Name: 6-31G*
    Role: ORBITAL
    Keyword: BASIS
    atoms 1-7         entry C          line   111 file /shared/joao/test_parameterize/miniconda3/share/psi4/basis/6-31gs.gbs 
    atoms 8-12, 15-18 entry H          line    44 file /shared/joao/test_parameterize/miniconda3/share/psi4/basis/6-31gs.gbs 
    atoms 13-14       entry N          line   128 file /shared/joao/test_parameterize/miniconda3/share/psi4/basis/6-31gs.gbs 


         ---------------------------------------------------------
                                   SCF
            by Justin Turney, Rob Parrish, Andy Simmonett
                             and Daniel Smith
                              RKS Reference
                        4 Threads,   2861 MiB Core
         ---------------------------------------------------------

  ==> Geometry <==

    Molecular point group: c1
    Full point group: C1

    Geometry (in Angstrom), charge = 1, multiplicity = 1:

       Center              X                  Y                   Z               Mass       
[...]
	            -0.0000044132       -0.0000021459        0.0000019388
	            -0.0000038651       -0.0000008173        0.0000008820
	             0.0000010100        0.0000002810       -0.0000000771
	             0.0000046804        0.0000004002        0.0000018587
	            -0.0000014772        0.0000031242        0.0000012527
	             0.0025121878        0.0038994885        0.0000697134
	             0.0000008409       -0.0000356749        0.0000155429
	             0.0000009292        0.0000123203       -0.0000094709
	            -0.0000084261        0.0000092191       -0.0000024782
	            -0.0000013410       -0.0000009797       -0.0000038788
	            -0.0000025393       -0.0000049652       -0.0000112696

	---Fragment 1 Intrafragment Coordinates---
	 - Coordinate -           - BOHR/RAD -       - ANG/DEG -
	 R(1,2)           =         2.654877	       1.404900
	 R(1,6)           =         2.655031	       1.404982
	 R(1,7)           =         2.784195	       1.473333
	 R(2,3)           =         2.632278	       1.392942
	 R(2,8)           =         2.052871	       1.086333
	 R(3,4)           =         2.641442	       1.397791
	 R(3,9)           =         2.050807	       1.085240
	 R(4,5)           =         2.642382	       1.398288
	 R(4,10)          =         2.051570	       1.085644
	 R(5,6)           =         2.631478	       1.392518
	 R(5,11)          =         2.050783	       1.085227
	 R(6,12)          =         2.053261	       1.086539
	 R(7,13)          =         2.507200	       1.326753
	 R(7,14)          =         2.507394	       1.326856
	 R(13,17)         =         1.912816	       1.012219
	 R(13,18)         =         1.916544	       1.014191
	 R(14,15)         =         1.916387	       1.014108
	 R(14,16)         =         1.912889	       1.012257
	 B(1,2,3)         =         2.081481	     119.260070
	 B(1,2,8)         =         2.100835	     120.368960
	 B(1,6,5)         =         2.082269	     119.305224
	 B(1,6,12)        =         2.099986	     120.320325
	 B(1,7,13)        =         2.082819	     119.336756
	 B(1,7,14)        =         2.083722	     119.388471
	 B(2,1,6)         =         2.107899	     120.773722
	 B(2,1,7)         =         2.081181	     119.242895
	 B(2,3,4)         =         2.095859	     120.083889
	 B(2,3,9)         =         2.088934	     119.687089
	 B(3,2,8)         =         2.100671	     120.359600
	 B(3,4,5)         =         2.103214	     120.505300
	 B(3,4,10)        =         2.090011	     119.748813
	 B(4,3,9)         =         2.098357	     120.227023
	 B(4,5,6)         =         2.094969	     120.032901
	 B(4,5,11)        =         2.098266	     120.221811
	 B(5,4,10)        =         2.089945	     119.745035
	 B(5,6,12)        =         2.100283	     120.337378
	 B(6,1,7)         =         2.090117	     119.754872
	 B(6,5,11)        =         2.089948	     119.745221
	 B(7,13,17)       =         2.082130	     119.297262
	 B(7,13,18)       =         2.152428	     123.325013
	 B(7,14,15)       =         2.153282	     123.373977
	 B(7,14,16)       =         2.082258	     119.304600
	 B(13,7,14)       =         2.115009	     121.181071
	 B(15,14,16)      =         2.047157	     117.293462
	 B(17,13,18)      =         2.048179	     117.352032
	 D(1,2,3,4)       =        -0.000473	      -0.027112
	 D(1,2,3,9)       =         3.132166	     179.459879
	 D(1,6,5,4)       =        -0.030857	      -1.767997
	 D(1,6,5,11)      =         3.112374	     178.325912
	 D(1,7,13,17)     =        -0.048937	      -2.803900
	 D(1,7,13,18)     =         3.059593	     175.301755
	 D(1,7,14,15)     =         3.021544	     173.121701
	 D(1,7,14,16)     =        -0.154560	      -8.855643
	 D(2,1,6,5)       =         0.042306	       2.423983
	 D(2,1,6,12)      =        -3.137805	    -179.782962
	*D(2,1,7,13)      =         2.094395	     119.999974
	 D(2,1,7,14)      =        -0.986507	     -56.522714
	 D(2,3,4,5)       =         0.011645	       0.667182
	 D(2,3,4,10)      =        -3.135824	    -179.669506
	 D(3,2,1,6)       =        -0.026611	      -1.524720
	 D(3,2,1,7)       =        -3.072113	    -176.019113
	 D(3,4,5,6)       =         0.004255	       0.243818
	 D(3,4,5,11)      =        -3.138984	    -179.850543
	 D(4,3,2,8)       =        -3.120738	    -178.805107
	 D(4,5,6,12)      =        -3.133925	    -179.560668
	 D(5,4,3,9)       =        -3.120946	    -178.817015
	 D(5,6,1,7)       =         3.087320	     176.890386
	 D(6,1,2,8)       =         3.093651	     177.253158
	 D(6,1,7,13)      =        -0.952102	     -54.551426
	 D(6,1,7,14)      =         2.250181	     128.925886
	 D(6,5,4,10)      =        -3.131461	    -179.419507
	 D(7,1,2,8)       =         0.048150	       2.758764
	 D(7,1,6,12)      =        -0.092791	      -5.316559
	 D(8,2,3,9)       =         0.011901	       0.681885
	 D(9,3,4,10)      =         0.014771	       0.846297
	 D(10,4,5,11)     =         0.008485	       0.486132
	 D(11,5,6,12)     =         0.009307	       0.533241
	 D(13,7,14,15)    =        -0.058206	      -3.334979
	 D(13,7,14,16)    =         3.048875	     174.687677
	 D(14,7,13,17)    =         3.030844	     173.654581
	 D(14,7,13,18)    =        -0.143811	      -8.239764

	Current energy   :      -381.4681732223

	Energy change for the previous step:
		Projected    :        -0.0000001062
		Actual       :        -0.0000001433

	Performing BFGS update.
	Previous computed or guess Hessian on step 1.
	Steps to be used in Hessian update: 6 5
	Taking RFO optimization step.
	Going to follow RFO solution 1.
	Rejecting RFO root 1 because normalization gives large value.
	Rejecting RFO root 2 because normalization gives large value.
	Using RFO vector 3.
	Norm of target step-size    0.00132
	Projected energy change by RFO approximation:        -0.0000000424

	Back-transformation to cartesian coordinates...
	Successfully converged to displaced geometry.

	Back-transformation to cartesian coordinates to adjust frozen coordinates...
	Successfully converged to displaced geometry.

	--- Internal Coordinate Step in ANG or DEG, aJ/ANG or AJ/DEG ---
	 ---------------------------------------------------------------------------
	   Coordinate                Previous        Force       Change         New 
	   ----------                --------       ------       ------       ------
	    1 R(1,2)          =      1.404900    -0.000004     0.000007     1.404907
	    2 R(1,6)          =      1.404982    -0.000037    -0.000002     1.404980
	    3 R(1,7)          =      1.473333     0.000062    -0.000008     1.473325
	    4 R(2,3)          =      1.392942    -0.000019    -0.000007     1.392935
	    5 R(2,8)          =      1.086333     0.000027     0.000005     1.086338
	    6 R(3,4)          =      1.397791     0.000001     0.000003     1.397794
	    7 R(3,9)          =      1.085240     0.000005     0.000001     1.085241
	    8 R(4,5)          =      1.398288    -0.000009     0.000001     1.398289
	    9 R(4,10)         =      1.085644    -0.000001    -0.000000     1.085644
	   10 R(5,6)          =      1.392518    -0.000003    -0.000005     1.392513
	   11 R(5,11)         =      1.085227    -0.000008    -0.000002     1.085226
	   12 R(6,12)         =      1.086539     0.000025     0.000006     1.086545
	   13 R(7,13)         =      1.326753    -0.000032     0.000005     1.326758
	   14 R(7,14)         =      1.326856     0.000082     0.000015     1.326871
	   15 R(13,17)        =      1.012219     0.000001     0.000000     1.012219
	   16 R(13,18)        =      1.014191    -0.000090    -0.000014     1.014177
	   17 R(14,15)        =      1.014108    -0.000095    -0.000013     1.014095
	   18 R(14,16)        =      1.012257    -0.000053    -0.000008     1.012249
	   19 B(1,2,3)        =    119.260070     0.000000    -0.000009   119.260060
	   20 B(1,2,8)        =    120.368960    -0.000000    -0.000630   120.368329
	   21 B(1,6,5)        =    119.305224    -0.000000     0.000264   119.305488
	   22 B(1,6,12)       =    120.320325     0.000000    -0.000330   120.319995
	   23 B(1,7,13)       =    119.336756    -0.000000    -0.000296   119.336460
	   24 B(1,7,14)       =    119.388471    -0.000001    -0.000173   119.388299
	   25 B(2,1,6)        =    120.773722     0.000000    -0.000328   120.773394
	   26 B(2,1,7)        =    119.242895     0.000000     0.000235   119.243130
	   27 B(2,3,4)        =    120.083889     0.000000     0.000329   120.084218
	   28 B(2,3,9)        =    119.687089    -0.000000    -0.000568   119.686521
	   29 B(3,2,8)        =    120.359600     0.000000     0.000767   120.360368
	   30 B(3,4,5)        =    120.505300    -0.000000    -0.000456   120.504844
	   31 B(3,4,10)       =    119.748813     0.000000     0.000322   119.749135
	   32 B(4,3,9)        =    120.227023     0.000000     0.000081   120.227104
	   33 B(4,5,6)        =    120.032901     0.000000     0.000361   120.033262
	   34 B(4,5,11)       =    120.221811     0.000000     0.000231   120.222042
	   35 B(5,4,10)       =    119.745035     0.000000     0.000106   119.745141
	   36 B(5,6,12)       =    120.337378    -0.000000     0.000079   120.337457
	   37 B(6,1,7)        =    119.754872    -0.000000     0.001002   119.755874
	   38 B(6,5,11)       =    119.745221    -0.000000    -0.000581   119.744640
	   39 B(7,13,17)      =    119.297262    -0.000000    -0.000041   119.297221
	   40 B(7,13,18)      =    123.325013    -0.000000    -0.000835   123.324178
	   41 B(7,14,15)      =    123.373977     0.000000    -0.000276   123.373701
	   42 B(7,14,16)      =    119.304600    -0.000001    -0.002231   119.302369
	   43 B(13,7,14)      =    121.181071     0.000001    -0.000180   121.180891
	   44 B(15,14,16)     =    117.293462     0.000001     0.000919   117.294381
	   45 B(17,13,18)     =    117.352032     0.000000     0.001059   117.353091
	   46 D(1,2,3,4)      =     -0.027112     0.000000     0.011515    -0.015597
	   47 D(1,2,3,9)      =    179.459879     0.000000    -0.008450   179.451429
	   48 D(1,6,5,4)      =     -1.767997     0.000000     0.010326    -1.757671
	   49 D(1,6,5,11)     =    178.325912     0.000000     0.002185   178.328097
	   50 D(1,7,13,17)    =     -2.803900     0.000000     0.007369    -2.796531
	   51 D(1,7,13,18)    =    175.301755     0.000000     0.014151   175.315906
	   52 D(1,7,14,15)    =    173.121701     0.000000     0.025707   173.147407
	   53 D(1,7,14,16)    =     -8.855643    -0.000000    -0.029618    -8.885261
	   54 D(2,1,6,5)      =      2.423983    -0.000000    -0.003403     2.420580
	   55 D(2,1,6,12)     =   -179.782962    -0.000000    -0.003016  -179.785979
	   56 *D(2,1,7,13)    =    119.999974    -0.000000     0.000000   119.999974
	   57 D(2,1,7,14)     =    -56.522714     0.000000     0.012009   -56.510705
	   58 D(2,3,4,5)      =      0.667182    -0.000000    -0.004678     0.662504
	   59 D(2,3,4,10)     =   -179.669506    -0.000000    -0.010074  -179.679580
	   60 D(3,2,1,6)      =     -1.524720    -0.000000    -0.007530    -1.532250
	   61 D(3,2,1,7)      =   -176.019113    -0.000000    -0.018523  -176.037637
	   62 D(3,4,5,6)      =      0.243818    -0.000000    -0.006410     0.237408
	   63 D(3,4,5,11)     =   -179.850543     0.000000     0.001769  -179.848774
	   64 D(4,3,2,8)      =   -178.805107     0.000000     0.004662  -178.800445
	   65 D(4,5,6,12)     =   -179.560668     0.000000     0.009948  -179.550719
	   66 D(5,4,3,9)      =   -178.817015     0.000000     0.015399  -178.801616
	   67 D(5,6,1,7)      =    176.890386    -0.000000     0.007604   176.897990
	   68 D(6,1,2,8)      =    177.253158     0.000000    -0.000658   177.252499
	   69 D(6,1,7,13)     =    -54.551426    -0.000000    -0.010806   -54.562232
	   70 D(6,1,7,14)     =    128.925886    -0.000000     0.001203   128.927089
	   71 D(6,5,4,10)     =   -179.419507    -0.000000    -0.001015  -179.420522
	   72 D(7,1,2,8)      =      2.758764    -0.000000    -0.011652     2.747112
	   73 D(7,1,6,12)     =     -5.316559     0.000000     0.007991    -5.308569
	   74 D(8,2,3,9)      =      0.681885    -0.000000    -0.015304     0.666581
	   75 D(9,3,4,10)     =      0.846297     0.000000     0.010003     0.856300
	   76 D(10,4,5,11)    =      0.486132     0.000000     0.007164     0.493297
	   77 D(11,5,6,12)    =      0.533241    -0.000000     0.001807     0.535049
	   78 D(13,7,14,15)   =     -3.334979     0.000000     0.037948    -3.297031
	   79 D(13,7,14,16)   =    174.687677    -0.000000    -0.017376   174.670301
	   80 D(14,7,13,17)   =    173.654581    -0.000000    -0.004862   173.649719
	   81 D(14,7,13,18)   =     -8.239764     0.000000     0.001921    -8.237843
	 ---------------------------------------------------------------------------
	Successfully symmetrized geometry.

  ==> Convergence Check <==

  Measures of convergence in internal coordinates in au.
  Criteria marked as inactive (o), active & met (*), and active & unmet ( ).
  ---------------------------------------------------------------------------------------------
   Step     Total Energy     Delta E     MAX Force     RMS Force      MAX Disp      RMS Disp   
  ---------------------------------------------------------------------------------------------
    Convergence Criteria    1.00e-06 *    3.00e-04 *             o    1.20e-03 *             o
  ---------------------------------------------------------------------------------------------
      7    -381.46817322   -1.43e-07 *    1.19e-05 *    4.27e-06 o    6.62e-04 *    1.47e-04 o  ~
  ---------------------------------------------------------------------------------------------


  **** Optimization is complete! (in 7 steps) ****

  ==> Optimization Summary <==

  Measures of convergence in internal coordinates in au.
  --------------------------------------------------------------------------------------------------------------- ~
   Step         Total Energy             Delta E       MAX Force       RMS Force        MAX Disp        RMS Disp  ~
  --------------------------------------------------------------------------------------------------------------- ~
      1    -381.463893330963   -381.463893330963      0.00478538      0.00165187      0.15863759      0.04791649  ~
      2    -381.467112175717     -0.003218844754      0.00587385      0.00130898      0.13887120      0.03616162  ~
      3    -381.468031606152     -0.000919430434      0.00572716      0.00099688      0.03335356      0.00805289  ~
      4    -381.468161635332     -0.000130029181      0.00084732      0.00015927      0.01881450      0.00370440  ~
      5    -381.468170293022     -0.000008657690      0.00041004      0.00008980      0.00601820      0.00150585  ~
      6    -381.468173078947     -0.000002785925      0.00005193      0.00001536      0.00148894      0.00040027  ~
      7    -381.468173222268     -0.000000143321      0.00001195      0.00000427      0.00066232      0.00014713  ~
  --------------------------------------------------------------------------------------------------------------- ~

	Writing optimization data to binary file.
	Final energy is   -381.4681732222683
	Final (previous) structure:
	Cartesian Geometry (in Angstrom)
	    C    -0.0691241904  -0.0132573481  -0.1772517851
	    C    -0.0251491548   1.2110110919   0.5104821983
	    C     0.0230936416   1.2085492266   1.9025858716
	    C     0.0268618223  -0.0020125322   2.6014033239
	    C    -0.0035425720  -1.2188980457   1.9133075374
	    C    -0.0327849834  -1.2318135863   0.5211563434
	    C    -0.0308921334  -0.0131982384  -1.6500882776
	    H    -0.0087495852   2.1486761530  -0.0378184973
	    H     0.0661215029   2.1500777760   2.4405625229
	    H     0.0591352697   0.0025008782   3.6865584042
	    H    -0.0029182383  -2.1560390443   2.4605597781
	    H    -0.0636657247  -2.1744145974  -0.0183954730
	    N     0.9568664737  -0.6412402565  -2.2747238366
	    N    -0.9446168489   0.6723520208  -2.3251244720
	    H    -0.9175286055   0.7976296189  -3.3311002581
	    H    -1.7306079769   1.0726781019  -1.8285139794
	    H     1.6917408070  -1.0740548456  -1.7295467068
	    H     1.0057604964  -0.7385473728  -3.2830516941
	Saving final (previous) structure.
	Removing binary optimization data file.
			--------------------------
			 OPTKING Finished Execution 
			--------------------------

    Final optimized geometry and variables:
    Molecular point group: c1
    Full point group: C1

    Geometry (in Angstrom), charge = 1, multiplicity = 1:

    C           -0.069124190434    -0.013257348084    -0.177251785082
    C           -0.025149154803     1.211011091884     0.510482198331
    C            0.023093641594     1.208549226584     1.902585871644
    C            0.026861822349    -0.002012532221     2.601403323941
    C           -0.003542572015    -1.218898045710     1.913307537401
    C           -0.032784983428    -1.231813586344     0.521156343393
    C           -0.030892133415    -0.013198238367    -1.650088277630
    H           -0.008749585249     2.148676153023    -0.037818497277
    H            0.066121502883     2.150077776022     2.440562522855
    H            0.059135269682     0.002500878192     3.686558404188
    H           -0.002918238304    -2.156039044342     2.460559778090
    H           -0.063665724684    -2.174414597395    -0.018395473021
    N            0.956866473684    -0.641240256491    -2.274723836590
    N           -0.944616848906     0.672352020844    -2.325124471956
    H           -0.917528605526     0.797629618885    -3.331100258082
    H           -1.730607976891     1.072678101918    -1.828513979380
    H            1.691740807019    -1.074054845636    -1.729546706773
    H            1.005760496443    -0.738547372763    -3.283051694051

	Removing binary optimization data file.
	Cleaning optimization helper files.


Properties will be evaluated at   0.000000,   0.000000,   0.000000 [a0]
OEProp: No title given, name of density matrix used for the following properties is 'SCF density'
  Nuclear Dipole Moment: [e a0]
     X:    -0.9150      Y:    -0.2106      Z:    -0.2081

  Electronic Dipole Moment: [e a0]
     X:     0.9350      Y:     0.2130      Z:    -2.1835

  Dipole Moment: [e a0]
     X:     0.0200      Y:     0.0024      Z:    -2.3916     Total:     2.3916

  Dipole Moment: [D]
     X:     0.0509      Y:     0.0062      Z:    -6.0787     Total:     6.0789

  Quadrupole Moment: [D A]
    XX:   -45.9893     YY:   -41.1570     ZZ:   -13.5874
    XY:    -5.7933     XZ:     0.2378     YZ:    -0.3170

  Traceless Quadrupole Moment: [D A]
    XX:   -12.4114     YY:    -7.5791     ZZ:    19.9905
    XY:    -5.7933     XZ:     0.2378     YZ:    -0.3170

  Mulliken Charges: (a.u.)
   Center  Symbol    Alpha    Beta     Spin     Total
       1     C     2.97697  2.97697  0.00000  0.04606
       2     C     3.07383  3.07383  0.00000 -0.14765
       3     C     3.06215  3.06215  0.00000 -0.12430
       4     C     3.05246  3.05246  0.00000 -0.10493
       5     C     3.06310  3.06310  0.00000 -0.12620
       6     C     3.07839  3.07839  0.00000 -0.15678
       7     C     2.73633  2.73633  0.00000  0.52734
       8     H     0.41334  0.41334  0.00000  0.17333
       9     H     0.40627  0.40627  0.00000  0.18747
      10     H     0.40523  0.40523  0.00000  0.18954
      11     H     0.40629  0.40629  0.00000  0.18741
      12     H     0.41349  0.41349  0.00000  0.17302
      13     N     3.85212  3.85212  0.00000 -0.70423
      14     N     3.85414  3.85414  0.00000 -0.70827
      15     H     0.30546  0.30546  0.00000  0.38909
      16     H     0.29747  0.29747  0.00000  0.40505
      17     H     0.29752  0.29752  0.00000  0.40497
      18     H     0.30546  0.30546  0.00000  0.38909

   Total alpha = 32.00000, Total beta = 32.00000, Total charge =  1.00000


    Psi4 stopped on: Saturday, 29 September 2018 08:55PM
    Psi4 wall time for execution: 0:04:11.67

*** Psi4 exiting successfully. Buy a developer a beer!
