
    -----------------------------------------------------------------------
          Psi4: An Open-Source Ab Initio Electronic Structure Package
                               Psi4 1.2.1 release

                         Git: Rev {HEAD} 406f4de 


    R. M. Parrish, L. A. Burns, D. G. A. Smith, A. C. Simmonett,
    A. E. DePrince III, E. G. Hohenstein, U. Bozkaya, A. Yu. Sokolov,
    R. Di Remigio, R. M. Richard, J. F. Gonthier, A. M. James,
    H. R. McAlexander, A. Kumar, M. Saitow, X. Wang, B. P. Pritchard,
    P. Verma, H. F. Schaefer III, K. Patkowski, R. A. King, E. F. Valeev,
    F. A. Evangelista, J. M. Turney, T. D. Crawford, and C. D. Sherrill,
    J. Chem. Theory Comput. 13(7) pp 3185--3197 (2017).
    (doi: 10.1021/acs.jctc.7b00174)


                         Additional Contributions by
    P. Kraus, H. Kruse, M. H. Lechner, M. C. Schieber, and R. A. Shaw

    -----------------------------------------------------------------------


    Psi4 started on: Saturday, 29 September 2018 05:10PM

    Process ID: 13645
    Host:       loro.prib.upf.edu
    PSIDATADIR: /shared/joao/test_parameterize/miniconda3/share/psi4
    Memory:     500.0 MiB
    Threads:    1
    
  ==> Input File <==

--------------------------------------------------------------------------
set_num_threads(1)
set_memory('5348 MB')

set { scf_mem_safety_factor 0.7 }

set { reference rks }
set { basis cc-pVDZ }

molecule MOL {
    0 1
    noreorient
    nocom
    symmetry c1
    O    1.050400   0.042900  -0.048100
    C    2.474100   0.047400  -0.029000
    C    3.002600  -1.068900  -0.932000
    N    4.462700  -1.072400  -1.006800
    H    0.760400   0.728400   0.578000
    H    2.809900  -0.097900   1.003200
    H    2.817400   1.026800  -0.378600
    H    2.581000  -0.963300  -1.938400
    H    2.653800  -2.036400  -0.553400
    H    4.837106  -1.667066  -0.268102
    H    4.803636  -0.132042  -0.807447
}

set optking { frozen_dihedral = (" 2 3 4 10 ") }

energy, wfn = energy('B3LYP-D3', return_wfn=True)

import os
os.chdir(os.environ['HTMD_PSI4_WORKDIR'])

oeprop(wfn, 'DIPOLE', 'QUADRUPOLE', 'MULLIKEN_CHARGES')

with open('psi4out.xyz', 'w') as f:
    f.write('11 ' )
    f.write('%.12f\n' % energy)
    f.write(MOL.save_string_xyz())
--------------------------------------------------------------------------
  Threads set to 1 by Python driver.

  Memory set to   4.981 GiB by Python driver.

*** tstart() called on loro.prib.upf.edu
*** at Sat Sep 29 17:10:05 2018

   => Loading Basis Set <=

    Name: CC-PVDZ
    Role: ORBITAL
    Keyword: BASIS
    atoms 1    entry O          line   198 file /shared/joao/test_parameterize/miniconda3/share/psi4/basis/cc-pvdz.gbs 
    atoms 2-3  entry C          line   138 file /shared/joao/test_parameterize/miniconda3/share/psi4/basis/cc-pvdz.gbs 
    atoms 4    entry N          line   168 file /shared/joao/test_parameterize/miniconda3/share/psi4/basis/cc-pvdz.gbs 
    atoms 5-11 entry H          line    22 file /shared/joao/test_parameterize/miniconda3/share/psi4/basis/cc-pvdz.gbs 


         ---------------------------------------------------------
                                   SCF
            by Justin Turney, Rob Parrish, Andy Simmonett
                             and Daniel Smith
                              RKS Reference
                        1 Threads,   5100 MiB Core
         ---------------------------------------------------------

  ==> Geometry <==

    Molecular point group: c1
    Full point group: C1

    Geometry (in Angstrom), charge = 0, multiplicity = 1:

       Center              X                  Y                   Z               Mass       
    ------------   -----------------  -----------------  -----------------  -----------------
         O            1.050400000000     0.042900000000    -0.048100000000    15.994914619560
         C            2.474100000000     0.047400000000    -0.029000000000    12.000000000000
         C            3.002600000000    -1.068900000000    -0.932000000000    12.000000000000
         N            4.462700000000    -1.072400000000    -1.006800000000    14.003074004780
         H            0.760400000000     0.728400000000     0.578000000000     1.007825032070
         H            2.809900000000    -0.097900000000     1.003200000000     1.007825032070
         H            2.817400000000     1.026800000000    -0.378600000000     1.007825032070
         H            2.581000000000    -0.963300000000    -1.938400000000     1.007825032070
         H            2.653800000000    -2.036400000000    -0.553400000000     1.007825032070
         H            4.837106000000    -1.667066000000    -0.268102000000     1.007825032070
         H            4.803636000000    -0.132042000000    -0.807447000000     1.007825032070

  Running in c1 symmetry.

  Rotational constants: A =      0.72370  B =      0.02779  C =      0.02712 [cm^-1]
  Rotational constants: A =  21695.83154  B =    832.99457  C =    813.14403 [MHz]
  Nuclear repulsion =  130.861061978570746

  Charge       = 0
  Multiplicity = 1
  Electrons    = 34
  Nalpha       = 17
  Nbeta        = 17

  ==> Algorithm <==

  SCF Algorithm Type is DF.
  DIIS enabled.
  MOM disabled.
  Fractional occupation disabled.
  Guess Type is SAD.
  Energy threshold   = 1.00e-06
  Density threshold  = 1.00e-06
  Integral threshold = 0.00e+00

  ==> Primary Basis <==

  Basis Set: CC-PVDZ
    Blend: CC-PVDZ
    Number of shells: 45
    Number of basis function: 91
    Number of Cartesian functions: 95
    Spherical Harmonics?: true
    Max angular momentum: 2

  ==> DFT Potential <==

   => Composite Functional: B3LYP-D3ZERO <= 

    B3LYP-d3zero Hyb-GGA Exchange-Correlation Functional

    P. J. Stephens, F. J. Devlin, C. F. Chabalowski, and M. J. Frisch, J. Phys. Chem. 98, 11623 (1994)

    Deriv               =              1
    GGA                 =           TRUE
    Meta                =          FALSE

    Exchange Hybrid     =           TRUE
    MP2 Hybrid          =          FALSE

   => Exchange Functionals <=

    0.0800   Slater exchange
    0.7200         Becke 88

   => Exact (HF) Exchange <=

    0.2000               HF 

   => Correlation Functionals <=

    0.1900   Vosko, Wilk & Nusair (VWN5_RPA)
    0.8100   Lee, Yang & Parr

   => Molecular Quadrature <=

    Radial Scheme       =       TREUTLER
    Pruning Scheme      =           FLAT
    Nuclear Scheme      =       TREUTLER

    BS radius alpha     =              1
    Pruning alpha       =              1
    Radial Points       =             75
    Spherical Points    =            302
    Total Points        =         245080
    Total Blocks        =           1885
    Max Points          =            256
    Max Functions       =             91

   => -D3ZERO: Empirical Dispersion <=

    Grimme's -D3 (zero-damping) Dispersion Correction
    Grimme S.; Antony J.; Ehrlich S.; Krieg H. (2010), J. Chem. Phys., 132: 154104

        S6 =   1.000000E+00
        S8 =   1.703000E+00
       SR6 =   1.261000E+00
       SR8 =   1.000000E+00
    ALPHA6 =   1.400000E+01

   => Loading Basis Set <=

    Name: (CC-PVDZ AUX)
    Role: JKFIT
    Keyword: DF_BASIS_SCF
    atoms 1    entry O          line   221 file /shared/joao/test_parameterize/miniconda3/share/psi4/basis/cc-pvdz-jkfit.gbs 
    atoms 2-3  entry C          line   121 file /shared/joao/test_parameterize/miniconda3/share/psi4/basis/cc-pvdz-jkfit.gbs 
    atoms 4    entry N          line   171 file /shared/joao/test_parameterize/miniconda3/share/psi4/basis/cc-pvdz-jkfit.gbs 
    atoms 5-11 entry H          line    51 file /shared/joao/test_parameterize/miniconda3/share/psi4/basis/cc-pvdz-jkfit.gbs 

  ==> Pre-Iterations <==

   -------------------------------------------------------
    Irrep   Nso     Nmo     Nalpha   Nbeta   Ndocc  Nsocc
   -------------------------------------------------------
     A         91      91       0       0       0       0
   -------------------------------------------------------
    Total      91      91      17      17      17       0
   -------------------------------------------------------

  ==> Integral Setup <==

  DFHelper Memory: AOs need 0.036 [GiB]; user supplied 3.486 [GiB]. Using in-core AOs.

  ==> MemDFJK: Density-Fitted J/K Matrices <==

    J tasked:                   Yes
    K tasked:                   Yes
    wK tasked:                   No
    OpenMP threads:               1
    Memory (MB):               3570
    Algorithm:                 Core
    Schwarz Cutoff:           1E-12
    Mask sparsity (%):       0.1449
    Fitting Condition:        1E-12

   => Auxiliary Basis Set <=

  Basis Set: (CC-PVDZ AUX)
    Blend: CC-PVDZ-JKFIT
    Number of shells: 159
    Number of basis function: 441
    Number of Cartesian functions: 499
    Spherical Harmonics?: true
    Max angular momentum: 3

  Minimum eigenvalue in the overlap matrix is 4.5546311999E-03.
  Using Symmetric Orthogonalization.

  SCF Guess: Superposition of Atomic Densities via on-the-fly atomic UHF.

  ==> Iterations <==

                           Total Energy        Delta E     RMS |[F,P]|

   @DF-RKS iter   0:  -210.84201785979553   -2.10842e+02   3.66130e-02 
   @DF-RKS iter   1:  -210.22032566119805    6.21692e-01   6.94360e-03 
   @DF-RKS iter   2:  -210.07506496683277    1.45261e-01   9.59731e-03 DIIS
   @DF-RKS iter   3:  -210.38936635963276   -3.14301e-01   6.19891e-04 DIIS
   @DF-RKS iter   4:  -210.39027938690225   -9.13027e-04   3.60001e-04 DIIS
   @DF-RKS iter   5:  -210.39074722875526   -4.67842e-04   4.72482e-05 DIIS
   @DF-RKS iter   6:  -210.39075296356410   -5.73481e-06   2.43114e-05 DIIS
   @DF-RKS iter   7:  -210.39075508800997   -2.12445e-06   2.13668e-06 DIIS
   @DF-RKS iter   8:  -210.39075510434736   -1.63374e-08   8.45837e-07 DIIS

  ==> Post-Iterations <==

    Orbital Energies [Eh]
    ---------------------

    Doubly Occupied:                                                      

       1A    -19.129274     2A    -14.306833     3A    -10.226625  
       4A    -10.202192     5A     -1.011934     6A     -0.879509  
       7A     -0.711249     8A     -0.605463     9A     -0.506671  
      10A     -0.495643    11A     -0.446897    12A     -0.415857  
      13A     -0.398806    14A     -0.355326    15A     -0.330395  
      16A     -0.264204    17A     -0.234629  

    Virtual:                                                              

      18A      0.050050    19A      0.055103    20A      0.092828  
      21A      0.113076    22A      0.128313    23A      0.151294  
      24A      0.168873    25A      0.215387    26A      0.247549  
      27A      0.257056    28A      0.428957    29A      0.450260  
      30A      0.492883    31A      0.521732    32A      0.533429  
      33A      0.562987    34A      0.598586    35A      0.629216  
      36A      0.631870    37A      0.653261    38A      0.657813  
      39A      0.679564    40A      0.700244    41A      0.826719  
      42A      0.843465    43A      0.862101    44A      0.906909  
      45A      0.935102    46A      0.966760    47A      0.991092  
      48A      1.061129    49A      1.200305    50A      1.201714  
      51A      1.232105    52A      1.274076    53A      1.296746  
      54A      1.348790    55A      1.398609    56A      1.513760  
      57A      1.570183    58A      1.592182    59A      1.598794  
      60A      1.631620    61A      1.643254    62A      1.665864  
      63A      1.684702    64A      1.719889    65A      1.735395  
      66A      1.782305    67A      1.814983    68A      1.873558  
      69A      1.905029    70A      1.945598    71A      1.994385  
      72A      2.026296    73A      2.076871    74A      2.112277  
      75A      2.166858    76A      2.209283    77A      2.289602  
      78A      2.380878    79A      2.402475    80A      2.427791  
      81A      2.473204    82A      2.545889    83A      2.634044  
      84A      2.658281    85A      2.819377    86A      2.954351  
      87A      3.019556    88A      3.042126    89A      3.093821  
      90A      3.207682    91A      3.691843  

    Final Occupation by Irrep:
              A 
    DOCC [    17 ]

  Energy converged.

  @DF-RKS Final Energy:  -210.39075510434736

   => Energetics <=

    Nuclear Repulsion Energy =            130.8610619785707456
    One-Electron Energy =                -544.5782461760835531
    Two-Electron Energy =                 226.8181703601320578
    DFT Exchange-Correlation Energy =     -23.4867081869666343
    Empirical Dispersion Energy =          -0.0050330800000000
    VV10 Nonlocal Energy =                  0.0000000000000000
    Total Energy =                       -210.3907551043473632



Properties will be evaluated at   0.000000,   0.000000,   0.000000 [a0]

Properties computed using the SCF density matrix

  Nuclear Dipole Moment: [e a0]
     X:   177.1912      Y:   -31.0560      Z:   -29.4101

  Electronic Dipole Moment: [e a0]
     X:  -176.9817      Y:    31.5532      Z:    30.2343

  Dipole Moment: [e a0]
     X:     0.2095      Y:     0.4972      Z:     0.8242     Total:     0.9851

  Dipole Moment: [D]
     X:     0.5325      Y:     1.2638      Z:     2.0949     Total:     2.5038


*** tstop() called on loro.prib.upf.edu at Sat Sep 29 17:10:23 2018
Module time:
	user time   =      15.30 seconds =       0.26 minutes
	system time =       0.20 seconds =       0.00 minutes
	total time  =         18 seconds =       0.30 minutes
Total time:
	user time   =      15.30 seconds =       0.26 minutes
	system time =       0.20 seconds =       0.00 minutes
	total time  =         18 seconds =       0.30 minutes


Properties will be evaluated at   0.000000,   0.000000,   0.000000 [a0]
OEProp: No title given, name of density matrix used for the following properties is 'SCF density'
  Nuclear Dipole Moment: [e a0]
     X:   177.1912      Y:   -31.0560      Z:   -29.4101

  Electronic Dipole Moment: [e a0]
     X:  -176.9817      Y:    31.5532      Z:    30.2343

  Dipole Moment: [e a0]
     X:     0.2095      Y:     0.4972      Z:     0.8242     Total:     0.9851

  Dipole Moment: [D]
     X:     0.5325      Y:     1.2638      Z:     2.0949     Total:     2.5038

  Quadrupole Moment: [D A]
    XX:   -24.2550     YY:   -24.1940     ZZ:   -27.6890
    XY:     2.3137     XZ:     6.6609     YZ:    -1.4277

  Traceless Quadrupole Moment: [D A]
    XX:     1.1244     YY:     1.1853     ZZ:    -2.3097
    XY:     2.3137     XZ:     6.6609     YZ:    -1.4277

  Mulliken Charges: (a.u.)
   Center  Symbol    Alpha    Beta     Spin     Total
       1     O     4.13807  4.13807  0.00000 -0.27613
       2     C     2.94353  2.94353  0.00000  0.11294
       3     C     2.97839  2.97839  0.00000  0.04322
       4     N     3.59020  3.59020  0.00000 -0.18041
       5     H     0.43078  0.43078  0.00000  0.13845
       6     H     0.50600  0.50600  0.00000 -0.01200
       7     H     0.50119  0.50119  0.00000 -0.00239
       8     H     0.48924  0.48924  0.00000  0.02152
       9     H     0.49143  0.49143  0.00000  0.01713
      10     H     0.46364  0.46364  0.00000  0.07272
      11     H     0.46753  0.46753  0.00000  0.06495

   Total alpha = 17.00000, Total beta = 17.00000, Total charge = -0.00000


    Psi4 stopped on: Saturday, 29 September 2018 05:10PM
    Psi4 wall time for execution: 0:00:17.29

*** Psi4 exiting successfully. Buy a developer a beer!
