
    -----------------------------------------------------------------------
          Psi4: An Open-Source Ab Initio Electronic Structure Package
                               Psi4 1.2.1 release

                         Git: Rev {HEAD} 406f4de 


    R. M. Parrish, L. A. Burns, D. G. A. Smith, A. C. Simmonett,
    A. E. DePrince III, E. G. Hohenstein, U. Bozkaya, A. Yu. Sokolov,
    R. Di Remigio, R. M. Richard, J. F. Gonthier, A. M. James,
    H. R. McAlexander, A. Kumar, M. Saitow, X. Wang, B. P. Pritchard,
    P. Verma, H. F. Schaefer III, K. Patkowski, R. A. King, E. F. Valeev,
    F. A. Evangelista, J. M. Turney, T. D. Crawford, and C. D. Sherrill,
    J. Chem. Theory Comput. 13(7) pp 3185--3197 (2017).
    (doi: 10.1021/acs.jctc.7b00174)


                         Additional Contributions by
    P. Kraus, H. Kruse, M. H. Lechner, M. C. Schieber, and R. A. Shaw

    -----------------------------------------------------------------------


    Psi4 started on: Saturday, 29 September 2018 08:46PM

    Process ID: 4133
    Host:       rosa.prib.upf.edu
    PSIDATADIR: /shared/joao/test_parameterize/miniconda3/share/psi4
    Memory:     500.0 MiB
    Threads:    1
    
  ==> Input File <==

--------------------------------------------------------------------------
set_num_threads(4)
set_memory('3000 MB')

set { scf_mem_safety_factor 0.7 }

set { reference rks }
set { basis 6-31G* }

molecule MOL {
    1 1
    noreorient
    nocom
    symmetry c1
    C   -0.000000  -0.000000  -0.177864
    C    0.036678   1.219374   0.524165
    C    0.031765   1.213120   1.915444
    C    0.000000   0.000000   2.610107
    C   -0.031765  -1.213120   1.915444
    C   -0.036678  -1.219375   0.524165
    C   -0.000000   0.000000  -1.644734
    H    0.018170   2.164705  -0.010854
    H    0.042402   2.152895   2.457886
    H    0.000000   0.000000   3.695756
    H   -0.042402  -2.152895   2.457886
    H   -0.018170  -2.164705  -0.010853
    N    0.034654   1.152098  -2.308460
    N   -0.034654  -1.152097  -2.308461
    H    0.056579  -1.209665  -3.315997
    H   -0.224422  -2.013552  -1.813317
    H    0.224422   2.013552  -1.813316
    H   -0.056579   1.209666  -3.315997
}

set optking { frozen_dihedral = (" 2 1 7 13 ") }

set optking { dynamic_level = 1 
 geom_maxiter = 250
 print_trajectory_xyz_file = True }

energy, wfn = optimize('B3LYP-D3', return_wfn=True)

import os
os.chdir(os.environ['HTMD_PSI4_WORKDIR'])

oeprop(wfn, 'DIPOLE', 'QUADRUPOLE', 'MULLIKEN_CHARGES')

with open('psi4out.xyz', 'w') as f:
    f.write('18 ' )
    f.write('%.12f\n' % energy)
    f.write(MOL.save_string_xyz())
--------------------------------------------------------------------------
  Threads set to 4 by Python driver.

  Memory set to   2.794 GiB by Python driver.
gradient() will perform analytic gradient computation.

*** tstart() called on rosa.prib.upf.edu
*** at Sat Sep 29 20:46:29 2018

   => Loading Basis Set <=

    Name: 6-31G*
    Role: ORBITAL
    Keyword: BASIS
    atoms 1-7         entry C          line   111 file /shared/joao/test_parameterize/miniconda3/share/psi4/basis/6-31gs.gbs 
    atoms 8-12, 15-18 entry H          line    44 file /shared/joao/test_parameterize/miniconda3/share/psi4/basis/6-31gs.gbs 
    atoms 13-14       entry N          line   128 file /shared/joao/test_parameterize/miniconda3/share/psi4/basis/6-31gs.gbs 


         ---------------------------------------------------------
                                   SCF
            by Justin Turney, Rob Parrish, Andy Simmonett
                             and Daniel Smith
                              RKS Reference
                        4 Threads,   2861 MiB Core
         ---------------------------------------------------------

  ==> Geometry <==

    Molecular point group: c1
    Full point group: C1

    Geometry (in Angstrom), charge = 1, multiplicity = 1:

       Center              X                  Y                   Z               Mass       
    ------------   -----------------  -----------------  -----------------  -----------------
         C            0.000000000000     0.000000000000    -0.177864000000    12.000000000000
         C            0.036678000000     1.219374000000     0.524165000000    12.000000000000
         C            0.031765000000     1.213120000000     1.915444000000    12.000000000000
         C            0.000000000000     0.000000000000     2.610107000000    12.000000000000
         C           -0.031765000000    -1.213120000000     1.915444000000    12.000000000000
         C           -0.036678000000    -1.219375000000     0.524165000000    12.000000000000
         C            0.000000000000     0.000000000000    -1.644734000000    12.000000000000
         H            0.018170000000     2.164705000000    -0.010854000000     1.007825032070
         H            0.042402000000     2.152895000000     2.457886000000     1.007825032070
         H            0.000000000000     0.000000000000     3.695756000000     1.007825032070
         H           -0.042402000000    -2.152895000000     2.457886000000     1.007825032070
         H           -0.018170000000    -2.164705000000    -0.010853000000     1.007825032070
         N            0.034654000000     1.152098000000    -2.308460000000    14.003074004780
         N           -0.034654000000    -1.152097000000    -2.308461000000    14.003074004780
         H            0.056579000000    -1.209665000000    -3.315997000000     1.007825032070
         H           -0.224422000000    -2.013552000000    -1.813317000000     1.007825032070
         H            0.224422000000     2.013552000000    -1.813316000000     1.007825032070
         H           -0.056579000000     1.209666000000    -3.315997000000     1.007825032070

  Running in c1 symmetry.

  Rotational constants: A =      0.12190  B =      0.04079  C =      0.03057 [cm^-1]
  Rotational constants: A =   3654.48749  B =   1222.79690  C =    916.48363 [MHz]
  Nuclear repulsion =  417.729204970027752

  Charge       = 1
  Multiplicity = 1
  Electrons    = 64
  Nalpha       = 32
  Nbeta        = 32

  ==> Algorithm <==

  SCF Algorithm Type is DF.
  DIIS enabled.
  MOM disabled.
  Fractional occupation disabled.
  Guess Type is SAD.
  Energy threshold   = 1.00e-08
  Density threshold  = 1.00e-08
  Integral threshold = 0.00e+00

  ==> Primary Basis <==

  Basis Set: 6-31G*
    Blend: 6-31G*
    Number of shells: 72
    Number of basis function: 153
    Number of Cartesian functions: 153
    Spherical Harmonics?: false
    Max angular momentum: 2

  ==> DFT Potential <==

   => Composite Functional: B3LYP-D3ZERO <= 

    B3LYP-d3zero Hyb-GGA Exchange-Correlation Functional

    P. J. Stephens, F. J. Devlin, C. F. Chabalowski, and M. J. Frisch, J. Phys. Chem. 98, 11623 (1994)

    Deriv               =              1
    GGA                 =           TRUE
    Meta                =          FALSE

    Exchange Hybrid     =           TRUE
    MP2 Hybrid          =          FALSE

   => Exchange Functionals <=

    0.0800   Slater exchange
    0.7200         Becke 88

   => Exact (HF) Exchange <=

    0.2000               HF 

   => Correlation Functionals <=

    0.1900   Vosko, Wilk & Nusair (VWN5_RPA)
    0.8100   Lee, Yang & Parr

   => Molecular Quadrature <=

    Radial Scheme       =       TREUTLER
    Pruning Scheme      =           FLAT
    Nuclear Scheme      =       TREUTLER

    BS radius alpha     =              1
    Pruning alpha       =              1
    Radial Points       =             75
    Spherical Points    =            302
    Total Points        =         396516
    Total Blocks        =           3008
    Max Points          =            256
    Max Functions       =            149

   => -D3ZERO: Empirical Dispersion <=

    Grimme's -D3 (zero-damping) Dispersion Correction
    Grimme S.; Antony J.; Ehrlich S.; Krieg H. (2010), J. Chem. Phys., 132: 154104

        S6 =   1.000000E+00
        S8 =   1.703000E+00
       SR6 =   1.261000E+00
       SR8 =   1.000000E+00
    ALPHA6 =   1.400000E+01

   => Loading Basis Set <=

    Name: (6-31G* AUX)
    Role: JKFIT
    Keyword: DF_BASIS_SCF
    atoms 1-7         entry C          line   121 file /shared/joao/test_parameterize/miniconda3/share/psi4/basis/cc-pvdz-jkfit.gbs 
    atoms 8-12, 15-18 entry H          line    51 file /shared/joao/test_parameterize/miniconda3/share/psi4/basis/cc-pvdz-jkfit.gbs 
    atoms 13-14       entry N          line   171 file /shared/joao/test_parameterize/miniconda3/share/psi4/basis/cc-pvdz-jkfit.gbs 

  ==> Pre-Iterations <==

   -------------------------------------------------------
    Irrep   Nso     Nmo     Nalpha   Nbeta   Ndocc  Nsocc
   -------------------------------------------------------
     A        153     153       0       0       0       0
   -------------------------------------------------------
    Total     153     153      32      32      32       0
   -------------------------------------------------------

  ==> Integral Setup <==

  ==> DiskDFJK: Density-Fitted J/K Matrices <==

    J tasked:                  Yes
    K tasked:                  Yes
    wK tasked:                  No
    OpenMP threads:              4
    Integrals threads:           4
    Memory (MB):              2002
    Algorithm:                Core
    Integral Cache:           NONE
    Schwarz Cutoff:          1E-12
    Fitting Condition:       1E-12

   => Auxiliary Basis Set <=

  Basis Set: (6-31G* AUX)
    Blend: CC-PVDZ-JKFIT
    Number of shells: 297
    Number of basis function: 954
    Number of Cartesian functions: 954
    Spherical Harmonics?: false
    Max angular momentum: 3

  Minimum eigenvalue in the overlap matrix is 4.7547286100E-04.
  Using Symmetric Orthogonalization.

  SCF Guess: Superposition of Atomic Densities via on-the-fly atomic UHF.

  ==> Iterations <==

                           Total Energy        Delta E     RMS |[F,P]|

   @DF-RKS iter   0:  -379.49601205019798   -3.79496e+02   6.76548e-02 
   @DF-RKS iter   1:  -381.00415577911349   -1.50814e+00   1.23845e-02 
   @DF-RKS iter   2:  -380.89548669176799    1.08669e-01   1.39648e-02 DIIS
   @DF-RKS iter   3:  -381.45319426493597   -5.57708e-01   2.02066e-03 DIIS
   @DF-RKS iter   4:  -381.46180596048936   -8.61170e-03   8.97552e-04 DIIS
   @DF-RKS iter   5:  -381.46377094314334   -1.96498e-03   2.52955e-04 DIIS
   @DF-RKS iter   6:  -381.46392661542654   -1.55672e-04   8.80429e-05 DIIS
   @DF-RKS iter   7:  -381.46394798847336   -2.13730e-05   2.38134e-05 DIIS
   @DF-RKS iter   8:  -381.46394972710709   -1.73863e-06   6.31054e-06 DIIS
   @DF-RKS iter   9:  -381.46394985341226   -1.26305e-07   2.15450e-06 DIIS
   @DF-RKS iter  10:  -381.46394986669765   -1.32854e-08   6.36959e-07 DIIS
   @DF-RKS iter  11:  -381.46394986774317   -1.04552e-09   1.78475e-07 DIIS
   @DF-RKS iter  12:  -381.46394986783008   -8.69136e-11   8.14425e-08 DIIS
   @DF-RKS iter  13:  -381.46394986785310   -2.30216e-11   1.04749e-08 DIIS
   @DF-RKS iter  14:  -381.46394986785384   -7.38964e-13   5.36048e-09 DIIS

  ==> Post-Iterations <==

    Orbital Energies [Eh]
    ---------------------

    Doubly Occupied:                                                      

       1A    -14.565166     2A    -14.565158     3A    -10.496780  
       4A    -10.376404     5A    -10.362592     6A    -10.362581  
       7A    -10.347266     8A    -10.344536     9A    -10.344483  
      10A     -1.182940    11A     -1.091578    12A     -1.018026  
      13A     -0.929025    14A     -0.907450    15A     -0.848160  
      16A     -0.785893    17A     -0.780287    18A     -0.739362  
      19A     -0.737449    20A     -0.690076    21A     -0.668510  
      22A     -0.634015    23A     -0.608166    24A     -0.604260  
      25A     -0.581159    26A     -0.580356    27A     -0.518379  
      28A     -0.511028    29A     -0.503329    30A     -0.471687  
      31A     -0.413309    32A     -0.409160  

    Virtual:                                                              

      33A     -0.224500    34A     -0.157293    35A     -0.116472  
      36A     -0.113536    37A     -0.078173    38A     -0.071558  
      39A     -0.044563    40A     -0.026212    41A      0.013542  
      42A      0.027637    43A      0.029577    44A      0.066323  
      45A      0.084276    46A      0.091774    47A      0.116674  
      48A      0.132600    49A      0.150438    50A      0.189736  
      51A      0.236837    52A      0.250338    53A      0.303591  
      54A      0.345797    55A      0.350322    56A      0.373434  
      57A      0.393194    58A      0.395499    59A      0.416058  
      60A      0.425501    61A      0.433097    62A      0.449242  
      63A      0.455524    64A      0.470291    65A      0.471116  
      66A      0.473577    67A      0.481156    68A      0.494391  
      69A      0.496122    70A      0.537538    71A      0.568279  
      72A      0.587729    73A      0.630602    74A      0.644479  
      75A      0.664493    76A      0.697896    77A      0.698566  
      78A      0.702802    79A      0.717344    80A      0.751351  
      81A      0.776837    82A      0.786170    83A      0.795508  
      84A      0.820623    85A      0.851413    86A      0.864155  
      87A      0.898459    88A      0.922545    89A      0.960589  
      90A      1.023869    91A      1.057472    92A      1.058659  
      93A      1.084035    94A      1.100905    95A      1.137813  
      96A      1.157297    97A      1.190235    98A      1.272325  
      99A      1.276970   100A      1.309312   101A      1.322494  
     102A      1.340827   103A      1.355696   104A      1.396139  
     105A      1.414796   106A      1.452846   107A      1.517881  
     108A      1.595098   109A      1.639401   110A      1.654002  
     111A      1.662663   112A      1.735526   113A      1.751968  
     114A      1.799773   115A      1.813886   116A      1.870574  
     117A      1.899599   118A      1.913968   119A      1.925712  
     120A      1.980988   121A      1.988105   122A      2.023147  
     123A      2.039808   124A      2.066101   125A      2.106206  
     126A      2.121046   127A      2.148182   128A      2.220905  
     129A      2.282350   130A      2.287678   131A      2.310382  
     132A      2.358119   133A      2.441149   134A      2.485167  
     135A      2.494817   136A      2.499518   137A      2.520483  
     138A      2.590535   139A      2.591672   140A      2.663284  
     141A      2.741225   142A      2.887328   143A      3.015263  
     144A      3.257878   145A      3.650036   146A      3.711640  
     147A      3.901561   148A      3.941615   149A      3.962162  
     150A      4.033509   151A      4.170486   152A      4.258911  
     153A      4.549418  

    Final Occupation by Irrep:
              A 
    DOCC [    32 ]

  Energy converged.

  @DF-RKS Final Energy:  -381.46394986785384

   => Energetics <=

    Nuclear Repulsion Energy =            417.7292049700277516
    One-Electron Energy =               -1330.4780673314612613
    Two-Electron Energy =                 575.7085030551826321
    DFT Exchange-Correlation Energy =     -44.4122097716030169
    Empirical Dispersion Energy =          -0.0113807900000000
    VV10 Nonlocal Energy =                  0.0000000000000000
    Total Energy =                       -381.4639498678538985



Properties will be evaluated at   0.000000,   0.000000,   0.000000 [a0]

Properties computed using the SCF density matrix

  Nuclear Dipole Moment: [e a0]
     X:     0.0000      Y:     0.0000      Z:     0.0248

  Electronic Dipole Moment: [e a0]
     X:     0.0000      Y:    -0.0000      Z:    -2.1599

  Dipole Moment: [e a0]
     X:     0.0000      Y:    -0.0000      Z:    -2.1351     Total:     2.1351

  Dipole Moment: [D]
     X:     0.0000      Y:    -0.0000      Z:    -5.4268     Total:     5.4268


*** tstop() called on rosa.prib.upf.edu at Sat Sep 29 20:46:57 2018
Module time:
	user time   =     100.62 seconds =       1.68 minutes
	system time =       1.40 seconds =       0.02 minutes
	total time  =         28 seconds =       0.47 minutes
Total time:
	user time   =     100.62 seconds =       1.68 minutes
	system time =       1.40 seconds =       0.02 minutes
	total time  =         28 seconds =       0.47 minutes

*** tstart() called on rosa.prib.upf.edu
*** at Sat Sep 29 20:46:57 2018


         ------------------------------------------------------------
                                   SCF GRAD                          
                          Rob Parrish, Justin Turney,                
                       Andy Simmonett, and Alex Sokolov              
         ------------------------------------------------------------

  ==> Geometry <==

    Molecular point group: c1
    Full point group: C1

    Geometry (in Angstrom), charge = 1, multiplicity = 1:

       Center              X                  Y                   Z               Mass       
    ------------   -----------------  -----------------  -----------------  -----------------
         C            0.000000000000     0.000000000000    -0.177864000000    12.000000000000
         C            0.036678000000     1.219374000000     0.524165000000    12.000000000000
         C            0.031765000000     1.213120000000     1.915444000000    12.000000000000
         C            0.000000000000     0.000000000000     2.610107000000    12.000000000000
         C           -0.031765000000    -1.213120000000     1.915444000000    12.000000000000
         C           -0.036678000000    -1.219375000000     0.524165000000    12.000000000000
         C            0.000000000000     0.000000000000    -1.644734000000    12.000000000000
         H            0.018170000000     2.164705000000    -0.010854000000     1.007825032070
         H            0.042402000000     2.152895000000     2.457886000000     1.007825032070
         H            0.000000000000     0.000000000000     3.695756000000     1.007825032070
         H           -0.042402000000    -2.152895000000     2.457886000000     1.007825032070
         H           -0.018170000000    -2.164705000000    -0.010853000000     1.007825032070
         N            0.034654000000     1.152098000000    -2.308460000000    14.003074004780
         N           -0.034654000000    -1.152097000000    -2.308461000000    14.003074004780
         H            0.056579000000    -1.209665000000    -3.315997000000     1.007825032070
         H           -0.224422000000    -2.013552000000    -1.813317000000     1.007825032070
         H            0.224422000000     2.013552000000    -1.813316000000     1.007825032070
         H           -0.056579000000     1.209666000000    -3.315997000000     1.007825032070

  Nuclear repulsion =  417.729204970027752

  ==> Basis Set <==

  Basis Set: 6-31G*
    Blend: 6-31G*
    Number of shells: 72
    Number of basis function: 153
    Number of Cartesian functions: 153
    Spherical Harmonics?: false
    Max angular momentum: 2

  ==> DFJKGrad: Density-Fitted SCF Gradients <==

    Gradient:                    1
    J tasked:                  Yes
    K tasked:                  Yes
    wK tasked:                  No
    OpenMP threads:              4
    Integrals threads:           4
    Memory (MB):              2002
    Schwarz Cutoff:          0E+00
    Fitting Condition:       1E-12

   => Auxiliary Basis Set <=

  Basis Set: (6-31G* AUX)
    Blend: CC-PVDZ-JKFIT
    Number of shells: 297
    Number of basis function: 954
    Number of Cartesian functions: 954
    Spherical Harmonics?: false
    Max angular momentum: 3

  ==> DFT Potential <==

   => Composite Functional: B3LYP-D3ZERO <= 

    B3LYP-d3zero Hyb-GGA Exchange-Correlation Functional

    P. J. Stephens, F. J. Devlin, C. F. Chabalowski, and M. J. Frisch, J. Phys. Chem. 98, 11623 (1994)

    Deriv               =              1
    GGA                 =           TRUE
    Meta                =          FALSE

    Exchange Hybrid     =           TRUE
    MP2 Hybrid          =          FALSE

   => Exchange Functionals <=

    0.0800   Slater exchange
    0.7200         Becke 88

   => Exact (HF) Exchange <=

    0.2000               HF 

   => Correlation Functionals <=

    0.1900   Vosko, Wilk & Nusair (VWN5_RPA)
    0.8100   Lee, Yang & Parr

   => Molecular Quadrature <=

    Radial Scheme       =       TREUTLER
    Pruning Scheme      =           FLAT
    Nuclear Scheme      =       TREUTLER

    BS radius alpha     =              1
    Pruning alpha       =              1
    Radial Points       =             75
    Spherical Points    =            302
    Total Points        =         396516
    Total Blocks        =           3008
    Max Points          =            256
    Max Functions       =            149


  -Total Gradient:
     Atom            X                  Y                   Z
    ------   -----------------  -----------------  -----------------
       1        0.000000025384     0.000000808617     0.001512905409
       2        0.004186091296     0.004610391362    -0.003020116212
       3       -0.000101299116    -0.001925283902     0.001281453935
       4       -0.000000000772    -0.000000072511     0.000538241727
       5        0.000101301962     0.001925526375     0.001281652215
       6       -0.004186098948    -0.004611907987    -0.003020499328
       7       -0.000000027023    -0.000000516823    -0.001949366524
       8       -0.000585575066    -0.001002667377    -0.005338678645
       9       -0.000495227130     0.000102177780    -0.000064787047
      10        0.000000000960     0.000000005779     0.000104550482
      11        0.000495225872    -0.000102187261    -0.000064843658
      12        0.000585567098     0.001003385738    -0.005338191766
      13       -0.002808027898     0.000680435808     0.003510780605
      14        0.002808275529    -0.000679423168     0.003509512496
      15        0.001510896383    -0.000422615918    -0.000775589668
      16       -0.001347422891    -0.000923284754     0.004316957913
      17        0.001347277760     0.000922654402     0.004316609487
      18       -0.001510983294     0.000422573744    -0.000776456631


*** tstop() called on rosa.prib.upf.edu at Sat Sep 29 20:47:05 2018
Module time:
	user time   =      28.67 seconds =       0.48 minutes
	system time =       0.60 seconds =       0.01 minutes
	total time  =          8 seconds =       0.13 minutes
Total time:
	user time   =     129.44 seconds =       2.16 minutes
	system time =       2.01 seconds =       0.03 minutes
	total time  =         36 seconds =       0.60 minutes

			-----------------------------------------
			 OPTKING 2.0: for geometry optimizations 
			  - R.A. King,  Bethel University        
			-----------------------------------------
	At level 1: Red. Int., RFO, no backsteps, dynamic trust

	Internal coordinates to be generated automatically.
	Detected frag 1 with atoms:  1 2 3 4 5 6 7 8 9 10 11 12 13 14 15 16 17 18
	---Fragment 1 Bond Connectivity---
	 1 : 2 6 7
	 2 : 1 3 8
	 3 : 2 4 9
	 4 : 3 5 10
	 5 : 4 6 11
	 6 : 1 5 12
	 7 : 1 13 14
	 8 : 2
	 9 : 3
	 10 : 4
	 11 : 5
	 12 : 6
	 13 : 7 17 18
	 14 : 7 15 16
	 15 : 14
	 16 : 14
	 17 : 13
	 18 : 13

	Assuming in current code that numbering for constraints corresponds to unified fragment.
	Frozen dihedral atom list: 
	     2     1     7    13
	---Fragment 1 Geometry and Gradient---
	 C           0.0000000000        0.0000000000       -0.3361142489
	 C           0.0693113751        2.3042829136        0.9905282984
	 C           0.0600271506        2.2924645663        3.6196645829
	 C           0.0000000000        0.0000000000        4.9323874075
	 C          -0.0600271506       -2.2924645663        3.6196645829
	 C          -0.0693113751       -2.3042848033        0.9905282984
	 C           0.0000000000        0.0000000000       -3.1080968214
	 H           0.0343363238        4.0906996085       -0.0205110874
	 H           0.0801281675        4.0683819429        4.6447314059
	 H           0.0000000000        0.0000000000        6.9839666940
	 H          -0.0801281675       -4.0683819429        4.6447314059
	 H          -0.0343363238       -4.0906996085       -0.0205091977
	 N           0.0654865694        2.1771496982       -4.3623571887
	 N          -0.0654865694       -2.1771478085       -4.3623590784
	 H           0.1069188149       -2.2859355625       -6.2663261875
	 H          -0.4240961182       -3.8050618343       -3.4266725221
	 H           0.4240961182        3.8050618343       -3.4266706324
	 H          -0.1069188149        2.2859374523       -6.2663261875
	             0.0000000254        0.0000008086        0.0015129054
	             0.0041860913        0.0046103914       -0.0030201162
	            -0.0001012991       -0.0019252839        0.0012814539
	            -0.0000000008       -0.0000000725        0.0005382417
	             0.0001013020        0.0019255264        0.0012816522
	            -0.0041860989       -0.0046119080       -0.0030204993
	            -0.0000000270       -0.0000005168       -0.0019493665
	            -0.0005855751       -0.0010026674       -0.0053386786
	            -0.0004952271        0.0001021778       -0.0000647870
	             0.0000000010        0.0000000058        0.0001045505
	             0.0004952259       -0.0001021873       -0.0000648437
	             0.0005855671        0.0010033857       -0.0053381918
	            -0.0028080279        0.0006804358        0.0035107806
	             0.0028082755       -0.0006794232        0.0035095125
	             0.0015108964       -0.0004226159       -0.0007755897
	            -0.0013474229       -0.0009232848        0.0043169579
	             0.0013472778        0.0009226544        0.0043166095
	            -0.0015109833        0.0004225737       -0.0007764566

	Previous optimization step data not found.  Starting new optimization.

	---Fragment 1 Intrafragment Coordinates---
	 - Coordinate -           - BOHR/RAD -       - ANG/DEG -
	 R(1,2)           =         2.659794	       1.407502
	 R(1,6)           =         2.659796	       1.407503
	 R(1,7)           =         2.771983	       1.466870
	 R(2,3)           =         2.629179	       1.391302
	 R(2,8)           =         2.052976	       1.086388
	 R(3,4)           =         2.642393	       1.398294
	 R(3,9)           =         2.050622	       1.085142
	 R(4,5)           =         2.642393	       1.398294
	 R(4,10)          =         2.051579	       1.085649
	 R(5,6)           =         2.629179	       1.391302
	 R(5,11)          =         2.050622	       1.085142
	 R(6,12)          =         2.052973	       1.086386
	 R(7,13)          =         2.513451	       1.330061
	 R(7,14)          =         2.513451	       1.330061
	 R(13,17)         =         1.911598	       1.011574
	 R(13,18)         =         1.914852	       1.013296
	 R(14,15)         =         1.914850	       1.013295
	 R(14,16)         =         1.911600	       1.011575
	 B(1,2,3)         =         2.088380	     119.655376
	 B(1,2,8)         =         2.103396	     120.515689
	 B(1,6,5)         =         2.088379	     119.655315
	 B(1,6,12)        =         2.103396	     120.515729
	 B(1,7,13)        =         2.093263	     119.935127
	 B(1,7,14)        =         2.093264	     119.935186
	 B(2,1,6)         =         2.097220	     120.161857
	 B(2,1,7)         =         2.092983	     119.919082
	 B(2,3,4)         =         2.095279	     120.050636
	 B(2,3,9)         =         2.089719	     119.732108
	 B(3,2,8)         =         2.090149	     119.756722
	 B(3,4,5)         =         2.101793	     120.423859
	 B(3,4,10)        =         2.090696	     119.788070
	 B(4,3,9)         =         2.098135	     120.214297
	 B(4,5,6)         =         2.095280	     120.050677
	 B(4,5,11)        =         2.098135	     120.214297
	 B(5,4,10)        =         2.090696	     119.788070
	 B(5,6,12)        =         2.090149	     119.756743
	 B(6,1,7)         =         2.092982	     119.919061
	 B(6,5,11)        =         2.089719	     119.732067
	 B(7,13,17)       =         2.092412	     119.886371
	 B(7,13,18)       =         2.144859	     122.891393
	 B(7,14,15)       =         2.144860	     122.891454
	 B(7,14,16)       =         2.092411	     119.886342
	 B(13,7,14)       =         2.096659	     120.129687
	 B(15,14,16)      =         2.043399	     117.078145
	 B(17,13,18)      =         2.043400	     117.078176
	 D(1,2,3,4)       =         0.007799	       0.446825
	 D(1,2,3,9)       =        -3.122896	    -178.928735
	 D(1,6,5,4)       =         0.007799	       0.446822
	 D(1,6,5,11)      =        -3.122896	    -178.928737
	 D(1,7,13,17)     =         0.187845	      10.762717
	 D(1,7,13,18)     =        -3.032165	    -173.730257
	 D(1,7,14,15)     =        -3.032165	    -173.730246
	 D(1,7,14,16)     =         0.187845	      10.762701
	 D(2,1,6,5)       =        -0.003906	      -0.223802
	 D(2,1,6,12)      =        -3.091437	    -177.126283
	*D(2,1,7,13)      =        -0.000000	      -0.000000
	 D(2,1,7,14)      =         3.141593	     180.000000
	 D(2,3,4,5)       =        -0.003942	      -0.225875
	 D(2,3,4,10)      =         3.137650	     179.774125
	 D(3,2,1,6)       =        -0.003906	      -0.223806
	 D(3,2,1,7)       =         3.137687	     179.776196
	 D(3,4,5,6)       =        -0.003942	      -0.225874
	 D(3,4,5,11)      =         3.126699	     179.146646
	 D(4,3,2,8)       =         3.095744	     177.373058
	 D(4,5,6,12)      =         3.095744	     177.373055
	 D(5,4,3,9)       =         3.126699	     179.146646
	 D(5,6,1,7)       =         3.137687	     179.776197
	 D(6,1,2,8)       =        -3.091437	    -177.126287
	 D(6,1,7,13)      =         3.141593	     180.000000
	 D(6,1,7,14)      =        -0.000000	      -0.000000
	 D(6,5,4,10)      =         3.137650	     179.774126
	 D(7,1,2,8)       =         0.050156	       2.873714
	 D(7,1,6,12)      =         0.050156	       2.873716
	 D(8,2,3,9)       =        -0.034950	      -2.002503
	 D(9,3,4,10)      =        -0.014894	      -0.853354
	 D(10,4,5,11)     =        -0.014894	      -0.853354
	 D(11,5,6,12)     =        -0.034950	      -2.002504
	 D(13,7,14,15)    =         0.109428	       6.269755
	 D(13,7,14,16)    =        -2.953748	    -169.237297
	 D(14,7,13,17)    =        -2.953748	    -169.237284
	 D(14,7,13,18)    =         0.109428	       6.269742

	Current energy   :      -381.4639498679

	Generating empirical Hessian (Schlegel '84) for each fragment.
	Taking RFO optimization step.
	Going to follow RFO solution 1.
	Using RFO vector 1.
	Norm of target step-size    0.24076
	Projected energy change by RFO approximation:        -0.0068936679

	Back-transformation to cartesian coordinates...
	Could not converge backtransformation.
	Using first guess instead.

	Back-transformation to cartesian coordinates to adjust frozen coordinates...
	Successfully converged to displaced geometry.

	--- Internal Coordinate Step in ANG or DEG, aJ/ANG or AJ/DEG ---
	 ---------------------------------------------------------------------------
	   Coordinate                Previous        Force       Change         New 
	   ----------                --------       ------       ------       ------
	    1 R(1,2)          =      1.407502     0.032208     0.005065     1.412567
	    2 R(1,6)          =      1.407503     0.032198     0.005732     1.413235
	    3 R(1,7)          =      1.466870     0.100043     0.017950     1.484820
	    4 R(2,3)          =      1.391302    -0.012816    -0.001649     1.389653
	    5 R(2,8)          =      1.086388    -0.014560    -0.001763     1.084625
	    6 R(3,4)          =      1.398294    -0.018859    -0.002687     1.395607
	    7 R(3,9)          =      1.085142    -0.000417    -0.000068     1.085074
	    8 R(4,5)          =      1.398294    -0.018863    -0.002633     1.395661
	    9 R(4,10)         =      1.085649    -0.000850    -0.000149     1.085500
	   10 R(5,6)          =      1.391302    -0.012826    -0.001680     1.389622
	   11 R(5,11)         =      1.085142    -0.000417    -0.000036     1.085107
	   12 R(6,12)         =      1.086386    -0.014553    -0.001658     1.084729
	   13 R(7,13)         =      1.330061     0.015154     0.002421     1.332482
	   14 R(7,14)         =      1.330061     0.015156     0.003088     1.333149
	   15 R(13,17)        =      1.011574    -0.025958    -0.002051     1.009523
	   16 R(13,18)        =      1.013296    -0.007690     0.000797     1.014093
	   17 R(14,15)        =      1.013295    -0.007683     0.000668     1.013963
	   18 R(14,16)        =      1.011575    -0.025964    -0.002039     1.009536
	   19 B(1,2,3)        =    119.655376     0.000341     1.129434   120.784810
	   20 B(1,2,8)        =    120.515689     0.000232     1.304252   121.819941
	   21 B(1,6,5)        =    119.655315     0.000341     1.107714   120.763029
	   22 B(1,6,12)       =    120.515729     0.000233     1.328383   121.844113
	   23 B(1,7,13)       =    119.935127     0.000623     1.847189   121.782316
	   24 B(1,7,14)       =    119.935186     0.000623     1.756562   121.691748
	   25 B(2,1,6)        =    120.161857    -0.000687    -1.994771   118.167085
	   26 B(2,1,7)        =    119.919082     0.000343     1.004570   120.923652
	   27 B(2,3,4)        =    120.050636     0.000042     0.060239   120.110875
	   28 B(2,3,9)        =    119.732108    -0.000013     0.008240   119.740348
	   29 B(3,2,8)        =    119.756722    -0.000571    -2.384332   117.372390
	   30 B(3,4,5)        =    120.423859    -0.000079    -0.381623   120.042236
	   31 B(3,4,10)       =    119.788070     0.000040     0.192959   119.981029
	   32 B(4,3,9)        =    120.214297    -0.000029    -0.066946   120.147351
	   33 B(4,5,6)        =    120.050677     0.000042     0.059243   120.109920
	   34 B(4,5,11)       =    120.214297    -0.000029    -0.062128   120.152168
	   35 B(5,4,10)       =    119.788070     0.000040     0.187586   119.975657
	   36 B(5,6,12)       =    119.756743    -0.000572    -2.377073   117.379670
	   37 B(6,1,7)        =    119.919061     0.000343     0.922969   120.842030
	   38 B(6,5,11)       =    119.732067    -0.000013     0.000938   119.733005
	   39 B(7,13,17)      =    119.886371     0.000334     1.505323   121.391694
	   40 B(7,13,18)      =    122.891393    -0.000186    -0.869585   122.021808
	   41 B(7,14,15)      =    122.891454    -0.000186    -0.833499   122.057955
	   42 B(7,14,16)      =    119.886342     0.000334     1.534283   121.420625
	   43 B(13,7,14)      =    120.129687    -0.001247    -3.668911   116.460776
	   44 B(15,14,16)     =    117.078145    -0.000151    -0.798064   116.280081
	   45 B(17,13,18)     =    117.078176    -0.000151    -0.731962   116.346213
	   46 D(1,2,3,4)      =      0.446825    -0.000006    -0.692693    -0.245868
	   47 D(1,2,3,9)      =   -178.928735    -0.000008    -0.883310  -179.812046
	   48 D(1,6,5,4)      =      0.446822    -0.000012    -1.804672    -1.357850
	   49 D(1,6,5,11)     =   -178.928737    -0.000012    -1.624603  -180.553340
	   50 D(1,7,13,17)    =     10.762717     0.000000     0.311845    11.074562
	   51 D(1,7,13,18)    =   -173.730257    -0.000011    -1.033574  -174.763831
	   52 D(1,7,14,15)    =   -173.730246    -0.000028    -4.057967  -177.788213
	   53 D(1,7,14,16)    =     10.762701    -0.000017    -2.695983     8.066719
	   54 D(2,1,6,5)      =     -0.223802     0.000012     1.983376     1.759574
	   55 D(2,1,6,12)     =   -177.126283     0.000003     0.241747  -176.884536
	   56 *D(2,1,7,13)    =      0.000000     0.000000     0.000000     0.000000
	   57 D(2,1,7,14)     =    180.000000     0.000017     3.039294   183.039294
	   58 D(2,3,4,5)      =     -0.225875     0.000006     0.909373     0.683498
	   59 D(2,3,4,10)     =    179.774125     0.000004     0.531657   180.305782
	   60 D(3,2,1,6)      =     -0.223806    -0.000003    -0.733499    -0.957305
	   61 D(3,2,1,7)      =    179.776196     0.000013     2.223790   181.999985
	   62 D(3,4,5,6)      =     -0.225874     0.000003     0.341593     0.115719
	   63 D(3,4,5,11)     =    179.146646     0.000003     0.161165   179.307812
	   64 D(4,3,2,8)      =    177.373058     0.000007     0.673062   178.046120
	   65 D(4,5,6,12)     =    177.373055     0.000003    -0.028010   177.345045
	   66 D(5,4,3,9)      =    179.146646     0.000008     1.101250   180.247897
	   67 D(5,6,1,7)      =    179.776197    -0.000004    -0.971392   178.804805
	   68 D(6,1,2,8)      =   -177.126287    -0.000010    -2.045938  -179.172225
	   69 D(6,1,7,13)     =    180.000000     0.000016     3.035894   183.035894
	   70 D(6,1,7,14)     =      0.000000     0.000033     6.075846     6.075846
	   71 D(6,5,4,10)     =    179.774126     0.000005     0.719289   180.493415
	   72 D(7,1,2,8)      =      2.873714     0.000006     0.911351     3.785065
	   73 D(7,1,6,12)     =      2.873716    -0.000013    -2.713021     0.160695
	   74 D(8,2,3,9)      =     -2.002503     0.000006     0.482445    -1.520058
	   75 D(9,3,4,10)     =     -0.853354     0.000006     0.723534    -0.129819
	   76 D(10,4,5,11)    =     -0.853354     0.000005     0.538861    -0.314493
	   77 D(11,5,6,12)    =     -2.002504     0.000004     0.152059    -1.850445
	   78 D(13,7,14,15)   =      6.269755    -0.000011    -1.171582     5.098174
	   79 D(13,7,14,16)   =   -169.237297     0.000000     0.190402  -169.046895
	   80 D(14,7,13,17)   =   -169.237284    -0.000017    -2.577365  -171.814650
	   81 D(14,7,13,18)   =      6.269742    -0.000028    -3.922785     2.346957
	 ---------------------------------------------------------------------------
	Successfully symmetrized geometry.

  ==> Convergence Check <==

  Measures of convergence in internal coordinates in au.
  Criteria marked as inactive (o), active & met (*), and active & unmet ( ).
  --------------------------------------------------------------------------------------------- ~
   Step     Total Energy     Delta E     MAX Force     RMS Force      MAX Disp      RMS Disp    ~
  --------------------------------------------------------------------------------------------- ~
    Convergence Criteria    1.00e-06 *    3.00e-04 *             o    1.20e-03 *             o  ~
  --------------------------------------------------------------------------------------------- ~
      1    -381.46394987   -3.81e+02      1.64e-02      3.52e-03 o    1.06e-01      2.70e-02 o  ~
  ---------------------------------------------------------------------------------------------

	Writing optimization data to binary file.
	Structure for next step:
	Cartesian Geometry (in Angstrom)
	    C    -0.0178169318   0.0003740074  -0.1693396946
	    C     0.0038494337   1.2120454423   0.5564210529
	    C     0.0137200276   1.2086953422   1.9460346679
	    C    -0.0029328068  -0.0000744133   2.6433997292
	    C    -0.0151399456  -1.2089559848   1.9460287574
	    C    -0.0083203007  -1.2122290417   0.5564274297
	    C     0.0160347694  -0.0006477233  -1.6537737947
	    H    -0.0152829939   2.1763056589   0.0601874175
	    H     0.0272873043   2.1494957066   2.4864946279
	    H    -0.0001958042  -0.0001485577   3.7288961896
	    H    -0.0167595754  -2.1499330822   2.4864134407
	    H     0.0262740473  -2.1760803576   0.0600098595
	    N     0.0677437369   1.1309896680  -2.3553656503
	    N    -0.0638212150  -1.1314333191  -2.3553675668
	    H    -0.0082552796  -1.1417251118  -3.3677542599
	    H    -0.2701737900  -2.0136303555  -1.9100477233
	    H     0.2512088298   2.0180605309  -1.9097385672
	    H     0.0125804938   1.1388925907  -3.3679259157
			--------------------------
			 OPTKING Finished Execution 
			--------------------------

    Structure for next step:
    Molecular point group: c1
    Full point group: C1

    Geometry (in Angstrom), charge = 1, multiplicity = 1:

    C           -0.017816931773     0.000374007414    -0.169339694564
    C            0.003849433663     1.212045442317     0.556421052937
    C            0.013720027619     1.208695342191     1.946034667869
    C           -0.002932806752    -0.000074413282     2.643399729164
    C           -0.015139945645    -1.208955984824     1.946028757397
    C           -0.008320300750    -1.212229041707     0.556427429743
    C            0.016034769432    -0.000647723334    -1.653773794659
    H           -0.015282993859     2.176305658887     0.060187417509
    H            0.027287304347     2.149495706570     2.486494627937
    H           -0.000195804177    -0.000148557660     3.728896189589
    H           -0.016759575358    -2.149933082239     2.486413440746
    H            0.026274047343    -2.176080357587     0.060009859478
    N            0.067743736950     1.130989668033    -2.355365650322
    N           -0.063821214976    -1.131433319052    -2.355367566756
    H           -0.008255279607    -1.141725111751    -3.367754259909
    H           -0.270173790049    -2.013630355527    -1.910047723316
    H            0.251208829754     2.018060530861    -1.909738567172
    H            0.012580493840     1.138892590690    -3.367925915672

gradient() will perform analytic gradient computation.

*** tstart() called on rosa.prib.upf.edu
*** at Sat Sep 29 20:47:05 2018

   => Loading Basis Set <=

    Name: 6-31G*
    Role: ORBITAL
    Keyword: BASIS
    atoms 1-7         entry C          line   111 file /shared/joao/test_parameterize/miniconda3/share/psi4/basis/6-31gs.gbs 
    atoms 8-12, 15-18 entry H          line    44 file /shared/joao/test_parameterize/miniconda3/share/psi4/basis/6-31gs.gbs 
    atoms 13-14       entry N          line   128 file /shared/joao/test_parameterize/miniconda3/share/psi4/basis/6-31gs.gbs 


         ---------------------------------------------------------
                                   SCF
            by Justin Turney, Rob Parrish, Andy Simmonett
                             and Daniel Smith
                              RKS Reference
                        4 Threads,   2861 MiB Core
         ---------------------------------------------------------

  ==> Geometry <==

    Molecular point group: c1
    Full point group: C1

    Geometry (in Angstrom), charge = 1, multiplicity = 1:

       Center              X                  Y                   Z               Mass       
    ------------   -----------------  -----------------  -----------------  -----------------
         C           -0.017816931773     0.000374007414    -0.169339694564    12.000000000000
         C            0.003849433663     1.212045442317     0.556421052937    12.000000000000
         C            0.013720027619     1.208695342191     1.946034667869    12.000000000000
         C           -0.002932806752    -0.000074413282     2.643399729164    12.000000000000
         C           -0.015139945645    -1.208955984824     1.946028757397    12.000000000000
         C           -0.008320300750    -1.212229041707     0.556427429743    12.000000000000
         C            0.016034769432    -0.000647723334    -1.653773794659    12.000000000000
         H           -0.015282993859     2.176305658887     0.060187417509     1.007825032070
         H            0.027287304347     2.149495706570     2.486494627937     1.007825032070
         H           -0.000195804177    -0.000148557660     3.728896189589     1.007825032070
         H           -0.016759575358    -2.149933082239     2.486413440746     1.007825032070
         H            0.026274047343    -2.176080357587     0.060009859478     1.007825032070
         N            0.067743736950     1.130989668033    -2.355365650322    14.003074004780
         N           -0.063821214976    -1.131433319052    -2.355367566756    14.003074004780
         H           -0.008255279607    -1.141725111751    -3.367754259909     1.007825032070
         H           -0.270173790049    -2.013630355527    -1.910047723316     1.007825032070
         H            0.251208829754     2.018060530861    -1.909738567172     1.007825032070
         H            0.012580493840     1.138892590690    -3.367925915672     1.007825032070

  Running in c1 symmetry.

  Rotational constants: A =      0.12385  B =      0.03943  C =      0.02992 [cm^-1]
  Rotational constants: A =   3712.85144  B =   1181.97587  C =    897.09504 [MHz]
  Nuclear repulsion =  415.418660594558844

  Charge       = 1
  Multiplicity = 1
  Electrons    = 64
  Nalpha       = 32
  Nbeta        = 32

  ==> Algorithm <==

  SCF Algorithm Type is DF.
  DIIS enabled.
  MOM disabled.
  Fractional occupation disabled.
  Guess Type is READ.
  Energy threshold   = 1.00e-08
  Density threshold  = 1.00e-08
  Integral threshold = 0.00e+00

  ==> Primary Basis <==

  Basis Set: 6-31G*
    Blend: 6-31G*
    Number of shells: 72
    Number of basis function: 153
    Number of Cartesian functions: 153
    Spherical Harmonics?: false
    Max angular momentum: 2

  ==> DFT Potential <==

   => Composite Functional: B3LYP-D3ZERO <= 

    B3LYP-d3zero Hyb-GGA Exchange-Correlation Functional

    P. J. Stephens, F. J. Devlin, C. F. Chabalowski, and M. J. Frisch, J. Phys. Chem. 98, 11623 (1994)

    Deriv               =              1
    GGA                 =           TRUE
    Meta                =          FALSE

    Exchange Hybrid     =           TRUE
    MP2 Hybrid          =          FALSE

   => Exchange Functionals <=

    0.0800   Slater exchange
    0.7200         Becke 88

   => Exact (HF) Exchange <=

    0.2000               HF 

   => Correlation Functionals <=

    0.1900   Vosko, Wilk & Nusair (VWN5_RPA)
    0.8100   Lee, Yang & Parr

   => Molecular Quadrature <=

    Radial Scheme       =       TREUTLER
    Pruning Scheme      =           FLAT
    Nuclear Scheme      =       TREUTLER

    BS radius alpha     =              1
    Pruning alpha       =              1
    Radial Points       =             75
    Spherical Points    =            302
    Total Points        =         396553
    Total Blocks        =           2981
    Max Points          =            256
    Max Functions       =            149

   => -D3ZERO: Empirical Dispersion <=

    Grimme's -D3 (zero-damping) Dispersion Correction
    Grimme S.; Antony J.; Ehrlich S.; Krieg H. (2010), J. Chem. Phys., 132: 154104

        S6 =   1.000000E+00
        S8 =   1.703000E+00
       SR6 =   1.261000E+00
       SR8 =   1.000000E+00
    ALPHA6 =   1.400000E+01

   => Loading Basis Set <=

    Name: (6-31G* AUX)
    Role: JKFIT
    Keyword: DF_BASIS_SCF
    atoms 1-7         entry C          line   121 file /shared/joao/test_parameterize/miniconda3/share/psi4/basis/cc-pvdz-jkfit.gbs 
    atoms 8-12, 15-18 entry H          line    51 file /shared/joao/test_parameterize/miniconda3/share/psi4/basis/cc-pvdz-jkfit.gbs 
    atoms 13-14       entry N          line   171 file /shared/joao/test_parameterize/miniconda3/share/psi4/basis/cc-pvdz-jkfit.gbs 

  Reading orbitals from file 180, no projection.

  ==> Pre-Iterations <==

   -------------------------------------------------------
    Irrep   Nso     Nmo     Nalpha   Nbeta   Ndocc  Nsocc
   -------------------------------------------------------
     A        153     153       0       0       0       0
   -------------------------------------------------------
    Total     153     153      32      32      32       0
   -------------------------------------------------------

  ==> Integral Setup <==

  ==> DiskDFJK: Density-Fitted J/K Matrices <==

    J tasked:                  Yes
    K tasked:                  Yes
    wK tasked:                  No
    OpenMP threads:              4
    Integrals threads:           4
    Memory (MB):              2002
    Algorithm:                Core
    Integral Cache:           NONE
    Schwarz Cutoff:          1E-12
    Fitting Condition:       1E-12

   => Auxiliary Basis Set <=

  Basis Set: (6-31G* AUX)
    Blend: CC-PVDZ-JKFIT
    Number of shells: 297
    Number of basis function: 954
    Number of Cartesian functions: 954
    Spherical Harmonics?: false
    Max angular momentum: 3

  Minimum eigenvalue in the overlap matrix is 4.6685167168E-04.
  Using Symmetric Orthogonalization.

  SCF Guess: Orbitals guess was supplied from a previous computation.

  ==> Iterations <==

                           Total Energy        Delta E     RMS |[F,P]|

   @DF-RKS iter   0:  -381.43923279791244   -3.81439e+02   1.55626e-03 
   @DF-RKS iter   1:  -381.46520121244868   -2.59684e-02   1.78090e-04 
   @DF-RKS iter   2:  -381.46508597873395    1.15234e-04   2.68880e-04 DIIS
   @DF-RKS iter   3:  -381.46532372918460   -2.37750e-04   5.20275e-05 DIIS
   @DF-RKS iter   4:  -381.46533068470376   -6.95552e-06   2.15180e-05 DIIS
   @DF-RKS iter   5:  -381.46533197799226   -1.29329e-06   5.87706e-06 DIIS
   @DF-RKS iter   6:  -381.46533207397357   -9.59813e-08   1.78164e-06 DIIS
   @DF-RKS iter   7:  -381.46533208317362   -9.20005e-09   3.78297e-07 DIIS
   @DF-RKS iter   8:  -381.46533208347898   -3.05363e-10   1.80733e-07 DIIS
   @DF-RKS iter   9:  -381.46533208356436   -8.53788e-11   5.10099e-08 DIIS
   @DF-RKS iter  10:  -381.46533208357073   -6.36646e-12   1.54689e-08 DIIS
   @DF-RKS iter  11:  -381.46533208357170   -9.66338e-13   5.43443e-09 DIIS

  ==> Post-Iterations <==

    Orbital Energies [Eh]
    ---------------------

    Doubly Occupied:                                                      

       1A    -14.565156     2A    -14.564926     3A    -10.499845  
       4A    -10.380621     5A    -10.361380     6A    -10.361364  
       7A    -10.345763     8A    -10.342337     9A    -10.342291  
      10A     -1.183523    11A     -1.087063    12A     -1.016348  
      13A     -0.927495    14A     -0.905458    15A     -0.848329  
      16A     -0.786977    17A     -0.774877    18A     -0.739744  
      19A     -0.735443    20A     -0.684870    21A     -0.670085  
      22A     -0.631424    23A     -0.607608    24A     -0.602965  
      25A     -0.582806    26A     -0.577370    27A     -0.518071  
      28A     -0.509740    29A     -0.500748    30A     -0.469550  
      31A     -0.413364    32A     -0.407510  

    Virtual:                                                              

      33A     -0.224833    34A     -0.154781    35A     -0.117294  
      36A     -0.114533    37A     -0.076934    38A     -0.073340  
      39A     -0.040616    40A     -0.029852    41A      0.013927  
      42A      0.024331    43A      0.028196    44A      0.066083  
      45A      0.076206    46A      0.081637    47A      0.113926  
      48A      0.124952    49A      0.154956    50A      0.187211  
      51A      0.234783    52A      0.247463    53A      0.301473  
      54A      0.346729    55A      0.352113    56A      0.372403  
      57A      0.392703    58A      0.396316    59A      0.417482  
      60A      0.418922    61A      0.437014    62A      0.452399  
      63A      0.456656    64A      0.468911    65A      0.474751  
      66A      0.475624    67A      0.482334    68A      0.495680  
      69A      0.504953    70A      0.535574    71A      0.565243  
      72A      0.589407    73A      0.632216    74A      0.649263  
      75A      0.662976    76A      0.694505    77A      0.695017  
      78A      0.703694    79A      0.713743    80A      0.745295  
      81A      0.775166    82A      0.779593    83A      0.793271  
      84A      0.811885    85A      0.840459    86A      0.857201  
      87A      0.896792    88A      0.921388    89A      0.961410  
      90A      1.029825    91A      1.042809    92A      1.062238  
      93A      1.080358    94A      1.105435    95A      1.142257  
      96A      1.148057    97A      1.173238    98A      1.270584  
      99A      1.287341   100A      1.314737   101A      1.323796  
     102A      1.343556   103A      1.352976   104A      1.375249  
     105A      1.414693   106A      1.452486   107A      1.507952  
     108A      1.600988   109A      1.635540   110A      1.645790  
     111A      1.652960   112A      1.742784   113A      1.743922  
     114A      1.804469   115A      1.816326   116A      1.849703  
     117A      1.894585   118A      1.921856   119A      1.944239  
     120A      1.974480   121A      1.981913   122A      2.018798  
     123A      2.026601   124A      2.074724   125A      2.100956  
     126A      2.127179   127A      2.154009   128A      2.213303  
     129A      2.264449   130A      2.271002   131A      2.304340  
     132A      2.348332   133A      2.437242   134A      2.484323  
     135A      2.496543   136A      2.501679   137A      2.514361  
     138A      2.594799   139A      2.609673   140A      2.660077  
     141A      2.736482   142A      2.888005   143A      3.001186  
     144A      3.256395   145A      3.642728   146A      3.685391  
     147A      3.892552   148A      3.945211   149A      3.962643  
     150A      4.039188   151A      4.171943   152A      4.259211  
     153A      4.545959  

    Final Occupation by Irrep:
              A 
    DOCC [    32 ]

  Energy converged.

  @DF-RKS Final Energy:  -381.46533208357170

   => Energetics <=

    Nuclear Repulsion Energy =            415.4186605945588440
    One-Electron Energy =               -1325.9346206869531670
    Two-Electron Energy =                 573.4621842197495880
    DFT Exchange-Correlation Energy =     -44.4000630409269448
    Empirical Dispersion Energy =          -0.0114931700000000
    VV10 Nonlocal Energy =                  0.0000000000000000
    Total Energy =                       -381.4653320835717523



Properties will be evaluated at   0.000000,   0.000000,   0.000000 [a0]

Properties computed using the SCF density matrix

  Nuclear Dipole Moment: [e a0]
     X:    -0.0557      Y:    -0.0125      Z:     0.4584

  Electronic Dipole Moment: [e a0]
     X:     0.0615      Y:     0.0145      Z:    -2.6403

  Dipole Moment: [e a0]
     X:     0.0057      Y:     0.0019      Z:    -2.1818     Total:     2.1818

  Dipole Moment: [D]
     X:     0.0146      Y:     0.0049      Z:    -5.5456     Total:     5.5457


*** tstop() called on rosa.prib.upf.edu at Sat Sep 29 20:47:28 2018
Module time:
	user time   =      82.86 seconds =       1.38 minutes
	system time =       0.81 seconds =       0.01 minutes
	total time  =         23 seconds =       0.38 minutes
Total time:
	user time   =     213.10 seconds =       3.55 minutes
	system time =       2.89 seconds =       0.05 minutes
	total time  =         59 seconds =       0.98 minutes

*** tstart() called on rosa.prib.upf.edu
*** at Sat Sep 29 20:47:28 2018


         ------------------------------------------------------------
                                   SCF GRAD                          
                          Rob Parrish, Justin Turney,                
                       Andy Simmonett, and Alex Sokolov              
         ------------------------------------------------------------

  ==> Geometry <==

    Molecular point group: c1
    Full point group: C1

    Geometry (in Angstrom), charge = 1, multiplicity = 1:

       Center              X                  Y                   Z               Mass       
    ------------   -----------------  -----------------  -----------------  -----------------
         C           -0.017816931773     0.000374007414    -0.169339694564    12.000000000000
         C            0.003849433663     1.212045442317     0.556421052937    12.000000000000
         C            0.013720027619     1.208695342191     1.946034667869    12.000000000000
         C           -0.002932806752    -0.000074413282     2.643399729164    12.000000000000
         C           -0.015139945645    -1.208955984824     1.946028757397    12.000000000000
         C           -0.008320300750    -1.212229041707     0.556427429743    12.000000000000
         C            0.016034769432    -0.000647723334    -1.653773794659    12.000000000000
         H           -0.015282993859     2.176305658887     0.060187417509     1.007825032070
         H            0.027287304347     2.149495706570     2.486494627937     1.007825032070
         H           -0.000195804177    -0.000148557660     3.728896189589     1.007825032070
         H           -0.016759575358    -2.149933082239     2.486413440746     1.007825032070
         H            0.026274047343    -2.176080357587     0.060009859478     1.007825032070
         N            0.067743736950     1.130989668033    -2.355365650322    14.003074004780
         N           -0.063821214976    -1.131433319052    -2.355367566756    14.003074004780
         H           -0.008255279607    -1.141725111751    -3.367754259909     1.007825032070
         H           -0.270173790049    -2.013630355527    -1.910047723316     1.007825032070
         H            0.251208829754     2.018060530861    -1.909738567172     1.007825032070
         H            0.012580493840     1.138892590690    -3.367925915672     1.007825032070

  Nuclear repulsion =  415.418660594558844

  ==> Basis Set <==

  Basis Set: 6-31G*
    Blend: 6-31G*
    Number of shells: 72
    Number of basis function: 153
    Number of Cartesian functions: 153
    Spherical Harmonics?: false
    Max angular momentum: 2

  ==> DFJKGrad: Density-Fitted SCF Gradients <==

    Gradient:                    1
    J tasked:                  Yes
    K tasked:                  Yes
    wK tasked:                  No
    OpenMP threads:              4
    Integrals threads:           4
    Memory (MB):              2002
    Schwarz Cutoff:          0E+00
    Fitting Condition:       1E-12

   => Auxiliary Basis Set <=

  Basis Set: (6-31G* AUX)
    Blend: CC-PVDZ-JKFIT
    Number of shells: 297
    Number of basis function: 954
    Number of Cartesian functions: 954
    Spherical Harmonics?: false
    Max angular momentum: 3

  ==> DFT Potential <==

   => Composite Functional: B3LYP-D3ZERO <= 

    B3LYP-d3zero Hyb-GGA Exchange-Correlation Functional

    P. J. Stephens, F. J. Devlin, C. F. Chabalowski, and M. J. Frisch, J. Phys. Chem. 98, 11623 (1994)

    Deriv               =              1
    GGA                 =           TRUE
    Meta                =          FALSE

    Exchange Hybrid     =           TRUE
    MP2 Hybrid          =          FALSE

   => Exchange Functionals <=

    0.0800   Slater exchange
    0.7200         Becke 88

   => Exact (HF) Exchange <=

    0.2000               HF 

   => Correlation Functionals <=

    0.1900   Vosko, Wilk & Nusair (VWN5_RPA)
    0.8100   Lee, Yang & Parr

   => Molecular Quadrature <=

    Radial Scheme       =       TREUTLER
    Pruning Scheme      =           FLAT
    Nuclear Scheme      =       TREUTLER

    BS radius alpha     =              1
    Pruning alpha       =              1
    Radial Points       =             75
    Spherical Points    =            302
    Total Points        =         396553
    Total Blocks        =           2981
    Max Points          =            256
    Max Functions       =            149


  -Total Gradient:
     Atom            X                  Y                   Z
    ------   -----------------  -----------------  -----------------
       1       -0.005944359458     0.000573502904     0.003258537557
       2        0.002393697575     0.000672747231     0.002794211576
       3        0.000457640939    -0.000227100722     0.000376788928
       4       -0.000170417993     0.000030620214    -0.001362741579
       5       -0.000184576201     0.000246897588     0.000389107744
       6       -0.000190558493    -0.001043962665     0.002954332086
       7        0.007715090091     0.000237162235    -0.001983740672
       8       -0.000028567676    -0.000442371298     0.001264784107
       9        0.000066879510    -0.000175011943     0.000470460406
      10        0.000029276105    -0.000005299198    -0.000094005704
      11       -0.000042365508     0.000148140184     0.000457892424
      12        0.000204576092     0.000348846154     0.001290462151
      13       -0.003898753419    -0.003158994474    -0.003219411799
      14        0.000569119041     0.002865283693    -0.003407844303
      15        0.000344773369     0.000145892506    -0.001605546896
      16       -0.000824552651     0.000286048470    -0.000049380794
      17        0.000207384374    -0.000254967033     0.000165925267
      18       -0.000704923406    -0.000247042598    -0.001705882461


*** tstop() called on rosa.prib.upf.edu at Sat Sep 29 20:47:36 2018
Module time:
	user time   =      28.69 seconds =       0.48 minutes
	system time =       0.74 seconds =       0.01 minutes
	total time  =          8 seconds =       0.13 minutes
Total time:
	user time   =     241.85 seconds =       4.03 minutes
	system time =       3.64 seconds =       0.06 minutes
	total time  =         67 seconds =       1.12 minutes

			-----------------------------------------
			 OPTKING 2.0: for geometry optimizations 
			  - R.A. King,  Bethel University        
			-----------------------------------------
	At level 1: Red. Int., RFO, no backsteps, dynamic trust

	Previous internal coordinate definitions found.
	---Fragment 1 Geometry and Gradient---
	 C          -0.0336691216        0.0007067716       -0.3200056462
	 C           0.0072743754        2.2904339466        1.0514834046
	 C           0.0259270947        2.2841031748        3.6774725674
	 C          -0.0055422016       -0.0001406207        4.9953015479
	 C          -0.0286103509       -2.2845957180        3.6774613982
	 C          -0.0157230898       -2.2907808992        1.0514954550
	 C           0.0303013228       -0.0012240197       -3.1251795576
	 H          -0.0288806729        4.1126216767        0.1137377357
	 H           0.0515655321        4.0619582092        4.6987938777
	 H          -0.0003700163       -0.0002807333        7.0465925763
	 H          -0.0316710075       -4.0627847295        4.6986404561
	 H           0.0496507539       -4.1121959190        0.1134021997
	 N           0.1280171101        2.1372607317       -4.4509960219
	 N          -0.1206046178       -2.1380991106       -4.4509996434
	 H          -0.0156002176       -2.1575477802       -6.3641332341
	 H          -0.5105544715       -3.8052099048       -3.6094670978
	 H           0.4747158904        3.8135817229       -3.6088828774
	 H           0.0237736880        2.1521950912       -6.3644576165
	            -0.0059443595        0.0005735029        0.0032585376
	             0.0023936976        0.0006727472        0.0027942116
	             0.0004576409       -0.0002271007        0.0003767889
	            -0.0001704180        0.0000306202       -0.0013627416
	            -0.0001845762        0.0002468976        0.0003891077
	            -0.0001905585       -0.0010439627        0.0029543321
	             0.0077150901        0.0002371622       -0.0019837407
	            -0.0000285677       -0.0004423713        0.0012647841
	             0.0000668795       -0.0001750119        0.0004704604
	             0.0000292761       -0.0000052992       -0.0000940057
	            -0.0000423655        0.0001481402        0.0004578924
	             0.0002045761        0.0003488462        0.0012904622
	            -0.0038987534       -0.0031589945       -0.0032194118
	             0.0005691190        0.0028652837       -0.0034078443
	             0.0003447734        0.0001458925       -0.0016055469
	            -0.0008245527        0.0002860485       -0.0000493808
	             0.0002073844       -0.0002549670        0.0001659253
	            -0.0007049234       -0.0002470426       -0.0017058825

	---Fragment 1 Intrafragment Coordinates---
	 - Coordinate -           - BOHR/RAD -       - ANG/DEG -
	 R(1,2)           =         2.669365	       1.412567
	 R(1,6)           =         2.670628	       1.413235
	 R(1,7)           =         2.805904	       1.484820
	 R(2,3)           =         2.626063	       1.389653
	 R(2,8)           =         2.049644	       1.084625
	 R(3,4)           =         2.637316	       1.395607
	 R(3,9)           =         2.050493	       1.085074
	 R(4,5)           =         2.637417	       1.395661
	 R(4,10)          =         2.051298	       1.085500
	 R(5,6)           =         2.626005	       1.389622
	 R(5,11)          =         2.050554	       1.085107
	 R(6,12)          =         2.049840	       1.084729
	 R(7,13)          =         2.518026	       1.332482
	 R(7,14)          =         2.519287	       1.333149
	 R(13,17)         =         1.907723	       1.009523
	 R(13,18)         =         1.916357	       1.014093
	 R(14,15)         =         1.916112	       1.013963
	 R(14,16)         =         1.907746	       1.009536
	 B(1,2,3)         =         2.108093	     120.784810
	 B(1,2,8)         =         2.126159	     121.819941
	 B(1,6,5)         =         2.107712	     120.763029
	 B(1,6,12)        =         2.126581	     121.844113
	 B(1,7,13)        =         2.125502	     121.782316
	 B(1,7,14)        =         2.123922	     121.691748
	 B(2,1,6)         =         2.062405	     118.167085
	 B(2,1,7)         =         2.110516	     120.923652
	 B(2,3,4)         =         2.096330	     120.110875
	 B(2,3,9)         =         2.089863	     119.740348
	 B(3,2,8)         =         2.048535	     117.372390
	 B(3,4,5)         =         2.095132	     120.042236
	 B(3,4,10)        =         2.094064	     119.981029
	 B(4,3,9)         =         2.096967	     120.147351
	 B(4,5,6)         =         2.096314	     120.109920
	 B(4,5,11)        =         2.097051	     120.152168
	 B(5,4,10)        =         2.093970	     119.975657
	 B(5,6,12)        =         2.048662	     117.379670
	 B(6,1,7)         =         2.109091	     120.842030
	 B(6,5,11)        =         2.089735	     119.733005
	 B(7,13,17)       =         2.118685	     121.391694
	 B(7,13,18)       =         2.129682	     122.021808
	 B(7,14,15)       =         2.130313	     122.057955
	 B(7,14,16)       =         2.119190	     121.420625
	 B(13,7,14)       =         2.032624	     116.460776
	 B(15,14,16)      =         2.029470	     116.280081
	 B(17,13,18)      =         2.030624	     116.346213
	 D(1,2,3,4)       =        -0.004291	      -0.245868
	 D(1,2,3,9)       =        -3.138312	    -179.812046
	 D(1,6,5,4)       =        -0.023699	      -1.357850
	 D(1,6,5,11)      =         3.131935	     179.446660
	 D(1,7,13,17)     =         0.193288	      11.074562
	 D(1,7,13,18)     =        -3.050204	    -174.763831
	 D(1,7,14,15)     =        -3.102990	    -177.788213
	 D(1,7,14,16)     =         0.140791	       8.066719
	 D(2,1,6,5)       =         0.030710	       1.759574
	 D(2,1,6,12)      =        -3.087218	    -176.884536
	*D(2,1,7,13)      =        -0.000000	      -0.000000
	 D(2,1,7,14)      =        -3.088547	    -176.960706
	 D(2,3,4,5)       =         0.011929	       0.683498
	 D(2,3,4,10)      =        -3.136256	    -179.694218
	 D(3,2,1,6)       =        -0.016708	      -0.957305
	 D(3,2,1,7)       =        -3.106686	    -178.000015
	 D(3,4,5,6)       =         0.002020	       0.115719
	 D(3,4,5,11)      =         3.129512	     179.307812
	 D(4,3,2,8)       =         3.107491	     178.046120
	 D(4,5,6,12)      =         3.095255	     177.345045
	 D(5,4,3,9)       =        -3.137266	    -179.752103
	 D(5,6,1,7)       =         3.120733	     178.804805
	 D(6,1,2,8)       =        -3.127145	    -179.172225
	 D(6,1,7,13)      =        -3.088606	    -176.964106
	 D(6,1,7,14)      =         0.106044	       6.075846
	 D(6,5,4,10)      =        -3.132981	    -179.506585
	 D(7,1,2,8)       =         0.066062	       3.785065
	 D(7,1,6,12)      =         0.002805	       0.160695
	 D(8,2,3,9)       =        -0.026530	      -1.520058
	 D(9,3,4,10)      =        -0.002266	      -0.129819
	 D(10,4,5,11)     =        -0.005489	      -0.314493
	 D(11,5,6,12)     =        -0.032296	      -1.850445
	 D(13,7,14,15)    =         0.088980	       5.098174
	 D(13,7,14,16)    =        -2.950425	    -169.046895
	 D(14,7,13,17)    =        -2.998731	    -171.814650
	 D(14,7,13,18)    =         0.040962	       2.346957

	Current energy   :      -381.4653320836

	Energy change for the previous step:
		Projected    :        -0.0068936679
		Actual       :        -0.0013822157
	Energy ratio indicates iffy step: Trust radius decreased to 1.250e-01.


	Performing BFGS update.
	Previous computed or guess Hessian on step 1.
	Steps to be used in Hessian update: 1
	Taking RFO optimization step.
	Going to follow RFO solution 1.
	Using RFO vector 1.
	Norm of target step-size    0.07634
	Projected energy change by RFO approximation:        -0.0006853194

	Back-transformation to cartesian coordinates...
	Successfully converged to displaced geometry.

	Back-transformation to cartesian coordinates to adjust frozen coordinates...
	Successfully converged to displaced geometry.

	--- Internal Coordinate Step in ANG or DEG, aJ/ANG or AJ/DEG ---
	 ---------------------------------------------------------------------------
	   Coordinate                Previous        Force       Change         New 
	   ----------                --------       ------       ------       ------
	    1 R(1,2)          =      1.412567    -0.028121    -0.002827     1.409740
	    2 R(1,6)          =      1.413235    -0.031658    -0.003350     1.409885
	    3 R(1,7)          =      1.484820    -0.097862    -0.011466     1.473355
	    4 R(2,3)          =      1.389653    -0.001034    -0.000218     1.389435
	    5 R(2,8)          =      1.084625     0.008005     0.000692     1.085318
	    6 R(3,4)          =      1.395607     0.014338     0.001392     1.397000
	    7 R(3,9)          =      1.085074    -0.000688    -0.000096     1.084979
	    8 R(4,5)          =      1.395661     0.014226     0.001361     1.397022
	    9 R(4,10)         =      1.085500     0.000771     0.000090     1.085590
	   10 R(5,6)          =      1.389622    -0.000918    -0.000216     1.389406
	   11 R(5,11)         =      1.085107    -0.000822    -0.000120     1.084986
	   12 R(6,12)         =      1.084729     0.007367     0.000586     1.085315
	   13 R(7,13)         =      1.332482     0.006380     0.000417     1.332899
	   14 R(7,14)         =      1.333149     0.001139    -0.000137     1.333013
	   15 R(13,17)        =      1.009523     0.000930    -0.000475     1.009048
	   16 R(13,18)        =      1.014093    -0.014330    -0.001935     1.012157
	   17 R(14,15)        =      1.013963    -0.013348    -0.001807     1.012156
	   18 R(14,16)        =      1.009536     0.000849    -0.000486     1.009050
	   19 B(1,2,3)        =    120.784810    -0.000115    -0.221807   120.563003
	   20 B(1,2,8)        =    121.819941    -0.000015    -0.011527   121.808415
	   21 B(1,6,5)        =    120.763029    -0.000109    -0.205036   120.557993
	   22 B(1,6,12)       =    121.844113    -0.000023    -0.033194   121.810918
	   23 B(1,7,13)       =    121.782316    -0.000376    -0.689476   121.092840
	   24 B(1,7,14)       =    121.691748    -0.000399    -0.719135   120.972614
	   25 B(2,1,6)        =    118.167085     0.000312     0.475357   118.642443
	   26 B(2,1,7)        =    120.923652    -0.000146    -0.250073   120.673579
	   27 B(2,3,4)        =    120.110875    -0.000029    -0.015802   120.095073
	   28 B(2,3,9)        =    119.740348    -0.000024    -0.119324   119.621024
	   29 B(3,2,8)        =    117.372390     0.000129     0.229622   117.602012
	   30 B(3,4,5)        =    120.042236    -0.000032    -0.021939   120.020297
	   31 B(3,4,10)       =    119.981029     0.000016     0.009303   119.990332
	   32 B(4,3,9)        =    120.147351     0.000053     0.136432   120.283782
	   33 B(4,5,6)        =    120.109920    -0.000028    -0.019054   120.090866
	   34 B(4,5,11)       =    120.152168     0.000051     0.130446   120.282614
	   35 B(5,4,10)       =    119.975657     0.000016     0.012644   119.988300
	   36 B(5,6,12)       =    117.379670     0.000131     0.242811   117.622481
	   37 B(6,1,7)        =    120.842030    -0.000166    -0.278148   120.563883
	   38 B(6,5,11)       =    119.733005    -0.000023    -0.109724   119.623281
	   39 B(7,13,17)      =    121.391694     0.000011     0.124328   121.516022
	   40 B(7,13,18)      =    122.021808     0.000016    -0.025627   121.996181
	   41 B(7,14,15)      =    122.057955     0.000013    -0.001557   122.056398
	   42 B(7,14,16)      =    121.420625     0.000005     0.131081   121.551706
	   43 B(13,7,14)      =    116.460776     0.000775     1.433180   117.893956
	   44 B(15,14,16)     =    116.280081    -0.000015    -0.067058   116.213023
	   45 B(17,13,18)     =    116.346213    -0.000029    -0.157865   116.188348
	   46 D(1,2,3,4)      =     -0.245868     0.000005     0.527576     0.281708
	   47 D(1,2,3,9)      =   -179.812046     0.000003     0.219718  -179.592327
	   48 D(1,6,5,4)      =     -1.357850     0.000002     0.010471    -1.347379
	   49 D(1,6,5,11)     =    179.446660     0.000001    -0.141263   179.305397
	   50 D(1,7,13,17)    =     11.074562    -0.000005    -0.780340    10.294222
	   51 D(1,7,13,18)    =   -174.763831    -0.000010    -1.467356  -176.231186
	   52 D(1,7,14,15)    =   -177.788213    -0.000001    -0.325364  -178.113577
	   53 D(1,7,14,16)    =      8.066719    -0.000011    -1.134653     6.932066
	   54 D(2,1,6,5)      =      1.759574     0.000002     0.368925     2.128499
	   55 D(2,1,6,12)     =   -176.884536     0.000001     0.105873  -176.778663
	   56 *D(2,1,7,13)    =      0.000000    -0.000000     0.000000     0.000000
	   57 D(2,1,7,14)     =   -176.960706    -0.000011    -0.673868  -177.634574
	   58 D(2,3,4,5)      =      0.683498    -0.000002    -0.146898     0.536599
	   59 D(2,3,4,10)     =   -179.694218    -0.000002    -0.145601  -179.839819
	   60 D(3,2,1,6)      =     -0.957305    -0.000005    -0.637616    -1.594921
	   61 D(3,2,1,7)      =   -178.000015     0.000001     0.366811  -177.633203
	   62 D(3,4,5,6)      =      0.115719    -0.000001    -0.120136    -0.004417
	   63 D(3,4,5,11)     =    179.307812     0.000000     0.030652   179.338464
	   64 D(4,3,2,8)      =    178.046120     0.000002     0.394184   178.440304
	   65 D(4,5,6,12)     =    177.345045     0.000002     0.259429   177.604474
	   66 D(5,4,3,9)      =   -179.752103    -0.000000     0.161895  -179.590208
	   67 D(5,6,1,7)      =    178.804805    -0.000005    -0.633530   178.171275
	   68 D(6,1,2,8)      =   -179.172225    -0.000003    -0.502451  -179.674676
	   69 D(6,1,7,13)     =   -176.964106     0.000003     1.001412  -175.962693
	   70 D(6,1,7,14)     =      6.075846    -0.000008     0.327640     6.403486
	   71 D(6,5,4,10)     =   -179.506585    -0.000002    -0.121421  -179.628006
	   72 D(7,1,2,8)      =      3.785065     0.000004     0.501976     4.287042
	   73 D(7,1,6,12)     =      0.160695    -0.000005    -0.896582    -0.735887
	   74 D(8,2,3,9)      =     -1.520058    -0.000000     0.086327    -1.433731
	   75 D(9,3,4,10)     =     -0.129819     0.000001     0.163193     0.033373
	   76 D(10,4,5,11)    =     -0.314493    -0.000000     0.029367    -0.285125
	   77 D(11,5,6,12)    =     -1.850445     0.000001     0.107695    -1.742750
	   78 D(13,7,14,15)   =      5.098174    -0.000005    -0.919191     4.178983
	   79 D(13,7,14,16)   =   -169.046895    -0.000014    -1.728480  -170.775375
	   80 D(14,7,13,17)   =   -171.814650    -0.000002    -0.186585  -172.001235
	   81 D(14,7,13,18)   =      2.346957    -0.000006    -0.873601     1.473357
	 ---------------------------------------------------------------------------
	Successfully symmetrized geometry.

  ==> Convergence Check <==

  Measures of convergence in internal coordinates in au.
  Criteria marked as inactive (o), active & met (*), and active & unmet ( ).
  ---------------------------------------------------------------------------------------------
   Step     Total Energy     Delta E     MAX Force     RMS Force      MAX Disp      RMS Disp   
  ---------------------------------------------------------------------------------------------
    Convergence Criteria    1.00e-06 *    3.00e-04 *             o    1.20e-03 *             o
  ---------------------------------------------------------------------------------------------
      2    -381.46533208   -1.38e-03      1.19e-02      2.16e-03 o    3.02e-02      8.48e-03 o  ~
  ---------------------------------------------------------------------------------------------

	Writing optimization data to binary file.
	Structure for next step:
	Cartesian Geometry (in Angstrom)
	    C    -0.0316652225   0.0008455278  -0.1753542401
	    C    -0.0055517310   1.2130024401   0.5439238507
	    C     0.0049771920   1.2099978768   1.9333152654
	    C    -0.0043652404  -0.0001018863   2.6312973015
	    C    -0.0129942148  -1.2098762881   1.9326974337
	    C    -0.0123951535  -1.2119820919   0.5432931753
	    C     0.0094417910  -0.0002538489  -1.6481351103
	    H    -0.0238842974   2.1757723250   0.0432720797
	    H     0.0184001730   2.1519763650   2.4715296669
	    H     0.0012568537  -0.0004350214   3.7168728065
	    H    -0.0094486256  -2.1522269068   2.4704312200
	    H     0.0209150546  -2.1737865756   0.0415652150
	    N     0.0721027133   1.1398088682  -2.3358497805
	    N    -0.0620306642  -1.1401098645  -2.3355525208
	    H    -0.0072057559  -1.1624263092  -3.3459759844
	    H    -0.2490006000  -2.0207298619  -1.8797765917
	    H     0.2468693818   2.0224198239  -1.8790865789
	    H     0.0445783458   1.1581064278  -3.3474672082
			--------------------------
			 OPTKING Finished Execution 
			--------------------------

    Structure for next step:
    Molecular point group: c1
    Full point group: C1

    Geometry (in Angstrom), charge = 1, multiplicity = 1:

    C           -0.031665222479     0.000845527768    -0.175354240099
    C           -0.005551731027     1.213002440092     0.543923850722
    C            0.004977192019     1.209997876770     1.933315265354
    C           -0.004365240440    -0.000101886330     2.631297301530
    C           -0.012994214823    -1.209876288053     1.932697433737
    C           -0.012395153490    -1.211982091866     0.543293175329
    C            0.009441791043    -0.000253848915    -1.648135110332
    H           -0.023884297367     2.175772325024     0.043272079730
    H            0.018400173034     2.151976364954     2.471529666893
    H            0.001256853657    -0.000435021439     3.716872806504
    H           -0.009448625566    -2.152226906760     2.470431219976
    H            0.020915054599    -2.173786575624     0.041565215035
    N            0.072102713309     1.139808868188    -2.335849780504
    N           -0.062030664182    -1.140109864524    -2.335552520765
    H           -0.007205755871    -1.162426309155    -3.345975984384
    H           -0.249000600022    -2.020729861859    -1.879776591678
    H            0.246869381843     2.022419823906    -1.879086578865
    H            0.044578345761     1.158106427823    -3.347467208184

gradient() will perform analytic gradient computation.

*** tstart() called on rosa.prib.upf.edu
*** at Sat Sep 29 20:47:36 2018

   => Loading Basis Set <=

    Name: 6-31G*
    Role: ORBITAL
    Keyword: BASIS
    atoms 1-7         entry C          line   111 file /shared/joao/test_parameterize/miniconda3/share/psi4/basis/6-31gs.gbs 
    atoms 8-12, 15-18 entry H          line    44 file /shared/joao/test_parameterize/miniconda3/share/psi4/basis/6-31gs.gbs 
    atoms 13-14       entry N          line   128 file /shared/joao/test_parameterize/miniconda3/share/psi4/basis/6-31gs.gbs 


         ---------------------------------------------------------
                                   SCF
            by Justin Turney, Rob Parrish, Andy Simmonett
                             and Daniel Smith
                              RKS Reference
                        4 Threads,   2861 MiB Core
         ---------------------------------------------------------

  ==> Geometry <==

    Molecular point group: c1
    Full point group: C1

    Geometry (in Angstrom), charge = 1, multiplicity = 1:

[...]
	 R(10,X)          =         0.012779	       0.006762
	 R(10,Y)          =         0.000005	       0.000003
	 R(10,Z)          =         7.023906	       3.716891
	 R(11,X)          =        -0.029315	      -0.015513
	 R(11,Y)          =        -4.067062	      -2.152196
	 R(11,Z)          =         4.667034	       2.469688
	 R(12,X)          =        -0.007182	      -0.003801
	 R(12,Y)          =        -4.109587	      -2.174700
	 R(12,Z)          =         0.079634	       0.042140
	 R(13,X)          =         0.122879	       0.065025
	 R(13,Y)          =         2.153962	       1.139827
	 R(13,Z)          =        -4.413145	      -2.335336
	 R(14,X)          =        -0.115620	      -0.061184
	 R(14,Y)          =        -2.152517	      -1.139063
	 R(14,Z)          =        -4.414852	      -2.336239
	 R(15,X)          =        -0.052973	      -0.028032
	 R(15,Y)          =        -2.192893	      -1.160429
	 R(15,Z)          =        -6.326276	      -3.347721
	 R(16,X)          =        -0.384898	      -0.203679
	 R(16,Y)          =        -3.828045	      -2.025714
	 R(16,Z)          =        -3.545982	      -1.876453
	 R(17,X)          =         0.403713	       0.213636
	 R(17,Y)          =         3.826706	       2.025005
	 R(17,Z)          =        -3.542114	      -1.874406
	 R(18,X)          =         0.132890	       0.070323
	 R(18,Y)          =         2.188442	       1.158074
	 R(18,Z)          =        -6.325752	      -3.347444

	Current energy   :      -381.4658599715

	Energy change for the previous step:
		Projected    :        -0.0000008932
		Actual       :        -0.0000009175

	Performing BFGS update.
	Previous computed or guess Hessian on step 1.
	Steps to be used in Hessian update: 3 2
	Taking RFO optimization step.
	Going to follow RFO solution 1.
	Rejecting RFO root 1 because normalization gives large value.
	Using RFO vector 2.
	Norm of target step-size    0.00214
	Projected energy change by RFO approximation:        -0.0000003868

	Back-transformation to cartesian coordinates...
	Successfully converged to displaced geometry.

	Back-transformation to cartesian coordinates to adjust frozen coordinates...
	Successfully converged to displaced geometry.

	--- Internal Coordinate Step in ANG or DEG, aJ/ANG or AJ/DEG ---
	 ---------------------------------------------------------------------------
	   Coordinate                Previous        Force       Change         New 
	   ----------                --------       ------       ------       ------
	    1 R(1,2)          =      1.409648     0.000052     0.000001     1.409649
	    2 R(1,6)          =      1.409651     0.000113     0.000011     1.409662
	    3 R(1,7)          =      1.472260    -0.000635    -0.000114     1.472145
	    4 R(2,3)          =      1.389667     0.000080     0.000025     1.389692
	    5 R(2,8)          =      1.085513     0.000077     0.000018     1.085530
	    6 R(3,4)          =      1.397108     0.000055     0.000011     1.397119
	    7 R(3,9)          =      1.084978    -0.000002     0.000002     1.084980
	    8 R(4,5)          =      1.397077     0.000053     0.000009     1.397086
	    9 R(4,10)         =      1.085535    -0.000019    -0.000003     1.085532
	   10 R(5,6)          =      1.389694     0.000095     0.000027     1.389721
	   11 R(5,11)         =      1.084977     0.000003     0.000003     1.084980
	   12 R(6,12)         =      1.085499     0.000081     0.000020     1.085520
	   13 R(7,13)         =      1.332452    -0.000121    -0.000033     1.332419
	   14 R(7,14)         =      1.332067     0.000030    -0.000008     1.332060
	   15 R(13,17)        =      1.009000     0.000022     0.000007     1.009007
	   16 R(13,18)        =      1.012286     0.000257     0.000054     1.012340
	   17 R(14,15)        =      1.012250     0.000107     0.000025     1.012275
	   18 R(14,16)        =      1.008890     0.000254     0.000057     1.008947
	   19 B(1,2,3)        =    120.592336     0.000001     0.002396   120.594733
	   20 B(1,2,8)        =    121.804939    -0.000001     0.000097   121.805036
	   21 B(1,6,5)        =    120.593687     0.000001     0.002714   120.596401
	   22 B(1,6,12)       =    121.840833    -0.000000    -0.000266   121.840567
	   23 B(1,7,13)       =    121.057912     0.000001     0.000511   121.058423
	   24 B(1,7,14)       =    121.037333     0.000001     0.002312   121.039645
	   25 B(2,1,6)        =    118.607232    -0.000002    -0.003713   118.603519
	   26 B(2,1,7)        =    120.687036     0.000001     0.001865   120.688902
	   27 B(2,3,4)        =    120.112067     0.000000     0.000530   120.112598
	   28 B(2,3,9)        =    119.580803     0.000000     0.001780   119.582583
	   29 B(3,2,8)        =    117.576799    -0.000001    -0.003451   117.573348
	   30 B(3,4,5)        =    119.974838    -0.000001    -0.001820   119.973017
	   31 B(3,4,10)       =    120.013250     0.000000     0.000660   120.013910
	   32 B(4,3,9)        =    120.307057    -0.000000    -0.002314   120.304744
	   33 B(4,5,6)        =    120.108429     0.000000    -0.000002   120.108427
	   34 B(4,5,11)       =    120.307436    -0.000000    -0.002559   120.304876
	   35 B(5,4,10)       =    120.011610     0.000000     0.001147   120.012757
	   36 B(5,6,12)       =    117.558087    -0.000001    -0.002469   117.555617
	   37 B(6,1,7)        =    120.631790     0.000001     0.002866   120.634657
	   38 B(6,5,11)       =    119.582229     0.000000     0.002536   119.584765
	   39 B(7,13,17)      =    121.437974    -0.000000    -0.001493   121.436481
	   40 B(7,13,18)      =    122.082407     0.000001     0.005029   122.087436
	   41 B(7,14,15)      =    122.165626     0.000002     0.008029   122.173654
	   42 B(7,14,16)      =    121.544303    -0.000001    -0.004620   121.539683
	   43 B(13,7,14)      =    117.870180    -0.000002    -0.002792   117.867389
	   44 B(15,14,16)     =    116.197358    -0.000001    -0.003443   116.193915
	   45 B(17,13,18)     =    116.113700    -0.000001    -0.005461   116.108239
	   46 D(1,2,3,4)      =      0.380710     0.000000     0.008919     0.389629
	   47 D(1,2,3,9)      =   -179.521563     0.000000     0.011207  -179.510355
	   48 D(1,6,5,4)      =     -0.762041     0.000000     0.009369    -0.752672
	   49 D(1,6,5,11)     =    179.738691     0.000000     0.012682   179.751373
	   50 D(1,7,13,17)    =      8.500118    -0.000001    -0.005320     8.494797
	   51 D(1,7,13,18)    =   -178.715810    -0.000000    -0.024578  -178.740389
	   52 D(1,7,14,15)    =   -179.276174    -0.000000    -0.014840  -179.291014
	   53 D(1,7,14,16)    =      4.358784    -0.000000    -0.014028     4.344757
	   54 D(2,1,6,5)      =      1.290660    -0.000000    -0.008062     1.282599
	   55 D(2,1,6,12)     =   -177.695929     0.000000    -0.006576  -177.702505
	   56 *D(2,1,7,13)    =      0.000000    -0.000000     0.000000     0.000000
	   57 D(2,1,7,14)     =   -177.816112    -0.000000    -0.000942  -177.817054
	   58 D(2,3,4,5)      =      0.172590    -0.000000    -0.007609     0.164981
	   59 D(2,3,4,10)     =    179.972546    -0.000000    -0.011996   179.960550
	   60 D(3,2,1,6)      =     -1.099777    -0.000000    -0.001089    -1.100866
	   61 D(3,2,1,7)      =   -177.992463    -0.000000    -0.022631  -178.015094
	   62 D(3,4,5,6)      =      0.017702    -0.000000    -0.001524     0.016178
	   63 D(3,4,5,11)     =    179.513306    -0.000000    -0.004835   179.508471
	   64 D(4,3,2,8)      =    178.561714     0.000000    -0.024383   178.537332
	   65 D(4,5,6,12)     =    178.266876     0.000000     0.007965   178.274841
	   66 D(5,4,3,9)      =   -179.925853    -0.000000    -0.009911  -179.935764
	   67 D(5,6,1,7)      =    178.185124     0.000000     0.013436   178.198561
	   68 D(6,1,2,8)      =   -179.202535     0.000000     0.033709  -179.168826
	   69 D(6,1,7,13)     =   -176.830063    -0.000000    -0.021775  -176.851838
	   70 D(6,1,7,14)     =      5.354328    -0.000001    -0.022718     5.331610
	   71 D(6,5,4,10)     =   -179.782257    -0.000000     0.002864  -179.779393
	   72 D(7,1,2,8)      =      3.904778    -0.000000     0.012167     3.916945
	   73 D(7,1,6,12)     =     -0.801465     0.000000     0.014922    -0.786543
	   74 D(8,2,3,9)      =     -1.340559     0.000000    -0.022094    -1.362653
	   75 D(9,3,4,10)     =     -0.125897    -0.000000    -0.014298    -0.140195
	   76 D(10,4,5,11)    =     -0.286653    -0.000000    -0.000447    -0.287100
	   77 D(11,5,6,12)    =     -1.232392     0.000000     0.011277    -1.221115
	   78 D(13,7,14,15)   =      2.840572    -0.000000    -0.015819     2.824753
	   79 D(13,7,14,16)   =   -173.524469    -0.000001    -0.015007  -173.539476
	   80 D(14,7,13,17)   =   -173.617087    -0.000001    -0.004301  -173.621387
	   81 D(14,7,13,18)   =     -0.833015     0.000000    -0.023558    -0.856573
	   82 R(1,X)          =     -0.027241     0.000120     0.000285    -0.026956
	   83 R(1,Y)          =      0.000523     0.000036     0.000001     0.000525
	   84 R(1,Z)          =     -0.176502    -0.000388    -0.000084    -0.176586
	   85 R(2,X)          =     -0.000231     0.000300     0.000325     0.000094
	   86 R(2,Y)          =      1.212439    -0.000082    -0.000023     1.212416
	   87 R(2,Z)          =      0.542968    -0.000094    -0.000042     0.542926
	   88 R(3,X)          =      0.008839     0.000114     0.000065     0.008904
	   89 R(3,Y)          =      1.209890    -0.000010    -0.000007     1.209883
	   90 R(3,Z)          =      1.932603    -0.000012    -0.000016     1.932587
	   91 R(4,X)          =     -0.000795    -0.000062    -0.000053    -0.000848
	   92 R(4,Y)          =      0.000127    -0.000009    -0.000002     0.000125
	   93 R(4,Z)          =      2.631382     0.000097     0.000013     2.631395
	   94 R(5,X)          =     -0.015934    -0.000108    -0.000070    -0.016004
	   95 R(5,Y)          =     -1.209511    -0.000007    -0.000001    -1.209512
	   96 R(5,Z)          =      1.932548    -0.000010    -0.000007     1.932541
	   97 R(6,X)          =     -0.021060    -0.000088    -0.000001    -0.021061
	   98 R(6,Y)          =     -1.211743     0.000072     0.000016    -1.211727
	   99 R(6,Z)          =      0.542865    -0.000105    -0.000035     0.542831
	  100 R(7,X)          =      0.007446    -0.000076     0.000058     0.007504
	  101 R(7,Y)          =     -0.000421     0.000074     0.000010    -0.000411
	  102 R(7,Z)          =     -1.648352     0.000242     0.000025    -1.648327
	  103 R(8,X)          =     -0.016351     0.000453    -0.000001    -0.016352
	  104 R(8,Y)          =      2.175462     0.000040     0.000012     2.175474
	  105 R(8,Z)          =      0.042305    -0.000032    -0.000004     0.042301
	  106 R(9,X)          =      0.021819     0.000027    -0.000084     0.021735
	  107 R(9,Y)          =      2.152421    -0.000006    -0.000015     2.152406
	  108 R(9,Z)          =      2.469860    -0.000022     0.000007     2.469866
	  109 R(10,X)         =      0.006762    -0.000120    -0.000060     0.006702
	  110 R(10,Y)         =      0.000003     0.000005     0.000005     0.000008
	  111 R(10,Z)         =      3.716891     0.000079     0.000010     3.716901
	  112 R(11,X)         =     -0.015513    -0.000135    -0.000082    -0.015595
	  113 R(11,Y)         =     -2.152196    -0.000002     0.000013    -2.152183
	  114 R(11,Z)         =      2.469688     0.000004     0.000024     2.469712
	  115 R(12,X)         =     -0.003801    -0.000178    -0.000149    -0.003950
	  116 R(12,Y)         =     -2.174700    -0.000060    -0.000020    -2.174720
	  117 R(12,Z)         =      0.042140    -0.000029    -0.000013     0.042127
	  118 R(13,X)         =      0.065025    -0.000070    -0.000112     0.064913
	  119 R(13,Y)         =      1.139827    -0.000135    -0.000018     1.139809
	  120 R(13,Z)         =     -2.335336     0.000132     0.000028    -2.335307
	  121 R(14,X)         =     -0.061184     0.000116     0.000039    -0.061145
	  122 R(14,Y)         =     -1.139063     0.000166     0.000042    -1.139021
	  123 R(14,Z)         =     -2.336239     0.000012    -0.000011    -2.336250
	  124 R(15,X)         =     -0.028032    -0.000065    -0.000343    -0.028375
	  125 R(15,Y)         =     -1.160429     0.000001    -0.000035    -1.160464
	  126 R(15,Z)         =     -3.347721    -0.000098    -0.000047    -3.347768
	  127 R(16,X)         =     -0.203679     0.000468     0.000370    -0.203309
	  128 R(16,Y)         =     -2.025714    -0.000093    -0.000025    -2.025739
	  129 R(16,Z)         =     -1.876453     0.000180     0.000088    -1.876365
	  130 R(17,X)         =      0.213636    -0.000630    -0.000168     0.213468
	  131 R(17,Y)         =      2.025005    -0.000000    -0.000005     2.025001
	  132 R(17,Z)         =     -1.874406     0.000102     0.000037    -1.874370
	  133 R(18,X)         =      0.070323    -0.000062     0.000104     0.070427
	  134 R(18,Y)         =      1.158074     0.000007     0.000050     1.158124
	  135 R(18,Z)         =     -3.347444    -0.000122    -0.000023    -3.347467
	 ---------------------------------------------------------------------------
	Successfully symmetrized geometry.

  ==> Convergence Check <==

  Measures of convergence in internal coordinates in au.
  Criteria marked as inactive (o), active & met (*), and active & unmet ( ).
  ---------------------------------------------------------------------------------------------
   Step     Total Energy     Delta E     MAX Force     RMS Force      MAX Disp      RMS Disp   
  ---------------------------------------------------------------------------------------------
    Convergence Criteria    1.00e-06 *    3.00e-04 *             o    1.20e-03 *             o
  ---------------------------------------------------------------------------------------------
      4    -381.46585997   -9.17e-07 *    7.71e-05 *    1.80e-05 o    7.00e-04 *    1.84e-04 o  ~
  ---------------------------------------------------------------------------------------------


  **** Optimization is complete! (in 4 steps) ****

  ==> Optimization Summary <==

  Measures of convergence in internal coordinates in au.
  --------------------------------------------------------------------------------------------------------------- ~
   Step         Total Energy             Delta E       MAX Force       RMS Force        MAX Disp        RMS Disp  ~
  --------------------------------------------------------------------------------------------------------------- ~
      1    -381.465855065433   -381.465855065433      0.00035955      0.00006968      0.00262191      0.00069153  ~
      2    -381.465857910906     -0.000002845473      0.00010804      0.00002233      0.00326960      0.00066409  ~
      3    -381.465859053969     -0.000001143063      0.00008185      0.00001940      0.00323528      0.00063505  ~
      4    -381.465859971462     -0.000000917493      0.00007706      0.00001799      0.00070002      0.00018412  ~
  --------------------------------------------------------------------------------------------------------------- ~

	Writing optimization data to binary file.
	Final energy is   -381.4658599714620
	Final (previous) structure:
	Cartesian Geometry (in Angstrom)
	    C    -0.0272409649   0.0005233055  -0.1765018648
	    C    -0.0002308784   1.2124391348   0.5429683467
	    C     0.0088390275   1.2098899182   1.9326030322
	    C    -0.0007949962   0.0001271851   2.6313819775
	    C    -0.0159338529  -1.2095111853   1.9325481917
	    C    -0.0210601245  -1.2117430620   0.5428653565
	    C     0.0074464858  -0.0004211740  -1.6483523851
	    H    -0.0163510262   2.1754622366   0.0423045166
	    H     0.0218186300   2.1524209710   2.4698597840
	    H     0.0067623042   0.0000026036   3.7168908309
	    H    -0.0155129794  -2.1521964083   2.4696877645
	    H    -0.0038006466  -2.1746997213   0.0421404599
	    N     0.0650245719   1.1398274365  -2.3353356812
	    N    -0.0611836191  -1.1390629169  -2.3362392303
	    H    -0.0280321670  -1.1604289711  -3.3477208648
	    H    -0.2036794381  -2.0257143831  -1.8764526699
	    H     0.2136356830   2.0250053423  -1.8744061807
	    H     0.0703225687   1.1580737500  -3.3474436604
	Saving final (previous) structure.
	Removing binary optimization data file.
			--------------------------
			 OPTKING Finished Execution 
			--------------------------

    Final optimized geometry and variables:
    Molecular point group: c1
    Full point group: C1

    Geometry (in Angstrom), charge = 1, multiplicity = 1:

    C           -0.027240964878     0.000523305519    -0.176501864836
    C           -0.000230878423     1.212439134848     0.542968346686
    C            0.008839027462     1.209889918244     1.932603032236
    C           -0.000794996155     0.000127185094     2.631381977542
    C           -0.015933852867    -1.209511185311     1.932548191729
    C           -0.021060124457    -1.211743062043     0.542865356485
    C            0.007446485801    -0.000421173975    -1.648352385149
    H           -0.016351026169     2.175462236584     0.042304516629
    H            0.021818629995     2.152420970976     2.469859783999
    H            0.006762304206     0.000002603618     3.716890830934
    H           -0.015512979385    -2.152196408343     2.469687764464
    H           -0.003800646563    -2.174699721261     0.042140459905
    N            0.065024571920     1.139827436506    -2.335335681203
    N           -0.061183619066    -1.139062916917    -2.336239230275
    H           -0.028032167006    -1.160428971103    -3.347720864758
    H           -0.203679438116    -2.025714383109    -1.876452669939
    H            0.213635683019     2.025005342283    -1.874406180706
    H            0.070322568731     1.158073749960    -3.347443660364

	Removing binary optimization data file.
	Cleaning optimization helper files.


Properties will be evaluated at   0.000000,   0.000000,   0.000000 [a0]
OEProp: No title given, name of density matrix used for the following properties is 'SCF density'
  Nuclear Dipole Moment: [e a0]
     X:    -0.4191      Y:     0.0210      Z:     0.2625

  Electronic Dipole Moment: [e a0]
     X:     0.4600      Y:    -0.0259      Z:    -2.4189

  Dipole Moment: [e a0]
     X:     0.0408      Y:    -0.0049      Z:    -2.1563     Total:     2.1567

  Dipole Moment: [D]
     X:     0.1038      Y:    -0.0124      Z:    -5.4809     Total:     5.4819

  Quadrupole Moment: [D A]
    XX:   -55.2364     YY:   -32.6349     ZZ:   -12.4363
    XY:     1.4279     XZ:    -0.2706     YZ:     0.0398

  Traceless Quadrupole Moment: [D A]
    XX:   -21.8005     YY:     0.8010     ZZ:    20.9995
    XY:     1.4279     XZ:    -0.2706     YZ:     0.0398

  Mulliken Charges: (a.u.)
   Center  Symbol    Alpha    Beta     Spin     Total
       1     C     2.92437  2.92437  0.00000  0.15126
       2     C     3.08716  3.08716  0.00000 -0.17432
       3     C     3.06133  3.06133  0.00000 -0.12265
       4     C     3.05128  3.05128  0.00000 -0.10257
       5     C     3.06137  3.06137  0.00000 -0.12273
       6     C     3.08661  3.08661  0.00000 -0.17321
       7     C     2.70563  2.70563  0.00000  0.58875
       8     H     0.42194  0.42194  0.00000  0.15612
       9     H     0.40493  0.40493  0.00000  0.19015
      10     H     0.40262  0.40262  0.00000  0.19476
      11     H     0.40492  0.40492  0.00000  0.19016
      12     H     0.42218  0.42218  0.00000  0.15564
      13     N     3.87747  3.87747  0.00000 -0.75493
      14     N     3.87774  3.87774  0.00000 -0.75547
      15     H     0.30596  0.30596  0.00000  0.38808
      16     H     0.29900  0.29900  0.00000  0.40200
      17     H     0.29942  0.29942  0.00000  0.40116
      18     H     0.30609  0.30609  0.00000  0.38782

   Total alpha = 32.00000, Total beta = 32.00000, Total charge =  1.00000


    Psi4 stopped on: Saturday, 29 September 2018 08:51PM
    Psi4 wall time for execution: 0:04:52.16

*** Psi4 exiting successfully. Buy a developer a beer!
