
    -----------------------------------------------------------------------
          Psi4: An Open-Source Ab Initio Electronic Structure Package
                               Psi4 1.2.1 release

                         Git: Rev {HEAD} 406f4de 


    R. M. Parrish, L. A. Burns, D. G. A. Smith, A. C. Simmonett,
    A. E. DePrince III, E. G. Hohenstein, U. Bozkaya, A. Yu. Sokolov,
    R. Di Remigio, R. M. Richard, J. F. Gonthier, A. M. James,
    H. R. McAlexander, A. Kumar, M. Saitow, X. Wang, B. P. Pritchard,
    P. Verma, H. F. Schaefer III, K. Patkowski, R. A. King, E. F. Valeev,
    F. A. Evangelista, J. M. Turney, T. D. Crawford, and C. D. Sherrill,
    J. Chem. Theory Comput. 13(7) pp 3185--3197 (2017).
    (doi: 10.1021/acs.jctc.7b00174)


                         Additional Contributions by
    P. Kraus, H. Kruse, M. H. Lechner, M. C. Schieber, and R. A. Shaw

    -----------------------------------------------------------------------


    Psi4 started on: Saturday, 29 September 2018 04:50PM

    Process ID: 5844
    Host:       loro.prib.upf.edu
    PSIDATADIR: /shared/joao/test_parameterize/miniconda3/share/psi4
    Memory:     500.0 MiB
    Threads:    1
    
  ==> Input File <==

--------------------------------------------------------------------------
set_num_threads(1)
set_memory('5348 MB')

set { scf_mem_safety_factor 0.7 }

set { reference rks }
set { basis cc-pVDZ }

molecule MOL {
    0 1
    noreorient
    nocom
    symmetry c1
    O    1.141000   0.017000   0.083000
    C    2.558000   0.086000  -0.005000
    C    3.192000  -0.789000   1.067000
    O    4.610000  -0.719000   0.979000
    H    0.789000   0.590000  -0.620000
    H    2.874000   1.128000   0.115000
    H    2.871000  -0.243000  -1.001000
    H    2.876000  -1.830000   0.947000
    H    2.879000  -0.459000   2.064000
    H    4.956862  -1.010246   1.840248
}

set optking { frozen_dihedral = (" 2 3 4 10 ") }

energy, wfn = energy('B3LYP-D3', return_wfn=True)

import os
os.chdir(os.environ['HTMD_PSI4_WORKDIR'])

oeprop(wfn, 'DIPOLE', 'QUADRUPOLE', 'MULLIKEN_CHARGES')

with open('psi4out.xyz', 'w') as f:
    f.write('10 ' )
    f.write('%.12f\n' % energy)
    f.write(MOL.save_string_xyz())
--------------------------------------------------------------------------
  Threads set to 1 by Python driver.

  Memory set to   4.981 GiB by Python driver.

*** tstart() called on loro.prib.upf.edu
*** at Sat Sep 29 16:50:41 2018

   => Loading Basis Set <=

    Name: CC-PVDZ
    Role: ORBITAL
    Keyword: BASIS
    atoms 1, 4 entry O          line   198 file /shared/joao/test_parameterize/miniconda3/share/psi4/basis/cc-pvdz.gbs 
    atoms 2-3  entry C          line   138 file /shared/joao/test_parameterize/miniconda3/share/psi4/basis/cc-pvdz.gbs 
    atoms 5-10 entry H          line    22 file /shared/joao/test_parameterize/miniconda3/share/psi4/basis/cc-pvdz.gbs 


         ---------------------------------------------------------
                                   SCF
            by Justin Turney, Rob Parrish, Andy Simmonett
                             and Daniel Smith
                              RKS Reference
                        1 Threads,   5100 MiB Core
         ---------------------------------------------------------

  ==> Geometry <==

    Molecular point group: c1
    Full point group: C1

    Geometry (in Angstrom), charge = 0, multiplicity = 1:

       Center              X                  Y                   Z               Mass       
    ------------   -----------------  -----------------  -----------------  -----------------
         O            1.141000000000     0.017000000000     0.083000000000    15.994914619560
         C            2.558000000000     0.086000000000    -0.005000000000    12.000000000000
         C            3.192000000000    -0.789000000000     1.067000000000    12.000000000000
         O            4.610000000000    -0.719000000000     0.979000000000    15.994914619560
         H            0.789000000000     0.590000000000    -0.620000000000     1.007825032070
         H            2.874000000000     1.128000000000     0.115000000000     1.007825032070
         H            2.871000000000    -0.243000000000    -1.001000000000     1.007825032070
         H            2.876000000000    -1.830000000000     0.947000000000     1.007825032070
         H            2.879000000000    -0.459000000000     2.064000000000     1.007825032070
         H            4.956862000000    -1.010246000000     1.840248000000     1.007825032070

  Running in c1 symmetry.

  Rotational constants: A =      0.82477  B =      0.02537  C =      0.02486 [cm^-1]
  Rotational constants: A =  24726.05062  B =    760.71378  C =    745.13784 [MHz]
  Nuclear repulsion =  129.455588263028147

  Charge       = 0
  Multiplicity = 1
  Electrons    = 34
  Nalpha       = 17
  Nbeta        = 17

  ==> Algorithm <==

  SCF Algorithm Type is DF.
  DIIS enabled.
  MOM disabled.
  Fractional occupation disabled.
  Guess Type is SAD.
  Energy threshold   = 1.00e-06
  Density threshold  = 1.00e-06
  Integral threshold = 0.00e+00

  ==> Primary Basis <==

  Basis Set: CC-PVDZ
    Blend: CC-PVDZ
    Number of shells: 42
    Number of basis function: 86
    Number of Cartesian functions: 90
    Spherical Harmonics?: true
    Max angular momentum: 2

  ==> DFT Potential <==

   => Composite Functional: B3LYP-D3ZERO <= 

    B3LYP-d3zero Hyb-GGA Exchange-Correlation Functional

    P. J. Stephens, F. J. Devlin, C. F. Chabalowski, and M. J. Frisch, J. Phys. Chem. 98, 11623 (1994)

    Deriv               =              1
    GGA                 =           TRUE
    Meta                =          FALSE

    Exchange Hybrid     =           TRUE
    MP2 Hybrid          =          FALSE

   => Exchange Functionals <=

    0.0800   Slater exchange
    0.7200         Becke 88

   => Exact (HF) Exchange <=

    0.2000               HF 

   => Correlation Functionals <=

    0.1900   Vosko, Wilk & Nusair (VWN5_RPA)
    0.8100   Lee, Yang & Parr

   => Molecular Quadrature <=

    Radial Scheme       =       TREUTLER
    Pruning Scheme      =           FLAT
    Nuclear Scheme      =       TREUTLER

    BS radius alpha     =              1
    Pruning alpha       =              1
    Radial Points       =             75
    Spherical Points    =            302
    Total Points        =         222567
    Total Blocks        =           1727
    Max Points          =            256
    Max Functions       =             86

   => -D3ZERO: Empirical Dispersion <=

    Grimme's -D3 (zero-damping) Dispersion Correction
    Grimme S.; Antony J.; Ehrlich S.; Krieg H. (2010), J. Chem. Phys., 132: 154104

        S6 =   1.000000E+00
        S8 =   1.703000E+00
       SR6 =   1.261000E+00
       SR8 =   1.000000E+00
    ALPHA6 =   1.400000E+01

   => Loading Basis Set <=

    Name: (CC-PVDZ AUX)
    Role: JKFIT
    Keyword: DF_BASIS_SCF
    atoms 1, 4 entry O          line   221 file /shared/joao/test_parameterize/miniconda3/share/psi4/basis/cc-pvdz-jkfit.gbs 
    atoms 2-3  entry C          line   121 file /shared/joao/test_parameterize/miniconda3/share/psi4/basis/cc-pvdz-jkfit.gbs 
    atoms 5-10 entry H          line    51 file /shared/joao/test_parameterize/miniconda3/share/psi4/basis/cc-pvdz-jkfit.gbs 

  ==> Pre-Iterations <==

   -------------------------------------------------------
    Irrep   Nso     Nmo     Nalpha   Nbeta   Ndocc  Nsocc
   -------------------------------------------------------
     A         86      86       0       0       0       0
   -------------------------------------------------------
    Total      86      86      17      17      17       0
   -------------------------------------------------------

  ==> Integral Setup <==

  DFHelper Memory: AOs need 0.030 [GiB]; user supplied 3.486 [GiB]. Using in-core AOs.

  ==> MemDFJK: Density-Fitted J/K Matrices <==

    J tasked:                   Yes
    K tasked:                   Yes
    wK tasked:                   No
    OpenMP threads:               1
    Memory (MB):               3570
    Algorithm:                 Core
    Schwarz Cutoff:           1E-12
    Mask sparsity (%):       0.5949
    Fitting Condition:        1E-12

   => Auxiliary Basis Set <=

  Basis Set: (CC-PVDZ AUX)
    Blend: CC-PVDZ-JKFIT
    Number of shells: 150
    Number of basis function: 418
    Number of Cartesian functions: 474
    Spherical Harmonics?: true
    Max angular momentum: 3

  Minimum eigenvalue in the overlap matrix is 5.0422189778E-03.
  Using Symmetric Orthogonalization.

  SCF Guess: Superposition of Atomic Densities via on-the-fly atomic UHF.

  ==> Iterations <==

                           Total Energy        Delta E     RMS |[F,P]|

   @DF-RKS iter   0:  -231.05380080434742   -2.31054e+02   4.13987e-02 
   @DF-RKS iter   1:  -230.19078601809255    8.63015e-01   4.69886e-03 
   @DF-RKS iter   2:  -230.16406032989542    2.67257e-02   5.89352e-03 DIIS
   @DF-RKS iter   3:  -230.25571321239144   -9.16529e-02   6.85587e-04 DIIS
   @DF-RKS iter   4:  -230.25696488405362   -1.25167e-03   2.04564e-04 DIIS
   @DF-RKS iter   5:  -230.25710900829381   -1.44124e-04   5.00146e-05 DIIS
   @DF-RKS iter   6:  -230.25711788485415   -8.87656e-06   3.90059e-06 DIIS
   @DF-RKS iter   7:  -230.25711793184786   -4.69937e-08   1.29108e-06 DIIS
   @DF-RKS iter   8:  -230.25711793500190   -3.15404e-09   7.74596e-07 DIIS

  ==> Post-Iterations <==

    Orbital Energies [Eh]
    ---------------------

    Doubly Occupied:                                                      

       1A    -19.131858     2A    -19.131413     3A    -10.226375  
       4A    -10.225756     5A     -1.018865     6A     -1.008588  
       7A     -0.732112     8A     -0.603928     9A     -0.526012  
      10A     -0.482994    11A     -0.470341    12A     -0.413306  
      13A     -0.395215    14A     -0.348756    15A     -0.319590  
      16A     -0.264568    17A     -0.263501  

    Virtual:                                                              

      18A      0.042341    19A      0.057673    20A      0.110216  
      21A      0.116909    22A      0.124280    23A      0.168051  
      24A      0.188276    25A      0.243158    26A      0.244939  
      27A      0.439446    28A      0.446221    29A      0.495893  
      30A      0.537130    31A      0.550275    32A      0.593306  
      33A      0.615171    34A      0.625956    35A      0.631120  
      36A      0.647960    37A      0.655706    38A      0.684832  
      39A      0.887424    40A      0.891710    41A      0.916291  
      42A      0.964816    43A      1.010510    44A      1.055954  
      45A      1.062856    46A      1.174267    47A      1.194584  
      48A      1.214991    49A      1.253958    50A      1.310072  
      51A      1.344217    52A      1.359019    53A      1.475721  
      54A      1.560819    55A      1.601038    56A      1.616910  
      57A      1.629131    58A      1.651008    59A      1.651789  
      60A      1.702122    61A      1.748385    62A      1.766890  
      63A      1.792129    64A      1.884558    65A      1.913548  
      66A      1.977804    67A      2.039611    68A      2.061717  
      69A      2.112784    70A      2.152676    71A      2.267785  
      72A      2.292909    73A      2.404480    74A      2.434791  
      75A      2.473235    76A      2.523593    77A      2.912246  
      78A      2.962413    79A      2.991901    80A      3.024242  
      81A      3.064227    82A      3.143677    83A      3.181331  
      84A      3.211610    85A      3.674458    86A      3.704767  

    Final Occupation by Irrep:
              A 
    DOCC [    17 ]

  Energy converged.

  @DF-RKS Final Energy:  -230.25711793500190

   => Energetics <=

    Nuclear Repulsion Energy =            129.4555882630281474
    One-Electron Energy =                -570.6662736651348951
    Two-Electron Energy =                 235.4968555210331829
    DFT Exchange-Correlation Energy =     -24.5388772739283567
    Empirical Dispersion Energy =          -0.0044107800000000
    VV10 Nonlocal Energy =                  0.0000000000000000
    Total Energy =                       -230.2571179350019008



Properties will be evaluated at   0.000000,   0.000000,   0.000000 [a0]

Properties computed using the SCF density matrix

  Nuclear Dipole Moment: [e a0]
     X:   184.7280      Y:   -22.0309      Z:    34.4181

  Electronic Dipole Moment: [e a0]
     X:  -184.7293      Y:    22.2005      Z:   -34.3157

  Dipole Moment: [e a0]
     X:    -0.0013      Y:     0.1696      Z:     0.1023     Total:     0.1981

  Dipole Moment: [D]
     X:    -0.0032      Y:     0.4311      Z:     0.2601     Total:     0.5035


*** tstop() called on loro.prib.upf.edu at Sat Sep 29 16:50:56 2018
Module time:
	user time   =      12.57 seconds =       0.21 minutes
	system time =       0.20 seconds =       0.00 minutes
	total time  =         15 seconds =       0.25 minutes
Total time:
	user time   =      12.57 seconds =       0.21 minutes
	system time =       0.20 seconds =       0.00 minutes
	total time  =         15 seconds =       0.25 minutes


Properties will be evaluated at   0.000000,   0.000000,   0.000000 [a0]
OEProp: No title given, name of density matrix used for the following properties is 'SCF density'
  Nuclear Dipole Moment: [e a0]
     X:   184.7280      Y:   -22.0309      Z:    34.4181

  Electronic Dipole Moment: [e a0]
     X:  -184.7293      Y:    22.2005      Z:   -34.3157

  Dipole Moment: [e a0]
     X:    -0.0013      Y:     0.1696      Z:     0.1023     Total:     0.1981

  Dipole Moment: [D]
     X:    -0.0032      Y:     0.4311      Z:     0.2601     Total:     0.5035

  Quadrupole Moment: [D A]
    XX:   -26.5352     YY:   -23.5097     ZZ:   -19.8321
    XY:    -1.5354     XZ:     6.0121     YZ:    -2.7975

  Traceless Quadrupole Moment: [D A]
    XX:    -3.2429     YY:    -0.2173     ZZ:     3.4602
    XY:    -1.5354     XZ:     6.0121     YZ:    -2.7975

  Mulliken Charges: (a.u.)
   Center  Symbol    Alpha    Beta     Spin     Total
       1     O     4.14054  4.14054  0.00000 -0.28107
       2     C     2.93605  2.93605  0.00000  0.12789
       3     C     2.93667  2.93667  0.00000  0.12667
       4     O     4.14059  4.14059  0.00000 -0.28118
       5     H     0.42741  0.42741  0.00000  0.14518
       6     H     0.49932  0.49932  0.00000  0.00137
       7     H     0.49747  0.49747  0.00000  0.00507
       8     H     0.49682  0.49682  0.00000  0.00635
       9     H     0.49808  0.49808  0.00000  0.00385
      10     H     0.42706  0.42706  0.00000  0.14588

   Total alpha = 17.00000, Total beta = 17.00000, Total charge = -0.00000


    Psi4 stopped on: Saturday, 29 September 2018 04:50PM
    Psi4 wall time for execution: 0:00:15.15

*** Psi4 exiting successfully. Buy a developer a beer!
