
    -----------------------------------------------------------------------
          Psi4: An Open-Source Ab Initio Electronic Structure Package
                               Psi4 1.2.1 release

                         Git: Rev {HEAD} 406f4de 


    R. M. Parrish, L. A. Burns, D. G. A. Smith, A. C. Simmonett,
    A. E. DePrince III, E. G. Hohenstein, U. Bozkaya, A. Yu. Sokolov,
    R. Di Remigio, R. M. Richard, J. F. Gonthier, A. M. James,
    H. R. McAlexander, A. Kumar, M. Saitow, X. Wang, B. P. Pritchard,
    P. Verma, H. F. Schaefer III, K. Patkowski, R. A. King, E. F. Valeev,
    F. A. Evangelista, J. M. Turney, T. D. Crawford, and C. D. Sherrill,
    J. Chem. Theory Comput. 13(7) pp 3185--3197 (2017).
    (doi: 10.1021/acs.jctc.7b00174)


                         Additional Contributions by
    P. Kraus, H. Kruse, M. H. Lechner, M. C. Schieber, and R. A. Shaw

    -----------------------------------------------------------------------


    Psi4 started on: Saturday, 29 September 2018 05:09PM

    Process ID: 13294
    Host:       loro.prib.upf.edu
    PSIDATADIR: /shared/joao/test_parameterize/miniconda3/share/psi4
    Memory:     500.0 MiB
    Threads:    1
    
  ==> Input File <==

--------------------------------------------------------------------------
set_num_threads(1)
set_memory('5348 MB')

set { scf_mem_safety_factor 0.7 }

set { reference rks }
set { basis cc-pVDZ }

molecule MOL {
    0 1
    noreorient
    nocom
    symmetry c1
    O    1.050400   0.042900  -0.048100
    C    2.474100   0.047400  -0.029000
    C    3.002600  -1.068900  -0.932000
    N    4.462700  -1.072400  -1.006800
    H    0.760400   0.728400   0.578000
    H    2.809900  -0.097900   1.003200
    H    2.817400   1.026800  -0.378600
    H    2.581000  -0.963300  -1.938400
    H    2.653800  -2.036400  -0.553400
    H    4.768654  -0.356941  -1.665581
    H    4.768909  -1.962430  -1.399654
}

set optking { frozen_dihedral = (" 2 3 4 10 ") }

energy, wfn = energy('B3LYP-D3', return_wfn=True)

import os
os.chdir(os.environ['HTMD_PSI4_WORKDIR'])

oeprop(wfn, 'DIPOLE', 'QUADRUPOLE', 'MULLIKEN_CHARGES')

with open('psi4out.xyz', 'w') as f:
    f.write('11 ' )
    f.write('%.12f\n' % energy)
    f.write(MOL.save_string_xyz())
--------------------------------------------------------------------------
  Threads set to 1 by Python driver.

  Memory set to   4.981 GiB by Python driver.

*** tstart() called on loro.prib.upf.edu
*** at Sat Sep 29 17:09:29 2018

   => Loading Basis Set <=

    Name: CC-PVDZ
    Role: ORBITAL
    Keyword: BASIS
    atoms 1    entry O          line   198 file /shared/joao/test_parameterize/miniconda3/share/psi4/basis/cc-pvdz.gbs 
    atoms 2-3  entry C          line   138 file /shared/joao/test_parameterize/miniconda3/share/psi4/basis/cc-pvdz.gbs 
    atoms 4    entry N          line   168 file /shared/joao/test_parameterize/miniconda3/share/psi4/basis/cc-pvdz.gbs 
    atoms 5-11 entry H          line    22 file /shared/joao/test_parameterize/miniconda3/share/psi4/basis/cc-pvdz.gbs 


         ---------------------------------------------------------
                                   SCF
            by Justin Turney, Rob Parrish, Andy Simmonett
                             and Daniel Smith
                              RKS Reference
                        1 Threads,   5100 MiB Core
         ---------------------------------------------------------

  ==> Geometry <==

    Molecular point group: c1
    Full point group: C1

    Geometry (in Angstrom), charge = 0, multiplicity = 1:

       Center              X                  Y                   Z               Mass       
    ------------   -----------------  -----------------  -----------------  -----------------
         O            1.050400000000     0.042900000000    -0.048100000000    15.994914619560
         C            2.474100000000     0.047400000000    -0.029000000000    12.000000000000
         C            3.002600000000    -1.068900000000    -0.932000000000    12.000000000000
         N            4.462700000000    -1.072400000000    -1.006800000000    14.003074004780
         H            0.760400000000     0.728400000000     0.578000000000     1.007825032070
         H            2.809900000000    -0.097900000000     1.003200000000     1.007825032070
         H            2.817400000000     1.026800000000    -0.378600000000     1.007825032070
         H            2.581000000000    -0.963300000000    -1.938400000000     1.007825032070
         H            2.653800000000    -2.036400000000    -0.553400000000     1.007825032070
         H            4.768654000000    -0.356941000000    -1.665581000000     1.007825032070
         H            4.768909000000    -1.962430000000    -1.399654000000     1.007825032070

  Running in c1 symmetry.

  Rotational constants: A =      0.72095  B =      0.02760  C =      0.02694 [cm^-1]
  Rotational constants: A =  21613.65946  B =    827.49255  C =    807.49755 [MHz]
  Nuclear repulsion =  130.338979259572227

  Charge       = 0
  Multiplicity = 1
  Electrons    = 34
  Nalpha       = 17
  Nbeta        = 17

  ==> Algorithm <==

  SCF Algorithm Type is DF.
  DIIS enabled.
  MOM disabled.
  Fractional occupation disabled.
  Guess Type is SAD.
  Energy threshold   = 1.00e-06
  Density threshold  = 1.00e-06
  Integral threshold = 0.00e+00

  ==> Primary Basis <==

  Basis Set: CC-PVDZ
    Blend: CC-PVDZ
    Number of shells: 45
    Number of basis function: 91
    Number of Cartesian functions: 95
    Spherical Harmonics?: true
    Max angular momentum: 2

  ==> DFT Potential <==

   => Composite Functional: B3LYP-D3ZERO <= 

    B3LYP-d3zero Hyb-GGA Exchange-Correlation Functional

    P. J. Stephens, F. J. Devlin, C. F. Chabalowski, and M. J. Frisch, J. Phys. Chem. 98, 11623 (1994)

    Deriv               =              1
    GGA                 =           TRUE
    Meta                =          FALSE

    Exchange Hybrid     =           TRUE
    MP2 Hybrid          =          FALSE

   => Exchange Functionals <=

    0.0800   Slater exchange
    0.7200         Becke 88

   => Exact (HF) Exchange <=

    0.2000               HF 

   => Correlation Functionals <=

    0.1900   Vosko, Wilk & Nusair (VWN5_RPA)
    0.8100   Lee, Yang & Parr

   => Molecular Quadrature <=

    Radial Scheme       =       TREUTLER
    Pruning Scheme      =           FLAT
    Nuclear Scheme      =       TREUTLER

    BS radius alpha     =              1
    Pruning alpha       =              1
    Radial Points       =             75
    Spherical Points    =            302
    Total Points        =         245091
    Total Blocks        =           1887
    Max Points          =            256
    Max Functions       =             91

   => -D3ZERO: Empirical Dispersion <=

    Grimme's -D3 (zero-damping) Dispersion Correction
    Grimme S.; Antony J.; Ehrlich S.; Krieg H. (2010), J. Chem. Phys., 132: 154104

        S6 =   1.000000E+00
        S8 =   1.703000E+00
       SR6 =   1.261000E+00
       SR8 =   1.000000E+00
    ALPHA6 =   1.400000E+01

   => Loading Basis Set <=

    Name: (CC-PVDZ AUX)
    Role: JKFIT
    Keyword: DF_BASIS_SCF
    atoms 1    entry O          line   221 file /shared/joao/test_parameterize/miniconda3/share/psi4/basis/cc-pvdz-jkfit.gbs 
    atoms 2-3  entry C          line   121 file /shared/joao/test_parameterize/miniconda3/share/psi4/basis/cc-pvdz-jkfit.gbs 
    atoms 4    entry N          line   171 file /shared/joao/test_parameterize/miniconda3/share/psi4/basis/cc-pvdz-jkfit.gbs 
    atoms 5-11 entry H          line    51 file /shared/joao/test_parameterize/miniconda3/share/psi4/basis/cc-pvdz-jkfit.gbs 

  ==> Pre-Iterations <==

   -------------------------------------------------------
    Irrep   Nso     Nmo     Nalpha   Nbeta   Ndocc  Nsocc
   -------------------------------------------------------
     A         91      91       0       0       0       0
   -------------------------------------------------------
    Total      91      91      17      17      17       0
   -------------------------------------------------------

  ==> Integral Setup <==

  DFHelper Memory: AOs need 0.036 [GiB]; user supplied 3.486 [GiB]. Using in-core AOs.

  ==> MemDFJK: Density-Fitted J/K Matrices <==

    J tasked:                   Yes
    K tasked:                   Yes
    wK tasked:                   No
    OpenMP threads:               1
    Memory (MB):               3570
    Algorithm:                 Core
    Schwarz Cutoff:           1E-12
    Mask sparsity (%):       0.4830
    Fitting Condition:        1E-12

   => Auxiliary Basis Set <=

  Basis Set: (CC-PVDZ AUX)
    Blend: CC-PVDZ-JKFIT
    Number of shells: 159
    Number of basis function: 441
    Number of Cartesian functions: 499
    Spherical Harmonics?: true
    Max angular momentum: 3

  Minimum eigenvalue in the overlap matrix is 4.5020115049E-03.
  Using Symmetric Orthogonalization.

  SCF Guess: Superposition of Atomic Densities via on-the-fly atomic UHF.

  ==> Iterations <==

                           Total Energy        Delta E     RMS |[F,P]|

   @DF-RKS iter   0:  -210.84386661482074   -2.10844e+02   3.67020e-02 
   @DF-RKS iter   1:  -210.21405254613174    6.29814e-01   7.07358e-03 
   @DF-RKS iter   2:  -210.07258182765187    1.41471e-01   9.62901e-03 DIIS
   @DF-RKS iter   3:  -210.39021859521199   -3.17637e-01   5.67755e-04 DIIS
   @DF-RKS iter   4:  -210.39087399173263   -6.55397e-04   3.62478e-04 DIIS
   @DF-RKS iter   5:  -210.39134063900579   -4.66647e-04   4.88133e-05 DIIS
   @DF-RKS iter   6:  -210.39134694984844   -6.31084e-06   2.33351e-05 DIIS
   @DF-RKS iter   7:  -210.39134892944350   -1.97960e-06   2.17181e-06 DIIS
   @DF-RKS iter   8:  -210.39134894645443   -1.70109e-08   6.93197e-07 DIIS

  ==> Post-Iterations <==

    Orbital Energies [Eh]
    ---------------------

    Doubly Occupied:                                                      

       1A    -19.125268     2A    -14.305486     3A    -10.220981  
       4A    -10.201799     5A     -1.007675     6A     -0.876833  
       7A     -0.711372     8A     -0.594895     9A     -0.504279  
      10A     -0.490238    11A     -0.447515    12A     -0.418956  
      13A     -0.390831    14A     -0.356851    15A     -0.323129  
      16A     -0.258886    17A     -0.232619  

    Virtual:                                                              

      18A      0.051742    19A      0.058698    20A      0.099119  
      21A      0.120894    22A      0.125823    23A      0.149379  
      24A      0.175715    25A      0.203873    26A      0.246027  
      27A      0.260303    28A      0.434449    29A      0.453457  
      30A      0.489329    31A      0.499834    32A      0.561606  
      33A      0.584344    34A      0.605449    35A      0.615453  
      36A      0.640830    37A      0.653015    38A      0.660005  
      39A      0.679925    40A      0.704521    41A      0.814796  
      42A      0.837737    43A      0.851466    44A      0.914542  
      45A      0.952891    46A      0.993600    47A      1.007898  
      48A      1.064956    49A      1.193769    50A      1.215329  
      51A      1.242591    52A      1.260997    53A      1.309855  
      54A      1.351999    55A      1.402991    56A      1.491493  
      57A      1.524234    58A      1.603060    59A      1.616495  
      60A      1.649332    61A      1.655126    62A      1.658705  
      63A      1.712669    64A      1.738766    65A      1.764868  
      66A      1.773725    67A      1.798708    68A      1.858256  
      69A      1.913332    70A      1.952282    71A      2.003196  
      72A      2.017707    73A      2.061954    74A      2.148450  
      75A      2.154667    76A      2.246594    77A      2.296935  
      78A      2.373892    79A      2.393091    80A      2.436896  
      81A      2.484791    82A      2.533525    83A      2.604936  
      84A      2.679959    85A      2.821078    86A      2.963567  
      87A      3.007956    88A      3.046428    89A      3.121559  
      90A      3.203830    91A      3.697618  

    Final Occupation by Irrep:
              A 
    DOCC [    17 ]

  Energy converged.

  @DF-RKS Final Energy:  -210.39134894645443

   => Energetics <=

    Nuclear Repulsion Energy =            130.3389792595722270
    One-Electron Energy =                -543.6434320050288989
    Two-Electron Energy =                 226.4044326501726800
    DFT Exchange-Correlation Energy =     -23.4864832611704273
    Empirical Dispersion Energy =          -0.0048455900000000
    VV10 Nonlocal Energy =                  0.0000000000000000
    Total Energy =                       -210.3913489464544284



Properties will be evaluated at   0.000000,   0.000000,   0.000000 [a0]

Properties computed using the SCF density matrix

  Nuclear Dipole Moment: [e a0]
     X:   176.9962      Y:   -32.0391      Z:   -33.1701

  Electronic Dipole Moment: [e a0]
     X:  -176.7957      Y:    32.2898      Z:    33.0264

  Dipole Moment: [e a0]
     X:     0.2005      Y:     0.2507      Z:    -0.1437     Total:     0.3517

  Dipole Moment: [D]
     X:     0.5096      Y:     0.6372      Z:    -0.3652     Total:     0.8939


*** tstop() called on loro.prib.upf.edu at Sat Sep 29 17:09:47 2018
Module time:
	user time   =      14.88 seconds =       0.25 minutes
	system time =       0.22 seconds =       0.00 minutes
	total time  =         18 seconds =       0.30 minutes
Total time:
	user time   =      14.88 seconds =       0.25 minutes
	system time =       0.22 seconds =       0.00 minutes
	total time  =         18 seconds =       0.30 minutes


Properties will be evaluated at   0.000000,   0.000000,   0.000000 [a0]
OEProp: No title given, name of density matrix used for the following properties is 'SCF density'
  Nuclear Dipole Moment: [e a0]
     X:   176.9962      Y:   -32.0391      Z:   -33.1701

  Electronic Dipole Moment: [e a0]
     X:  -176.7957      Y:    32.2898      Z:    33.0264

  Dipole Moment: [e a0]
     X:     0.2005      Y:     0.2507      Z:    -0.1437     Total:     0.3517

  Dipole Moment: [D]
     X:     0.5096      Y:     0.6372      Z:    -0.3652     Total:     0.8939

  Quadrupole Moment: [D A]
    XX:   -24.9575     YY:   -22.6146     ZZ:   -22.5211
    XY:    -0.8281     XZ:    -6.1592     YZ:     2.3138

  Traceless Quadrupole Moment: [D A]
    XX:    -1.5931     YY:     0.7498     ZZ:     0.8433
    XY:    -0.8281     XZ:    -6.1592     YZ:     2.3138

  Mulliken Charges: (a.u.)
   Center  Symbol    Alpha    Beta     Spin     Total
       1     O     4.14020  4.14020  0.00000 -0.28040
       2     C     2.92566  2.92566  0.00000  0.14868
       3     C     2.98957  2.98957  0.00000  0.02085
       4     N     3.59192  3.59192  0.00000 -0.18383
       5     H     0.42991  0.42991  0.00000  0.14018
       6     H     0.49925  0.49925  0.00000  0.00150
       7     H     0.50488  0.50488  0.00000 -0.00975
       8     H     0.50002  0.50002  0.00000 -0.00004
       9     H     0.49058  0.49058  0.00000  0.01884
      10     H     0.46480  0.46480  0.00000  0.07040
      11     H     0.46320  0.46320  0.00000  0.07359

   Total alpha = 17.00000, Total beta = 17.00000, Total charge =  0.00000


    Psi4 stopped on: Saturday, 29 September 2018 05:09PM
    Psi4 wall time for execution: 0:00:17.39

*** Psi4 exiting successfully. Buy a developer a beer!
