
    -----------------------------------------------------------------------
          Psi4: An Open-Source Ab Initio Electronic Structure Package
                               Psi4 1.2.1 release

                         Git: Rev {HEAD} 406f4de 


    R. M. Parrish, L. A. Burns, D. G. A. Smith, A. C. Simmonett,
    A. E. DePrince III, E. G. Hohenstein, U. Bozkaya, A. Yu. Sokolov,
    R. Di Remigio, R. M. Richard, J. F. Gonthier, A. M. James,
    H. R. McAlexander, A. Kumar, M. Saitow, X. Wang, B. P. Pritchard,
    P. Verma, H. F. Schaefer III, K. Patkowski, R. A. King, E. F. Valeev,
    F. A. Evangelista, J. M. Turney, T. D. Crawford, and C. D. Sherrill,
    J. Chem. Theory Comput. 13(7) pp 3185--3197 (2017).
    (doi: 10.1021/acs.jctc.7b00174)


                         Additional Contributions by
    P. Kraus, H. Kruse, M. H. Lechner, M. C. Schieber, and R. A. Shaw

    -----------------------------------------------------------------------


    Psi4 started on: Saturday, 29 September 2018 05:10PM

    Process ID: 14182
    Host:       loro.prib.upf.edu
    PSIDATADIR: /shared/joao/test_parameterize/miniconda3/share/psi4
    Memory:     500.0 MiB
    Threads:    1
    
  ==> Input File <==

--------------------------------------------------------------------------
set_num_threads(1)
set_memory('5348 MB')

set { scf_mem_safety_factor 0.7 }

set { reference rks }
set { basis cc-pVDZ }

molecule MOL {
    0 1
    noreorient
    nocom
    symmetry c1
    O    1.050400   0.042900  -0.048100
    C    2.474100   0.047400  -0.029000
    C    3.002600  -1.068900  -0.932000
    N    4.462700  -1.072400  -1.006800
    H    0.771558  -0.872947   0.123607
    H    2.809900  -0.097900   1.003200
    H    2.817400   1.026800  -0.378600
    H    2.581000  -0.963300  -1.938400
    H    2.653800  -2.036400  -0.553400
    H    4.779000  -0.221000  -1.470000
    H    4.758600  -1.842500  -1.606500
}

set optking { frozen_dihedral = (" 3 2 1 5 ") }

energy, wfn = energy('B3LYP-D3', return_wfn=True)

import os
os.chdir(os.environ['HTMD_PSI4_WORKDIR'])

oeprop(wfn, 'DIPOLE', 'QUADRUPOLE', 'MULLIKEN_CHARGES')

with open('psi4out.xyz', 'w') as f:
    f.write('11 ' )
    f.write('%.12f\n' % energy)
    f.write(MOL.save_string_xyz())
--------------------------------------------------------------------------
  Threads set to 1 by Python driver.

  Memory set to   4.981 GiB by Python driver.

*** tstart() called on loro.prib.upf.edu
*** at Sat Sep 29 17:10:44 2018

   => Loading Basis Set <=

    Name: CC-PVDZ
    Role: ORBITAL
    Keyword: BASIS
    atoms 1    entry O          line   198 file /shared/joao/test_parameterize/miniconda3/share/psi4/basis/cc-pvdz.gbs 
    atoms 2-3  entry C          line   138 file /shared/joao/test_parameterize/miniconda3/share/psi4/basis/cc-pvdz.gbs 
    atoms 4    entry N          line   168 file /shared/joao/test_parameterize/miniconda3/share/psi4/basis/cc-pvdz.gbs 
    atoms 5-11 entry H          line    22 file /shared/joao/test_parameterize/miniconda3/share/psi4/basis/cc-pvdz.gbs 


         ---------------------------------------------------------
                                   SCF
            by Justin Turney, Rob Parrish, Andy Simmonett
                             and Daniel Smith
                              RKS Reference
                        1 Threads,   5100 MiB Core
         ---------------------------------------------------------

  ==> Geometry <==

    Molecular point group: c1
    Full point group: C1

    Geometry (in Angstrom), charge = 0, multiplicity = 1:

       Center              X                  Y                   Z               Mass       
    ------------   -----------------  -----------------  -----------------  -----------------
         O            1.050400000000     0.042900000000    -0.048100000000    15.994914619560
         C            2.474100000000     0.047400000000    -0.029000000000    12.000000000000
         C            3.002600000000    -1.068900000000    -0.932000000000    12.000000000000
         N            4.462700000000    -1.072400000000    -1.006800000000    14.003074004780
         H            0.771558000000    -0.872947000000     0.123607000000     1.007825032070
         H            2.809900000000    -0.097900000000     1.003200000000     1.007825032070
         H            2.817400000000     1.026800000000    -0.378600000000     1.007825032070
         H            2.581000000000    -0.963300000000    -1.938400000000     1.007825032070
         H            2.653800000000    -2.036400000000    -0.553400000000     1.007825032070
         H            4.779000000000    -0.221000000000    -1.470000000000     1.007825032070
         H            4.758600000000    -1.842500000000    -1.606500000000     1.007825032070

  Running in c1 symmetry.

  Rotational constants: A =      0.74294  B =      0.02759  C =      0.02697 [cm^-1]
  Rotational constants: A =  22272.87089  B =    827.06641  C =    808.56209 [MHz]
  Nuclear repulsion =  130.926013028127983

  Charge       = 0
  Multiplicity = 1
  Electrons    = 34
  Nalpha       = 17
  Nbeta        = 17

  ==> Algorithm <==

  SCF Algorithm Type is DF.
  DIIS enabled.
  MOM disabled.
  Fractional occupation disabled.
  Guess Type is SAD.
  Energy threshold   = 1.00e-06
  Density threshold  = 1.00e-06
  Integral threshold = 0.00e+00

  ==> Primary Basis <==

  Basis Set: CC-PVDZ
    Blend: CC-PVDZ
    Number of shells: 45
    Number of basis function: 91
    Number of Cartesian functions: 95
    Spherical Harmonics?: true
    Max angular momentum: 2

  ==> DFT Potential <==

   => Composite Functional: B3LYP-D3ZERO <= 

    B3LYP-d3zero Hyb-GGA Exchange-Correlation Functional

    P. J. Stephens, F. J. Devlin, C. F. Chabalowski, and M. J. Frisch, J. Phys. Chem. 98, 11623 (1994)

    Deriv               =              1
    GGA                 =           TRUE
    Meta                =          FALSE

    Exchange Hybrid     =           TRUE
    MP2 Hybrid          =          FALSE

   => Exchange Functionals <=

    0.0800   Slater exchange
    0.7200         Becke 88

   => Exact (HF) Exchange <=

    0.2000               HF 

   => Correlation Functionals <=

    0.1900   Vosko, Wilk & Nusair (VWN5_RPA)
    0.8100   Lee, Yang & Parr

   => Molecular Quadrature <=

    Radial Scheme       =       TREUTLER
    Pruning Scheme      =           FLAT
    Nuclear Scheme      =       TREUTLER

    BS radius alpha     =              1
    Pruning alpha       =              1
    Radial Points       =             75
    Spherical Points    =            302
    Total Points        =         245067
    Total Blocks        =           1905
    Max Points          =            256
    Max Functions       =             91

   => -D3ZERO: Empirical Dispersion <=

    Grimme's -D3 (zero-damping) Dispersion Correction
    Grimme S.; Antony J.; Ehrlich S.; Krieg H. (2010), J. Chem. Phys., 132: 154104

        S6 =   1.000000E+00
        S8 =   1.703000E+00
       SR6 =   1.261000E+00
       SR8 =   1.000000E+00
    ALPHA6 =   1.400000E+01

   => Loading Basis Set <=

    Name: (CC-PVDZ AUX)
    Role: JKFIT
    Keyword: DF_BASIS_SCF
    atoms 1    entry O          line   221 file /shared/joao/test_parameterize/miniconda3/share/psi4/basis/cc-pvdz-jkfit.gbs 
    atoms 2-3  entry C          line   121 file /shared/joao/test_parameterize/miniconda3/share/psi4/basis/cc-pvdz-jkfit.gbs 
    atoms 4    entry N          line   171 file /shared/joao/test_parameterize/miniconda3/share/psi4/basis/cc-pvdz-jkfit.gbs 
    atoms 5-11 entry H          line    51 file /shared/joao/test_parameterize/miniconda3/share/psi4/basis/cc-pvdz-jkfit.gbs 

  ==> Pre-Iterations <==

   -------------------------------------------------------
    Irrep   Nso     Nmo     Nalpha   Nbeta   Ndocc  Nsocc
   -------------------------------------------------------
     A         91      91       0       0       0       0
   -------------------------------------------------------
    Total      91      91      17      17      17       0
   -------------------------------------------------------

  ==> Integral Setup <==

  DFHelper Memory: AOs need 0.036 [GiB]; user supplied 3.486 [GiB]. Using in-core AOs.

  ==> MemDFJK: Density-Fitted J/K Matrices <==

    J tasked:                   Yes
    K tasked:                   Yes
    wK tasked:                   No
    OpenMP threads:               1
    Memory (MB):               3570
    Algorithm:                 Core
    Schwarz Cutoff:           1E-12
    Mask sparsity (%):       0.2415
    Fitting Condition:        1E-12

   => Auxiliary Basis Set <=

  Basis Set: (CC-PVDZ AUX)
    Blend: CC-PVDZ-JKFIT
    Number of shells: 159
    Number of basis function: 441
    Number of Cartesian functions: 499
    Spherical Harmonics?: true
    Max angular momentum: 3

  Minimum eigenvalue in the overlap matrix is 4.4096628360E-03.
  Using Symmetric Orthogonalization.

  SCF Guess: Superposition of Atomic Densities via on-the-fly atomic UHF.

  ==> Iterations <==

                           Total Energy        Delta E     RMS |[F,P]|

   @DF-RKS iter   0:  -210.80677269897828   -2.10807e+02   3.66935e-02 
   @DF-RKS iter   1:  -210.22471645313215    5.82056e-01   6.86863e-03 
   @DF-RKS iter   2:  -210.09717740387623    1.27539e-01   9.25582e-03 DIIS
   @DF-RKS iter   3:  -210.39096917161933   -2.93792e-01   5.82771e-04 DIIS
   @DF-RKS iter   4:  -210.39175559559155   -7.86424e-04   3.42017e-04 DIIS
   @DF-RKS iter   5:  -210.39218051220436   -4.24917e-04   5.37108e-05 DIIS
   @DF-RKS iter   6:  -210.39218831067370   -7.79847e-06   2.53649e-05 DIIS
   @DF-RKS iter   7:  -210.39219059304946   -2.28238e-06   2.08686e-06 DIIS
   @DF-RKS iter   8:  -210.39219060917236   -1.61229e-08   6.04587e-07 DIIS

  ==> Post-Iterations <==

    Orbital Energies [Eh]
    ---------------------

    Doubly Occupied:                                                      

       1A    -19.128652     2A    -14.308076     3A    -10.224573  
       4A    -10.206726     5A     -1.011474     6A     -0.880381  
       7A     -0.711492     8A     -0.613639     9A     -0.498343  
      10A     -0.489571    11A     -0.446390    12A     -0.426853  
      13A     -0.397344    14A     -0.372813    15A     -0.321115  
      16A     -0.263359    17A     -0.234963  

    Virtual:                                                              

      18A      0.050114    19A      0.055176    20A      0.092072  
      21A      0.117968    22A      0.130979    23A      0.148204  
      24A      0.163305    25A      0.209711    26A      0.241293  
      27A      0.254937    28A      0.435812    29A      0.444323  
      30A      0.482501    31A      0.499708    32A      0.560430  
      33A      0.576483    34A      0.598459    35A      0.601839  
      36A      0.632923    37A      0.651376    38A      0.664057  
      39A      0.677527    40A      0.698374    41A      0.814250  
      42A      0.822684    43A      0.840703    44A      0.914760  
      45A      0.956200    46A      1.009984    47A      1.021410  
      48A      1.065576    49A      1.144881    50A      1.195801  
      51A      1.226022    52A      1.248382    53A      1.297679  
      54A      1.380683    55A      1.450474    56A      1.469869  
      57A      1.522234    58A      1.605874    59A      1.630154  
      60A      1.643353    61A      1.651229    62A      1.662100  
      63A      1.705068    64A      1.732372    65A      1.740385  
      66A      1.772654    67A      1.818844    68A      1.857864  
      69A      1.879256    70A      1.945308    71A      2.004438  
      72A      2.005624    73A      2.057122    74A      2.097928  
      75A      2.159502    76A      2.243445    77A      2.260346  
      78A      2.365193    79A      2.399276    80A      2.438603  
      81A      2.483302    82A      2.548660    83A      2.606205  
      84A      2.672103    85A      2.821564    86A      2.940722  
      87A      3.002365    88A      3.054557    89A      3.087152  
      90A      3.242068    91A      3.681787  

    Final Occupation by Irrep:
              A 
    DOCC [    17 ]

  Energy converged.

  @DF-RKS Final Energy:  -210.39219060917236

   => Energetics <=

    Nuclear Repulsion Energy =            130.9260130281279828
    One-Electron Energy =                -544.6822899776075246
    Two-Electron Energy =                 226.8559364068391062
    DFT Exchange-Correlation Energy =     -23.4866809465318873
    Empirical Dispersion Energy =          -0.0051691200000000
    VV10 Nonlocal Energy =                  0.0000000000000000
    Total Energy =                       -210.3921906091723599



Properties will be evaluated at   0.000000,   0.000000,   0.000000 [a0]

Properties computed using the SCF density matrix

  Nuclear Dipole Moment: [e a0]
     X:   177.0174      Y:   -34.5817      Z:   -34.0500

  Electronic Dipole Moment: [e a0]
     X:  -176.7842      Y:    34.0993      Z:    33.6353

  Dipole Moment: [e a0]
     X:     0.2331      Y:    -0.4824      Z:    -0.4147     Total:     0.6775

  Dipole Moment: [D]
     X:     0.5925      Y:    -1.2261      Z:    -1.0541     Total:     1.7221


*** tstop() called on loro.prib.upf.edu at Sat Sep 29 17:11:01 2018
Module time:
	user time   =      15.25 seconds =       0.25 minutes
	system time =       0.22 seconds =       0.00 minutes
	total time  =         17 seconds =       0.28 minutes
Total time:
	user time   =      15.25 seconds =       0.25 minutes
	system time =       0.22 seconds =       0.00 minutes
	total time  =         17 seconds =       0.28 minutes


Properties will be evaluated at   0.000000,   0.000000,   0.000000 [a0]
OEProp: No title given, name of density matrix used for the following properties is 'SCF density'
  Nuclear Dipole Moment: [e a0]
     X:   177.0174      Y:   -34.5817      Z:   -34.0500

  Electronic Dipole Moment: [e a0]
     X:  -176.7842      Y:    34.0993      Z:    33.6353

  Dipole Moment: [e a0]
     X:     0.2331      Y:    -0.4824      Z:    -0.4147     Total:     0.6775

  Dipole Moment: [D]
     X:     0.5925      Y:    -1.2261      Z:    -1.0541     Total:     1.7221

  Quadrupole Moment: [D A]
    XX:   -24.6144     YY:   -22.9657     ZZ:   -23.3151
    XY:     0.3537     XZ:    -6.5679     YZ:     0.9798

  Traceless Quadrupole Moment: [D A]
    XX:    -0.9827     YY:     0.6660     ZZ:     0.3167
    XY:     0.3537     XZ:    -6.5679     YZ:     0.9798

  Mulliken Charges: (a.u.)
   Center  Symbol    Alpha    Beta     Spin     Total
       1     O     4.13913  4.13913  0.00000 -0.27827
       2     C     2.91779  2.91779  0.00000  0.16442
       3     C     3.00089  3.00089  0.00000 -0.00178
       4     N     3.59219  3.59219  0.00000 -0.18438
       5     H     0.43140  0.43140  0.00000  0.13721
       6     H     0.49703  0.49703  0.00000  0.00595
       7     H     0.49294  0.49294  0.00000  0.01411
       8     H     0.50142  0.50142  0.00000 -0.00283
       9     H     0.49879  0.49879  0.00000  0.00243
      10     H     0.46421  0.46421  0.00000  0.07159
      11     H     0.46422  0.46422  0.00000  0.07156

   Total alpha = 17.00000, Total beta = 17.00000, Total charge = -0.00000


    Psi4 stopped on: Saturday, 29 September 2018 05:11PM
    Psi4 wall time for execution: 0:00:17.07

*** Psi4 exiting successfully. Buy a developer a beer!
