
    -----------------------------------------------------------------------
          Psi4: An Open-Source Ab Initio Electronic Structure Package
                               Psi4 1.2.1 release

                         Git: Rev {HEAD} 406f4de 


    R. M. Parrish, L. A. Burns, D. G. A. Smith, A. C. Simmonett,
    A. E. DePrince III, E. G. Hohenstein, U. Bozkaya, A. Yu. Sokolov,
    R. Di Remigio, R. M. Richard, J. F. Gonthier, A. M. James,
    H. R. McAlexander, A. Kumar, M. Saitow, X. Wang, B. P. Pritchard,
    P. Verma, H. F. Schaefer III, K. Patkowski, R. A. King, E. F. Valeev,
    F. A. Evangelista, J. M. Turney, T. D. Crawford, and C. D. Sherrill,
    J. Chem. Theory Comput. 13(7) pp 3185--3197 (2017).
    (doi: 10.1021/acs.jctc.7b00174)


                         Additional Contributions by
    P. Kraus, H. Kruse, M. H. Lechner, M. C. Schieber, and R. A. Shaw

    -----------------------------------------------------------------------


    Psi4 started on: Saturday, 29 September 2018 08:48PM

    Process ID: 1058
    Host:       arancio.prib.upf.edu
    PSIDATADIR: /shared/joao/test_parameterize/miniconda3/share/psi4
    Memory:     500.0 MiB
    Threads:    1
    
  ==> Input File <==

--------------------------------------------------------------------------
set_num_threads(4)
set_memory('3000 MB')

set { scf_mem_safety_factor 0.7 }

set { reference rks }
set { basis 6-31G* }

molecule MOL {
    1 1
    noreorient
    nocom
    symmetry c1
    C   -0.000000  -0.000000  -0.177864
    C    0.036678   1.219374   0.524165
    C    0.031765   1.213120   1.915444
    C    0.000000   0.000000   2.610107
    C   -0.031765  -1.213120   1.915444
    C   -0.036678  -1.219375   0.524165
    C   -0.000000   0.000000  -1.644734
    H    0.018170   2.164705  -0.010854
    H    0.042402   2.152895   2.457886
    H    0.000000   0.000000   3.695756
    H   -0.042402  -2.152895   2.457886
    H   -0.018170  -2.164705  -0.010853
    N    0.904833   0.714007  -2.308460
    N   -0.904833  -0.714007  -2.308461
    H   -0.890289  -0.820899  -3.315997
    H   -1.686726  -1.122369  -1.813317
    H    1.686726   1.122369  -1.813316
    H    0.890289   0.820900  -3.315996
}

set optking { frozen_dihedral = (" 2 1 7 13 ") }

set optking { dynamic_level = 1 
 geom_maxiter = 250
 print_trajectory_xyz_file = True }

energy, wfn = optimize('B3LYP-D3', return_wfn=True)

import os
os.chdir(os.environ['HTMD_PSI4_WORKDIR'])

oeprop(wfn, 'DIPOLE', 'QUADRUPOLE', 'MULLIKEN_CHARGES')

with open('psi4out.xyz', 'w') as f:
    f.write('18 ' )
    f.write('%.12f\n' % energy)
    f.write(MOL.save_string_xyz())
--------------------------------------------------------------------------
  Threads set to 4 by Python driver.

  Memory set to   2.794 GiB by Python driver.
gradient() will perform analytic gradient computation.

*** tstart() called on arancio.prib.upf.edu
*** at Sat Sep 29 20:48:41 2018

   => Loading Basis Set <=

    Name: 6-31G*
    Role: ORBITAL
    Keyword: BASIS
    atoms 1-7         entry C          line   111 file /shared/joao/test_parameterize/miniconda3/share/psi4/basis/6-31gs.gbs 
    atoms 8-12, 15-18 entry H          line    44 file /shared/joao/test_parameterize/miniconda3/share/psi4/basis/6-31gs.gbs 
    atoms 13-14       entry N          line   128 file /shared/joao/test_parameterize/miniconda3/share/psi4/basis/6-31gs.gbs 


         ---------------------------------------------------------
                                   SCF
            by Justin Turney, Rob Parrish, Andy Simmonett
                             and Daniel Smith
                              RKS Reference
                        4 Threads,   2861 MiB Core
         ---------------------------------------------------------

  ==> Geometry <==

    Molecular point group: c1
    Full point group: C1

    Geometry (in Angstrom), charge = 1, multiplicity = 1:

       Center              X                  Y                   Z               Mass       
    ------------   -----------------  -----------------  -----------------  -----------------
         C            0.000000000000     0.000000000000    -0.177864000000    12.000000000000
         C            0.036678000000     1.219374000000     0.524165000000    12.000000000000
         C            0.031765000000     1.213120000000     1.915444000000    12.000000000000
         C            0.000000000000     0.000000000000     2.610107000000    12.000000000000
         C           -0.031765000000    -1.213120000000     1.915444000000    12.000000000000
         C           -0.036678000000    -1.219375000000     0.524165000000    12.000000000000
         C            0.000000000000     0.000000000000    -1.644734000000    12.000000000000
         H            0.018170000000     2.164705000000    -0.010854000000     1.007825032070
         H            0.042402000000     2.152895000000     2.457886000000     1.007825032070
         H            0.000000000000     0.000000000000     3.695756000000     1.007825032070
         H           -0.042402000000    -2.152895000000     2.457886000000     1.007825032070
         H           -0.018170000000    -2.164705000000    -0.010853000000     1.007825032070
         N            0.904833000000     0.714007000000    -2.308460000000    14.003074004780
         N           -0.904833000000    -0.714007000000    -2.308461000000    14.003074004780
         H           -0.890289000000    -0.820899000000    -3.315997000000     1.007825032070
         H           -1.686726000000    -1.122369000000    -1.813317000000     1.007825032070
         H            1.686726000000     1.122369000000    -1.813316000000     1.007825032070
         H            0.890289000000     0.820900000000    -3.315996000000     1.007825032070

  Running in c1 symmetry.

  Rotational constants: A =      0.12190  B =      0.03868  C =      0.03187 [cm^-1]
  Rotational constants: A =   3654.48816  B =   1159.55833  C =    955.54164 [MHz]
  Nuclear repulsion =  416.470562736405043

  Charge       = 1
  Multiplicity = 1
  Electrons    = 64
  Nalpha       = 32
  Nbeta        = 32

  ==> Algorithm <==

  SCF Algorithm Type is DF.
  DIIS enabled.
  MOM disabled.
  Fractional occupation disabled.
  Guess Type is SAD.
  Energy threshold   = 1.00e-08
  Density threshold  = 1.00e-08
  Integral threshold = 0.00e+00

  ==> Primary Basis <==

  Basis Set: 6-31G*
    Blend: 6-31G*
    Number of shells: 72
    Number of basis function: 153
    Number of Cartesian functions: 153
    Spherical Harmonics?: false
    Max angular momentum: 2

  ==> DFT Potential <==

   => Composite Functional: B3LYP-D3ZERO <= 

    B3LYP-d3zero Hyb-GGA Exchange-Correlation Functional

    P. J. Stephens, F. J. Devlin, C. F. Chabalowski, and M. J. Frisch, J. Phys. Chem. 98, 11623 (1994)

    Deriv               =              1
    GGA                 =           TRUE
    Meta                =          FALSE

    Exchange Hybrid     =           TRUE
    MP2 Hybrid          =          FALSE

   => Exchange Functionals <=

    0.0800   Slater exchange
    0.7200         Becke 88

   => Exact (HF) Exchange <=

    0.2000               HF 

   => Correlation Functionals <=

    0.1900   Vosko, Wilk & Nusair (VWN5_RPA)
    0.8100   Lee, Yang & Parr

   => Molecular Quadrature <=

    Radial Scheme       =       TREUTLER
    Pruning Scheme      =           FLAT
    Nuclear Scheme      =       TREUTLER

    BS radius alpha     =              1
    Pruning alpha       =              1
    Radial Points       =             75
    Spherical Points    =            302
    Total Points        =         397112
    Total Blocks        =           3032
    Max Points          =            256
    Max Functions       =            149

   => -D3ZERO: Empirical Dispersion <=

    Grimme's -D3 (zero-damping) Dispersion Correction
    Grimme S.; Antony J.; Ehrlich S.; Krieg H. (2010), J. Chem. Phys., 132: 154104

        S6 =   1.000000E+00
        S8 =   1.703000E+00
       SR6 =   1.261000E+00
       SR8 =   1.000000E+00
    ALPHA6 =   1.400000E+01

   => Loading Basis Set <=

    Name: (6-31G* AUX)
    Role: JKFIT
    Keyword: DF_BASIS_SCF
    atoms 1-7         entry C          line   121 file /shared/joao/test_parameterize/miniconda3/share/psi4/basis/cc-pvdz-jkfit.gbs 
    atoms 8-12, 15-18 entry H          line    51 file /shared/joao/test_parameterize/miniconda3/share/psi4/basis/cc-pvdz-jkfit.gbs 
    atoms 13-14       entry N          line   171 file /shared/joao/test_parameterize/miniconda3/share/psi4/basis/cc-pvdz-jkfit.gbs 

  ==> Pre-Iterations <==

   -------------------------------------------------------
    Irrep   Nso     Nmo     Nalpha   Nbeta   Ndocc  Nsocc
   -------------------------------------------------------
     A        153     153       0       0       0       0
   -------------------------------------------------------
    Total     153     153      32      32      32       0
   -------------------------------------------------------

  ==> Integral Setup <==

  ==> DiskDFJK: Density-Fitted J/K Matrices <==

    J tasked:                  Yes
    K tasked:                  Yes
    wK tasked:                  No
    OpenMP threads:              4
    Integrals threads:           4
    Memory (MB):              2002
    Algorithm:                Core
    Integral Cache:           NONE
    Schwarz Cutoff:          1E-12
    Fitting Condition:       1E-12

   => Auxiliary Basis Set <=

  Basis Set: (6-31G* AUX)
    Blend: CC-PVDZ-JKFIT
    Number of shells: 297
    Number of basis function: 954
    Number of Cartesian functions: 954
    Spherical Harmonics?: false
    Max angular momentum: 3

  Minimum eigenvalue in the overlap matrix is 4.8793642284E-04.
  Using Symmetric Orthogonalization.

  SCF Guess: Superposition of Atomic Densities via on-the-fly atomic UHF.

  ==> Iterations <==

                           Total Energy        Delta E     RMS |[F,P]|

   @DF-RKS iter   0:  -379.66654061967125   -3.79667e+02   6.84127e-02 
   @DF-RKS iter   1:  -381.05577018441016   -1.38923e+00   1.16881e-02 
   @DF-RKS iter   2:  -380.98906550188576    6.67047e-02   1.26736e-02 DIIS
   @DF-RKS iter   3:  -381.46345151499310   -4.74386e-01   1.43830e-03 DIIS
   @DF-RKS iter   4:  -381.46785581634452   -4.40430e-03   6.88166e-04 DIIS
   @DF-RKS iter   5:  -381.46908470617569   -1.22889e-03   2.12478e-04 DIIS
   @DF-RKS iter   6:  -381.46919620520492   -1.11499e-04   8.22190e-05 DIIS
   @DF-RKS iter   7:  -381.46921473763337   -1.85324e-05   1.16641e-05 DIIS
   @DF-RKS iter   8:  -381.46921505391634   -3.16283e-07   5.80639e-06 DIIS
   @DF-RKS iter   9:  -381.46921515622603   -1.02310e-07   1.64582e-06 DIIS
   @DF-RKS iter  10:  -381.46921516376909   -7.54306e-09   6.91920e-07 DIIS
   @DF-RKS iter  11:  -381.46921516519785   -1.42876e-09   7.93174e-08 DIIS
   @DF-RKS iter  12:  -381.46921516521024   -1.23919e-11   4.98263e-08 DIIS
   @DF-RKS iter  13:  -381.46921516521689   -6.65068e-12   1.64637e-08 DIIS
   @DF-RKS iter  14:  -381.46921516521786   -9.66338e-13   6.64813e-09 DIIS

  ==> Post-Iterations <==

    Orbital Energies [Eh]
    ---------------------

    Doubly Occupied:                                                      

       1A    -14.570233     2A    -14.570226     3A    -10.498805  
       4A    -10.371315     5A    -10.353464     6A    -10.353455  
       7A    -10.339933     8A    -10.337840     9A    -10.337771  
      10A     -1.185171    11A     -1.093090    12A     -1.012207  
      13A     -0.925437    14A     -0.899512    15A     -0.844886  
      16A     -0.786270    17A     -0.769660    18A     -0.745557  
      19A     -0.730766    20A     -0.689471    21A     -0.668821  
      22A     -0.621952    23A     -0.619083    24A     -0.581346  
      25A     -0.577377    26A     -0.569818    27A     -0.517671  
      28A     -0.502451    29A     -0.495167    30A     -0.474684  
      31A     -0.409639    32A     -0.403156  

    Virtual:                                                              

      33A     -0.211853    34A     -0.154335    35A     -0.140254  
      36A     -0.108788    37A     -0.064540    38A     -0.062850  
      39A     -0.037753    40A     -0.030493    41A      0.006852  
      42A      0.015420    43A      0.022324    44A      0.055723  
      45A      0.062059    46A      0.078788    47A      0.134752  
      48A      0.147107    49A      0.159259    50A      0.161088  
      51A      0.201703    52A      0.238072    53A      0.295752  
      54A      0.348169    55A      0.356522    56A      0.383023  
      57A      0.387356    58A      0.398089    59A      0.415676  
      60A      0.423965    61A      0.445925    62A      0.449362  
      63A      0.451864    64A      0.470252    65A      0.473468  
      66A      0.477708    67A      0.485838    68A      0.509892  
      69A      0.514342    70A      0.537991    71A      0.543895  
      72A      0.584966    73A      0.597895    74A      0.646861  
      75A      0.661435    76A      0.684103    77A      0.684638  
      78A      0.705257    79A      0.708982    80A      0.709243  
      81A      0.728763    82A      0.755990    83A      0.776635  
      84A      0.796774    85A      0.810312    86A      0.828880  
      87A      0.852185    88A      0.941104    89A      0.966000  
      90A      0.996293    91A      1.000552    92A      1.026555  
      93A      1.051160    94A      1.078764    95A      1.151859  
      96A      1.164427    97A      1.222368    98A      1.275240  
      99A      1.287221   100A      1.312402   101A      1.321633  
     102A      1.345141   103A      1.365433   104A      1.366140  
     105A      1.446342   106A      1.454056   107A      1.472446  
     108A      1.609408   109A      1.636075   110A      1.647249  
     111A      1.667952   112A      1.736026   113A      1.755817  
     114A      1.795636   115A      1.829536   116A      1.852262  
     117A      1.896292   118A      1.909059   119A      1.970042  
     120A      1.976617   121A      2.000361   122A      2.012244  
     123A      2.043098   124A      2.064142   125A      2.125134  
     126A      2.132427   127A      2.159177   128A      2.211053  
     129A      2.218982   130A      2.259853   131A      2.370762  
     132A      2.371694   133A      2.424079   134A      2.454643  
     135A      2.494734   136A      2.542978   137A      2.560260  
     138A      2.588018   139A      2.605354   140A      2.629799  
     141A      2.734206   142A      2.883761   143A      2.963621  
     144A      3.259040   145A      3.636763   146A      3.644871  
     147A      3.926082   148A      3.954983   149A      3.968165  
     150A      4.068910   151A      4.180545   152A      4.259278  
     153A      4.548031  

    Final Occupation by Irrep:
              A 
    DOCC [    32 ]

  Energy converged.

  @DF-RKS Final Energy:  -381.46921516521786

   => Energetics <=

    Nuclear Repulsion Energy =            416.4705627364050429
    One-Electron Energy =               -1328.2204482147283215
    Two-Electron Energy =                 574.6967088940278927
    DFT Exchange-Correlation Energy =     -44.4041337609225977
    Empirical Dispersion Energy =          -0.0119048200000000
    VV10 Nonlocal Energy =                  0.0000000000000000
    Total Energy =                       -381.4692151652179177



Properties will be evaluated at   0.000000,   0.000000,   0.000000 [a0]

Properties computed using the SCF density matrix

  Nuclear Dipole Moment: [e a0]
     X:     0.0000      Y:    -0.0000      Z:     0.0248

  Electronic Dipole Moment: [e a0]
     X:     0.0000      Y:     0.0000      Z:    -2.3717

  Dipole Moment: [e a0]
     X:     0.0000      Y:     0.0000      Z:    -2.3469     Total:     2.3469

  Dipole Moment: [D]
     X:     0.0000      Y:     0.0000      Z:    -5.9652     Total:     5.9652


*** tstop() called on arancio.prib.upf.edu at Sat Sep 29 20:49:07 2018
Module time:
	user time   =      92.28 seconds =       1.54 minutes
	system time =       0.43 seconds =       0.01 minutes
	total time  =         26 seconds =       0.43 minutes
Total time:
	user time   =      92.28 seconds =       1.54 minutes
	system time =       0.43 seconds =       0.01 minutes
	total time  =         26 seconds =       0.43 minutes

*** tstart() called on arancio.prib.upf.edu
*** at Sat Sep 29 20:49:07 2018


         ------------------------------------------------------------
                                   SCF GRAD                          
                          Rob Parrish, Justin Turney,                
                       Andy Simmonett, and Alex Sokolov              
         ------------------------------------------------------------

  ==> Geometry <==

    Molecular point group: c1
    Full point group: C1

    Geometry (in Angstrom), charge = 1, multiplicity = 1:

       Center              X                  Y                   Z               Mass       
    ------------   -----------------  -----------------  -----------------  -----------------
         C            0.000000000000     0.000000000000    -0.177864000000    12.000000000000
         C            0.036678000000     1.219374000000     0.524165000000    12.000000000000
         C            0.031765000000     1.213120000000     1.915444000000    12.000000000000
         C            0.000000000000     0.000000000000     2.610107000000    12.000000000000
         C           -0.031765000000    -1.213120000000     1.915444000000    12.000000000000
         C           -0.036678000000    -1.219375000000     0.524165000000    12.000000000000
         C            0.000000000000     0.000000000000    -1.644734000000    12.000000000000
         H            0.018170000000     2.164705000000    -0.010854000000     1.007825032070
         H            0.042402000000     2.152895000000     2.457886000000     1.007825032070
         H            0.000000000000     0.000000000000     3.695756000000     1.007825032070
         H           -0.042402000000    -2.152895000000     2.457886000000     1.007825032070
         H           -0.018170000000    -2.164705000000    -0.010853000000     1.007825032070
         N            0.904833000000     0.714007000000    -2.308460000000    14.003074004780
         N           -0.904833000000    -0.714007000000    -2.308461000000    14.003074004780
         H           -0.890289000000    -0.820899000000    -3.315997000000     1.007825032070
         H           -1.686726000000    -1.122369000000    -1.813317000000     1.007825032070
         H            1.686726000000     1.122369000000    -1.813316000000     1.007825032070
         H            0.890289000000     0.820900000000    -3.315996000000     1.007825032070

  Nuclear repulsion =  416.470562736405043

  ==> Basis Set <==

  Basis Set: 6-31G*
    Blend: 6-31G*
    Number of shells: 72
    Number of basis function: 153
    Number of Cartesian functions: 153
    Spherical Harmonics?: false
    Max angular momentum: 2

  ==> DFJKGrad: Density-Fitted SCF Gradients <==

    Gradient:                    1
    J tasked:                  Yes
    K tasked:                  Yes
    wK tasked:                  No
    OpenMP threads:              4
    Integrals threads:           4
    Memory (MB):              2002
    Schwarz Cutoff:          0E+00
    Fitting Condition:       1E-12

   => Auxiliary Basis Set <=

  Basis Set: (6-31G* AUX)
    Blend: CC-PVDZ-JKFIT
    Number of shells: 297
    Number of basis function: 954
    Number of Cartesian functions: 954
    Spherical Harmonics?: false
    Max angular momentum: 3

  ==> DFT Potential <==

   => Composite Functional: B3LYP-D3ZERO <= 

    B3LYP-d3zero Hyb-GGA Exchange-Correlation Functional

    P. J. Stephens, F. J. Devlin, C. F. Chabalowski, and M. J. Frisch, J. Phys. Chem. 98, 11623 (1994)

    Deriv               =              1
    GGA                 =           TRUE
    Meta                =          FALSE

    Exchange Hybrid     =           TRUE
    MP2 Hybrid          =          FALSE

   => Exchange Functionals <=

    0.0800   Slater exchange
    0.7200         Becke 88

   => Exact (HF) Exchange <=

    0.2000               HF 

   => Correlation Functionals <=

    0.1900   Vosko, Wilk & Nusair (VWN5_RPA)
    0.8100   Lee, Yang & Parr

   => Molecular Quadrature <=

    Radial Scheme       =       TREUTLER
    Pruning Scheme      =           FLAT
    Nuclear Scheme      =       TREUTLER

    BS radius alpha     =              1
    Pruning alpha       =              1
    Radial Points       =             75
    Spherical Points    =            302
    Total Points        =         397112
    Total Blocks        =           3032
    Max Points          =            256
    Max Functions       =            149


  -Total Gradient:
     Atom            X                  Y                   Z
    ------   -----------------  -----------------  -----------------
       1        0.000000046244     0.000000733067    -0.004025123692
       2       -0.000794709129    -0.000719742146     0.001707145106
       3        0.000377309696     0.000863961001    -0.000679621775
       4       -0.000000000160    -0.000000065665    -0.000001914361
       5       -0.000377311472    -0.000863741594    -0.000679455943
       6        0.000794715163     0.000718278477     0.001706763990
       7        0.000000219374     0.000000085264     0.004477105583
       8       -0.001016286670     0.000345320403     0.000860007707
       9        0.000031239249    -0.000058068341     0.000049648535
      10        0.000000001190     0.000000006442    -0.000022062152
      11       -0.000031240302     0.000058059225     0.000049597417
      12        0.001016276054    -0.000344601407     0.000860457428
      13        0.001415439772    -0.000100832396    -0.001621891981
      14       -0.001415726915     0.000100566045    -0.001622361176
      15        0.000120046869     0.000047298218     0.000512284281
      16       -0.000383076895     0.000702817491    -0.001048398619
      17        0.000383111770    -0.000702801636    -0.001048443065
      18       -0.000120053724    -0.000047272447     0.000512201103


*** tstop() called on arancio.prib.upf.edu at Sat Sep 29 20:49:14 2018
Module time:
	user time   =      27.28 seconds =       0.45 minutes
	system time =       0.20 seconds =       0.00 minutes
	total time  =          7 seconds =       0.12 minutes
Total time:
	user time   =     119.63 seconds =       1.99 minutes
	system time =       0.64 seconds =       0.01 minutes
	total time  =         33 seconds =       0.55 minutes

			-----------------------------------------
			 OPTKING 2.0: for geometry optimizations 
			  - R.A. King,  Bethel University        
			-----------------------------------------
	At level 1: Red. Int., RFO, no backsteps, dynamic trust

	Internal coordinates to be generated automatically.
	Detected frag 1 with atoms:  1 2 3 4 5 6 7 8 9 10 11 12 13 14 15 16 17 18
	---Fragment 1 Bond Connectivity---
	 1 : 2 6 7
	 2 : 1 3 8
	 3 : 2 4 9
	 4 : 3 5 10
	 5 : 4 6 11
	 6 : 1 5 12
	 7 : 1 13 14
	 8 : 2
	 9 : 3
	 10 : 4
	 11 : 5
	 12 : 6
	 13 : 7 17 18
	 14 : 7 15 16
	 15 : 14
	 16 : 14
	 17 : 13
	 18 : 13

	Assuming in current code that numbering for constraints corresponds to unified fragment.
	Frozen dihedral atom list: 
	     2     1     7    13
	---Fragment 1 Geometry and Gradient---
	 C           0.0000000000        0.0000000000       -0.3361142489
	 C           0.0693113751        2.3042829136        0.9905282984
	 C           0.0600271506        2.2924645663        3.6196645829
	 C           0.0000000000        0.0000000000        4.9323874075
	 C          -0.0600271506       -2.2924645663        3.6196645829
	 C          -0.0693113751       -2.3042848033        0.9905282984
	 C           0.0000000000        0.0000000000       -3.1080968214
	 H           0.0343363238        4.0906996085       -0.0205110874
	 H           0.0801281675        4.0683819429        4.6447314059
	 H           0.0000000000        0.0000000000        6.9839666940
	 H          -0.0801281675       -4.0683819429        4.6447314059
	 H          -0.0343363238       -4.0906996085       -0.0205091977
	 N           1.7098865660        1.3492776870       -4.3623571887
	 N          -1.7098865660       -1.3492776870       -4.3623590784
	 H          -1.6824023891       -1.5512742928       -6.2663261875
	 H          -3.1874502012       -2.1209700300       -3.4266725221
	 H           3.1874502012        2.1209700300       -3.4266706324
	 H           1.6824023891        1.5512761825       -6.2663242977
	             0.0000000462        0.0000007331       -0.0040251237
	            -0.0007947091       -0.0007197421        0.0017071451
	             0.0003773097        0.0008639610       -0.0006796218
	            -0.0000000002       -0.0000000657       -0.0000019144
	            -0.0003773115       -0.0008637416       -0.0006794559
	             0.0007947152        0.0007182785        0.0017067640
	             0.0000002194        0.0000000853        0.0044771056
	            -0.0010162867        0.0003453204        0.0008600077
	             0.0000312392       -0.0000580683        0.0000496485
	             0.0000000012        0.0000000064       -0.0000220622
	            -0.0000312403        0.0000580592        0.0000495974
	             0.0010162761       -0.0003446014        0.0008604574
	             0.0014154398       -0.0001008324       -0.0016218920
	            -0.0014157269        0.0001005660       -0.0016223612
	             0.0001200469        0.0000472982        0.0005122843
	            -0.0003830769        0.0007028175       -0.0010483986
	             0.0003831118       -0.0007028016       -0.0010484431
	            -0.0001200537       -0.0000472724        0.0005122011

	Previous optimization step data not found.  Starting new optimization.

	---Fragment 1 Intrafragment Coordinates---
	 - Coordinate -           - BOHR/RAD -       - ANG/DEG -
	 R(1,2)           =         2.659794	       1.407502
	 R(1,6)           =         2.659796	       1.407503
	 R(1,7)           =         2.771983	       1.466870
	 R(2,3)           =         2.629179	       1.391302
	 R(2,8)           =         2.052976	       1.086388
	 R(3,4)           =         2.642393	       1.398294
	 R(3,9)           =         2.050622	       1.085142
	 R(4,5)           =         2.642393	       1.398294
	 R(4,10)          =         2.051579	       1.085649
	 R(5,6)           =         2.629179	       1.391302
	 R(5,11)          =         2.050622	       1.085142
	 R(6,12)          =         2.052973	       1.086386
	 R(7,13)          =         2.513450	       1.330061
	 R(7,14)          =         2.513451	       1.330061
	 R(13,17)         =         1.911600	       1.011575
	 R(13,18)         =         1.914850	       1.013295
	 R(14,15)         =         1.914850	       1.013295
	 R(14,16)         =         1.911600	       1.011575
	 B(1,2,3)         =         2.088380	     119.655376
	 B(1,2,8)         =         2.103396	     120.515689
	 B(1,6,5)         =         2.088379	     119.655315
	 B(1,6,12)        =         2.103396	     120.515729
	 B(1,7,13)        =         2.093263	     119.935145
	 B(1,7,14)        =         2.093264	     119.935183
	 B(2,1,6)         =         2.097220	     120.161857
	 B(2,1,7)         =         2.092983	     119.919082
	 B(2,3,4)         =         2.095279	     120.050636
	 B(2,3,9)         =         2.089719	     119.732108
	 B(3,2,8)         =         2.090149	     119.756722
	 B(3,4,5)         =         2.101793	     120.423859
	 B(3,4,10)        =         2.090696	     119.788070
	 B(4,3,9)         =         2.098135	     120.214297
	 B(4,5,6)         =         2.095280	     120.050677
	 B(4,5,11)        =         2.098135	     120.214297
	 B(5,4,10)        =         2.090696	     119.788070
	 B(5,6,12)        =         2.090149	     119.756743
	 B(6,1,7)         =         2.092982	     119.919061
	 B(6,5,11)        =         2.089719	     119.732067
	 B(7,13,17)       =         2.092412	     119.886381
	 B(7,13,18)       =         2.144860	     122.891418
	 B(7,14,15)       =         2.144860	     122.891422
	 B(7,14,16)       =         2.092411	     119.886344
	 B(13,7,14)       =         2.096658	     120.129672
	 B(15,14,16)      =         2.043400	     117.078175
	 B(17,13,18)      =         2.043399	     117.078146
	 D(1,2,3,4)       =         0.007799	       0.446825
	 D(1,2,3,9)       =        -3.122896	    -178.928735
	 D(1,6,5,4)       =         0.007799	       0.446822
	 D(1,6,5,11)      =        -3.122896	    -178.928737
	 D(1,7,13,17)     =         0.187844	      10.762671
	 D(1,7,13,18)     =        -3.032164	    -173.730214
	 D(1,7,14,15)     =        -3.032165	    -173.730266
	 D(1,7,14,16)     =         0.187844	      10.762667
	 D(2,1,6,5)       =        -0.003906	      -0.223802
	 D(2,1,6,12)      =        -3.091437	    -177.126283
	*D(2,1,7,13)      =         0.872665	      50.000000
	 D(2,1,7,14)      =        -2.268928	    -130.000000
	 D(2,3,4,5)       =        -0.003942	      -0.225875
	 D(2,3,4,10)      =         3.137650	     179.774125
	 D(3,2,1,6)       =        -0.003906	      -0.223806
	 D(3,2,1,7)       =         3.137687	     179.776196
	 D(3,4,5,6)       =        -0.003942	      -0.225874
	 D(3,4,5,11)      =         3.126699	     179.146646
	 D(4,3,2,8)       =         3.095744	     177.373058
	 D(4,5,6,12)      =         3.095744	     177.373055
	 D(5,4,3,9)       =         3.126699	     179.146646
	 D(5,6,1,7)       =         3.137687	     179.776197
	 D(6,1,2,8)       =        -3.091437	    -177.126287
	 D(6,1,7,13)      =        -2.268928	    -129.999999
	 D(6,1,7,14)      =         0.872665	      50.000001
	 D(6,5,4,10)      =         3.137650	     179.774126
	 D(7,1,2,8)       =         0.050156	       2.873714
	 D(7,1,6,12)      =         0.050156	       2.873716
	 D(8,2,3,9)       =        -0.034950	      -2.002503
	 D(9,3,4,10)      =        -0.014894	      -0.853354
	 D(10,4,5,11)     =        -0.014894	      -0.853354
	 D(11,5,6,12)     =        -0.034950	      -2.002504
	 D(13,7,14,15)    =         0.109427	       6.269734
	 D(13,7,14,16)    =        -2.953749	    -169.237333
	 D(14,7,13,17)    =        -2.953749	    -169.237329
	 D(14,7,13,18)    =         0.109428	       6.269786

	Current energy   :      -381.4692151652

	Generating empirical Hessian (Schlegel '84) for each fragment.
	Taking RFO optimization step.
	Going to follow RFO solution 1.
	Using RFO vector 1.
	Norm of target step-size    0.24098
	Projected energy change by RFO approximation:        -0.0017172313

	Back-transformation to cartesian coordinates...
	Could not converge backtransformation.
	Using first guess instead.

	Back-transformation to cartesian coordinates to adjust frozen coordinates...
	Successfully converged to displaced geometry.

	--- Internal Coordinate Step in ANG or DEG, aJ/ANG or AJ/DEG ---
	 ---------------------------------------------------------------------------
	   Coordinate                Previous        Force       Change         New 
	   ----------                --------       ------       ------       ------
	    1 R(1,2)          =      1.407502    -0.011731    -0.001732     1.405770
	    2 R(1,6)          =      1.407503    -0.011731    -0.000591     1.406912
	    3 R(1,7)          =      1.466870     0.001367     0.000743     1.467613
	    4 R(2,3)          =      1.391302     0.005301     0.000823     1.392125
	    5 R(2,8)          =      1.086388     0.000874     0.000867     1.087255
	    6 R(3,4)          =      1.398294     0.001078     0.000509     1.398803
	    7 R(3,9)          =      1.085142     0.000204     0.000170     1.085312
	    8 R(4,5)          =      1.398294     0.001084     0.000471     1.398765
	    9 R(4,10)         =      1.085649     0.000175     0.000098     1.085747
	   10 R(5,6)          =      1.391302     0.005310     0.000760     1.392062
	   11 R(5,11)         =      1.085142     0.000204     0.000705     1.085847
	   12 R(6,12)         =      1.086386     0.000881     0.001585     1.087972
	   13 R(7,13)         =      1.330061    -0.014508    -0.001283     1.328778
	   14 R(7,14)         =      1.330061    -0.014511     0.000800     1.330861
	   15 R(13,17)        =      1.011575     0.004124     0.002193     1.013768
	   16 R(13,18)        =      1.013295     0.004229     0.000660     1.013954
	   17 R(14,15)        =      1.013295     0.004229     0.000850     1.014145
	   18 R(14,16)        =      1.011575     0.004124     0.003953     1.015528
	   19 B(1,2,3)        =    119.655376    -0.000079    -0.266350   119.389026
	   20 B(1,2,8)        =    120.515689    -0.000030    -0.175204   120.340485
	   21 B(1,6,5)        =    119.655315    -0.000079    -0.283438   119.371877
	   22 B(1,6,12)       =    120.515729    -0.000031    -0.113397   120.402332
	   23 B(1,7,13)       =    119.935145    -0.000139    -0.402377   119.532768
	   24 B(1,7,14)       =    119.935183    -0.000139    -0.552333   119.382850
	   25 B(2,1,6)        =    120.161857     0.000158     0.443268   120.605125
	   26 B(2,1,7)        =    119.919082    -0.000079    -0.232350   119.686732
	   27 B(2,3,4)        =    120.050636    -0.000002     0.017911   120.068547
	   28 B(2,3,9)        =    119.732108    -0.000005    -0.045685   119.686423
	   29 B(3,2,8)        =    119.756722     0.000111     0.493882   120.250604
	   30 B(3,4,5)        =    120.423859     0.000003     0.053084   120.476943
	   31 B(3,4,10)       =    119.788070    -0.000002    -0.016707   119.771363
	   32 B(4,3,9)        =    120.214297     0.000006     0.029866   120.244163
	   33 B(4,5,6)        =    120.050677    -0.000002     0.003338   120.054015
	   34 B(4,5,11)       =    120.214297     0.000007     0.040597   120.254894
	   35 B(5,4,10)       =    119.788070    -0.000002    -0.038282   119.749788
	   36 B(5,6,12)       =    119.756743     0.000111     0.435136   120.191878
	   37 B(6,1,7)        =    119.919061    -0.000079    -0.330388   119.588674
	   38 B(6,5,11)       =    119.732067    -0.000005    -0.041158   119.690908
	   39 B(7,13,17)      =    119.886381    -0.000077    -0.320356   119.566025
	   40 B(7,13,18)      =    122.891418     0.000048     0.236506   123.127924
	   41 B(7,14,15)      =    122.891422     0.000048     0.224546   123.115968
	   42 B(7,14,16)      =    119.886344    -0.000077    -0.177567   119.708777
	   43 B(13,7,14)      =    120.129672     0.000278     0.845329   120.975001
	   44 B(15,14,16)     =    117.078175     0.000033     0.044774   117.122949
	   45 B(17,13,18)     =    117.078146     0.000033     0.175985   117.254131
	   46 D(1,2,3,4)      =      0.446825    -0.000001    -0.381715     0.065109
	   47 D(1,2,3,9)      =   -178.928735    -0.000003    -0.668224  -179.596960
	   48 D(1,6,5,4)      =      0.446822     0.000005     1.084753     1.531575
	   49 D(1,6,5,11)     =   -178.928737     0.000001     0.304939  -178.623798
	   50 D(1,7,13,17)    =     10.762671    -0.000022    -3.927579     6.835091
	   51 D(1,7,13,18)    =   -173.730214    -0.000010    -2.129291  -175.859505
	   52 D(1,7,14,15)    =   -173.730266     0.000008     1.641429  -172.088837
	   53 D(1,7,14,16)    =     10.762667    -0.000005    -0.143606    10.619060
	   54 D(2,1,6,5)      =     -0.223802    -0.000009    -2.036643    -2.260445
	   55 D(2,1,6,12)     =   -177.126283    -0.000015    -3.020244  -180.146527
	   56 *D(2,1,7,13)    =     50.000000     0.000000    -0.000000    50.000000
	   57 D(2,1,7,14)     =   -130.000000    -0.000018    -3.764561  -133.764562
	   58 D(2,3,4,5)      =     -0.225875    -0.000003    -0.558702    -0.784578
	   59 D(2,3,4,10)     =    179.774125    -0.000001    -0.055268   179.718856
	   60 D(3,2,1,6)      =     -0.223806     0.000007     1.684499     1.460693
	   61 D(3,2,1,7)      =    179.776196    -0.000010    -2.305300   177.470896
	   62 D(3,4,5,6)      =     -0.225874     0.000000     0.200118    -0.025757
	   63 D(3,4,5,11)     =    179.146646     0.000004     0.983854   180.130501
	   64 D(4,3,2,8)      =    177.373058     0.000007     1.075667   178.448724
	   65 D(4,5,6,12)     =    177.373055     0.000011     2.049135   179.422190
	   66 D(5,4,3,9)      =    179.146646    -0.000001    -0.271057   178.875589
	   67 D(5,6,1,7)      =    179.776197     0.000008     1.949266   181.725463
	   68 D(6,1,2,8)      =   -177.126287    -0.000002     0.204847  -176.921440
	   69 D(6,1,7,13)     =   -129.999999    -0.000016    -3.948917  -133.948916
	   70 D(6,1,7,14)     =     50.000001    -0.000034    -7.713478    42.286523
	   71 D(6,5,4,10)     =    179.774126    -0.000002    -0.303208   179.470918
	   72 D(7,1,2,8)      =      2.873714    -0.000018    -3.784951    -0.911236
	   73 D(7,1,6,12)     =      2.873716     0.000001     0.965665     3.839381
	   74 D(8,2,3,9)      =     -2.002503     0.000005     0.789158    -1.213345
	   75 D(9,3,4,10)     =     -0.853354     0.000001     0.232377    -0.620977
	   76 D(10,4,5,11)    =     -0.853354     0.000002     0.480528    -0.372825
	   77 D(11,5,6,12)    =     -2.002504     0.000007     1.269322    -0.733182
	   78 D(13,7,14,15)   =      6.269734    -0.000010    -2.178897     4.090836
	   79 D(13,7,14,16)   =   -169.237333    -0.000022    -3.963933  -173.201266
	   80 D(14,7,13,17)   =   -169.237329    -0.000005    -0.101595  -169.338924
	   81 D(14,7,13,18)   =      6.269786     0.000008     1.696694     7.966480
	 ---------------------------------------------------------------------------
	Successfully symmetrized geometry.

  ==> Convergence Check <==

  Measures of convergence in internal coordinates in au.
  Criteria marked as inactive (o), active & met (*), and active & unmet ( ).
  --------------------------------------------------------------------------------------------- ~
   Step     Total Energy     Delta E     MAX Force     RMS Force      MAX Disp      RMS Disp    ~
  --------------------------------------------------------------------------------------------- ~
    Convergence Criteria    1.00e-06 *    3.00e-04 *             o    1.20e-03 *             o  ~
  --------------------------------------------------------------------------------------------- ~
      1    -381.46921517   -3.81e+02      3.65e-03      8.80e-04 o    1.35e-01      2.67e-02 o  ~
  ---------------------------------------------------------------------------------------------

	Writing optimization data to binary file.
	Structure for next step:
	Cartesian Geometry (in Angstrom)
	    C     0.0310945351   0.0125189347  -0.1787961080
	    C     0.0736526258   1.2283477373   0.5255756024
	    C     0.0548641708   1.2125189322   1.9174840008
	    C    -0.0044835530  -0.0048967229   2.6037978492
	    C    -0.0618852182  -1.2131857890   1.9014551274
	    C    -0.0608187019  -1.2111422816   0.5093948059
	    C    -0.0056672133   0.0233575999  -1.6459083804
	    H     0.0943349494   2.1736225497  -0.0112215172
	    H     0.0809101582   2.1486167851   2.4660685483
	    H    -0.0142847863  -0.0118122504   3.6894786144
	    H    -0.1099931484  -2.1560540177   2.4378775807
	    H    -0.0959268979  -2.1500509849  -0.0391494230
	    N     0.8783966831   0.7531117822  -2.3178754783
	    N    -0.8755740820  -0.7566885088  -2.2830738359
	    H    -0.8731786224  -0.8827018489  -3.2893565247
	    H    -1.6086552984  -1.2254901758  -1.7595143891
	    H     1.6321682778   1.2110471367  -1.8180267307
	    H     0.8650461217   0.8488811223  -3.3272087418
			--------------------------
			 OPTKING Finished Execution 
			--------------------------

    Structure for next step:
    Molecular point group: c1
    Full point group: C1

    Geometry (in Angstrom), charge = 1, multiplicity = 1:

    C            0.031094535057     0.012518934654    -0.178796107950
    C            0.073652625836     1.228347737310     0.525575602417
    C            0.054864170760     1.212518932177     1.917484000767
    C           -0.004483553048    -0.004896722889     2.603797849175
    C           -0.061885218180    -1.213185789013     1.901455127392
    C           -0.060818701861    -1.211142281573     0.509394805888
    C           -0.005667213324     0.023357599862    -1.645908380428
    H            0.094334949379     2.173622549684    -0.011221517209
    H            0.080910158222     2.148616785141     2.466068548329
    H           -0.014284786310    -0.011812250386     3.689478614450
    H           -0.109993148404    -2.156054017733     2.437877580743
    H           -0.095926897944    -2.150050984881    -0.039149422986
    N            0.878396683115     0.753111782183    -2.317875478311
    N           -0.875574082015    -0.756688508786    -2.283073835943
    H           -0.873178622371    -0.882701848917    -3.289356524696
    H           -1.608655298400    -1.225490175842    -1.759514389118
    H            1.632168277784     1.211047136664    -1.818026730706
    H            0.865046121704     0.848881122346    -3.327208741814

gradient() will perform analytic gradient computation.

*** tstart() called on arancio.prib.upf.edu
*** at Sat Sep 29 20:49:14 2018

   => Loading Basis Set <=

    Name: 6-31G*
    Role: ORBITAL
    Keyword: BASIS
    atoms 1-7         entry C          line   111 file /shared/joao/test_parameterize/miniconda3/share/psi4/basis/6-31gs.gbs 
    atoms 8-12, 15-18 entry H          line    44 file /shared/joao/test_parameterize/miniconda3/share/psi4/basis/6-31gs.gbs 
    atoms 13-14       entry N          line   128 file /shared/joao/test_parameterize/miniconda3/share/psi4/basis/6-31gs.gbs 


         ---------------------------------------------------------
                                   SCF
            by Justin Turney, Rob Parrish, Andy Simmonett
                             and Daniel Smith
                              RKS Reference
                        4 Threads,   2861 MiB Core
         ---------------------------------------------------------

  ==> Geometry <==

    Molecular point group: c1
    Full point group: C1

    Geometry (in Angstrom), charge = 1, multiplicity = 1:

       Center              X                  Y                   Z               Mass       
    ------------   -----------------  -----------------  -----------------  -----------------
         C            0.031094535057     0.012518934654    -0.178796107950    12.000000000000
         C            0.073652625836     1.228347737310     0.525575602417    12.000000000000
         C            0.054864170760     1.212518932177     1.917484000767    12.000000000000
         C           -0.004483553048    -0.004896722889     2.603797849175    12.000000000000
         C           -0.061885218180    -1.213185789013     1.901455127392    12.000000000000
         C           -0.060818701861    -1.211142281573     0.509394805888    12.000000000000
         C           -0.005667213324     0.023357599862    -1.645908380428    12.000000000000
         H            0.094334949379     2.173622549684    -0.011221517209     1.007825032070
         H            0.080910158222     2.148616785141     2.466068548329     1.007825032070
         H           -0.014284786310    -0.011812250386     3.689478614450     1.007825032070
         H           -0.109993148404    -2.156054017733     2.437877580743     1.007825032070
         H           -0.095926897944    -2.150050984881    -0.039149422986     1.007825032070
         N            0.878396683115     0.753111782183    -2.317875478311    14.003074004780
         N           -0.875574082015    -0.756688508786    -2.283073835943    14.003074004780
         H           -0.873178622371    -0.882701848917    -3.289356524696     1.007825032070
         H           -1.608655298400    -1.225490175842    -1.759514389118     1.007825032070
         H            1.632168277784     1.211047136664    -1.818026730706     1.007825032070
         H            0.865046121704     0.848881122346    -3.327208741814     1.007825032070

  Running in c1 symmetry.

  Rotational constants: A =      0.12142  B =      0.03917  C =      0.03181 [cm^-1]
  Rotational constants: A =   3640.10296  B =   1174.28925  C =    953.56436 [MHz]
  Nuclear repulsion =  416.853393102941880

  Charge       = 1
  Multiplicity = 1
  Electrons    = 64
  Nalpha       = 32
  Nbeta        = 32

  ==> Algorithm <==

  SCF Algorithm Type is DF.
  DIIS enabled.
  MOM disabled.
  Fractional occupation disabled.
  Guess Type is READ.
  Energy threshold   = 1.00e-08
  Density threshold  = 1.00e-08
  Integral threshold = 0.00e+00

  ==> Primary Basis <==

  Basis Set: 6-31G*
    Blend: 6-31G*
    Number of shells: 72
    Number of basis function: 153
    Number of Cartesian functions: 153
    Spherical Harmonics?: false
    Max angular momentum: 2

  ==> DFT Potential <==

   => Composite Functional: B3LYP-D3ZERO <= 

    B3LYP-d3zero Hyb-GGA Exchange-Correlation Functional

    P. J. Stephens, F. J. Devlin, C. F. Chabalowski, and M. J. Frisch, J. Phys. Chem. 98, 11623 (1994)

    Deriv               =              1
    GGA                 =           TRUE
    Meta                =          FALSE

    Exchange Hybrid     =           TRUE
    MP2 Hybrid          =          FALSE

   => Exchange Functionals <=

    0.0800   Slater exchange
    0.7200         Becke 88

   => Exact (HF) Exchange <=

    0.2000               HF 

   => Correlation Functionals <=

    0.1900   Vosko, Wilk & Nusair (VWN5_RPA)
    0.8100   Lee, Yang & Parr

   => Molecular Quadrature <=

    Radial Scheme       =       TREUTLER
    Pruning Scheme      =           FLAT
    Nuclear Scheme      =       TREUTLER

    BS radius alpha     =              1
    Pruning alpha       =              1
    Radial Points       =             75
    Spherical Points    =            302
    Total Points        =         397057
    Total Blocks        =           3013
    Max Points          =            256
    Max Functions       =            149

   => -D3ZERO: Empirical Dispersion <=

    Grimme's -D3 (zero-damping) Dispersion Correction
    Grimme S.; Antony J.; Ehrlich S.; Krieg H. (2010), J. Chem. Phys., 132: 154104

        S6 =   1.000000E+00
        S8 =   1.703000E+00
       SR6 =   1.261000E+00
       SR8 =   1.000000E+00
    ALPHA6 =   1.400000E+01

   => Loading Basis Set <=

    Name: (6-31G* AUX)
    Role: JKFIT
    Keyword: DF_BASIS_SCF
    atoms 1-7         entry C          line   121 file /shared/joao/test_parameterize/miniconda3/share/psi4/basis/cc-pvdz-jkfit.gbs 
    atoms 8-12, 15-18 entry H          line    51 file /shared/joao/test_parameterize/miniconda3/share/psi4/basis/cc-pvdz-jkfit.gbs 
    atoms 13-14       entry N          line   171 file /shared/joao/test_parameterize/miniconda3/share/psi4/basis/cc-pvdz-jkfit.gbs 

  Reading orbitals from file 180, no projection.

  ==> Pre-Iterations <==

   -------------------------------------------------------
    Irrep   Nso     Nmo     Nalpha   Nbeta   Ndocc  Nsocc
   -------------------------------------------------------
     A        153     153       0       0       0       0
   -------------------------------------------------------
    Total     153     153      32      32      32       0
   -------------------------------------------------------

  ==> Integral Setup <==

  ==> DiskDFJK: Density-Fitted J/K Matrices <==

    J tasked:                  Yes
    K tasked:                  Yes
    wK tasked:                  No
    OpenMP threads:              4
    Integrals threads:           4
    Memory (MB):              2002
    Algorithm:                Core
    Integral Cache:           NONE
    Schwarz Cutoff:          1E-12
    Fitting Condition:       1E-12

   => Auxiliary Basis Set <=

  Basis Set: (6-31G* AUX)
    Blend: CC-PVDZ-JKFIT
    Number of shells: 297
    Number of basis function: 954
    Number of Cartesian functions: 954
    Spherical Harmonics?: false
    Max angular momentum: 3

  Minimum eigenvalue in the overlap matrix is 4.8949144240E-04.
  Using Symmetric Orthogonalization.

  SCF Guess: Orbitals guess was supplied from a previous computation.

  ==> Iterations <==

                           Total Energy        Delta E     RMS |[F,P]|

   @DF-RKS iter   0:  -381.45947290611770   -3.81459e+02   1.61853e-03 
   @DF-RKS iter   1:  -381.46941469553167   -9.94179e-03   1.54991e-04 
   @DF-RKS iter   2:  -381.46938534762904    2.93479e-05   2.13369e-04 DIIS
   @DF-RKS iter   3:  -381.46951835088231   -1.33003e-04   4.66453e-05 DIIS
   @DF-RKS iter   4:  -381.46952418158207   -5.83070e-06   1.85796e-05 DIIS
   @DF-RKS iter   5:  -381.46952511668752   -9.35105e-07   6.51316e-06 DIIS
   @DF-RKS iter   6:  -381.46952523545690   -1.18769e-07   2.01097e-06 DIIS
   @DF-RKS iter   7:  -381.46952524694012   -1.14832e-08   5.02290e-07 DIIS
   @DF-RKS iter   8:  -381.46952524761758   -6.77460e-10   1.68275e-07 DIIS
   @DF-RKS iter   9:  -381.46952524769745   -7.98650e-11   4.93931e-08 DIIS
   @DF-RKS iter  10:  -381.46952524770296   -5.51381e-12   2.61549e-08 DIIS
   @DF-RKS iter  11:  -381.46952524770489   -1.93268e-12   3.88949e-09 DIIS

  ==> Post-Iterations <==

    Orbital Energies [Eh]
    ---------------------

    Doubly Occupied:                                                      

       1A    -14.570242     2A    -14.569964     3A    -10.498102  
       4A    -10.371464     5A    -10.354476     6A    -10.354398  
       7A    -10.340932     8A    -10.339067     9A    -10.338850  
      10A     -1.184178    11A     -1.093188    12A     -1.012885  
      13A     -0.925485    14A     -0.900445    15A     -0.844611  
      16A     -0.785374    17A     -0.771504    18A     -0.744648  
      19A     -0.730825    20A     -0.688909    21A     -0.668368  
      22A     -0.622803    23A     -0.619166    24A     -0.583258  
      25A     -0.577304    26A     -0.571274    27A     -0.517848  
      28A     -0.503302    29A     -0.496539    30A     -0.474133  
      31A     -0.410098    32A     -0.404044  

    Virtual:                                                              

      33A     -0.212411    34A     -0.156017    35A     -0.137051  
      36A     -0.108343    37A     -0.066455    38A     -0.062515  
      39A     -0.038867    40A     -0.033665    41A      0.007305  
      42A      0.016399    43A      0.021562    44A      0.055015  
      45A      0.061670    46A      0.080764    47A      0.131126  
      48A      0.149086    49A      0.158404    50A      0.159309  
      51A      0.200447    52A      0.239638    53A      0.296628  
      54A      0.347416    55A      0.356544    56A      0.382491  
      57A      0.387032    58A      0.398268    59A      0.418835  
      60A      0.423968    61A      0.444753    62A      0.447392  
      63A      0.451591    64A      0.470841    65A      0.472447  
      66A      0.477119    67A      0.486062    68A      0.511077  
      69A      0.519498    70A      0.537723    71A      0.538983  
      72A      0.582533    73A      0.602151    74A      0.648584  
      75A      0.658224    76A      0.682375    77A      0.685146  
      78A      0.704370    79A      0.709141    80A      0.714338  
      81A      0.731546    82A      0.758517    83A      0.775887  
      84A      0.798678    85A      0.810642    86A      0.830844  
      87A      0.849873    88A      0.941258    89A      0.966194  
      90A      0.990831    91A      1.006799    92A      1.026069  
      93A      1.047767    94A      1.075974    95A      1.151208  
      96A      1.167768    97A      1.224538    98A      1.272892  
      99A      1.293427   100A      1.311323   101A      1.320788  
     102A      1.341707   103A      1.357909   104A      1.374839  
     105A      1.444896   106A      1.454247   107A      1.471918  
     108A      1.601338   109A      1.627963   110A      1.655696  
     111A      1.668864   112A      1.736751   113A      1.757895  
     114A      1.793939   115A      1.826706   116A      1.856051  
     117A      1.898313   118A      1.909653   119A      1.963656  
     120A      1.976879   121A      1.998283   122A      2.013692  
     123A      2.043657   124A      2.068657   125A      2.121573  
     126A      2.134251   127A      2.154300   128A      2.204210  
     129A      2.222360   130A      2.261446   131A      2.359696  
     132A      2.375030   133A      2.431298   134A      2.454000  
     135A      2.491832   136A      2.535756   137A      2.556724  
     138A      2.588894   139A      2.602965   140A      2.630864  
     141A      2.735396   142A      2.883688   143A      2.969198  
     144A      3.258708   145A      3.634599   146A      3.651934  
     147A      3.923344   148A      3.952479   149A      3.966872  
     150A      4.064644   151A      4.179114   152A      4.258553  
     153A      4.547487  

    Final Occupation by Irrep:
              A 
    DOCC [    32 ]

  Energy converged.

  @DF-RKS Final Energy:  -381.46952524770489

   => Energetics <=

    Nuclear Repulsion Energy =            416.8533931029418795
    One-Electron Energy =               -1328.9657179822113449
    Two-Electron Energy =                 575.0560492814278177
    DFT Exchange-Correlation Energy =     -44.4012596698633288
    Empirical Dispersion Energy =          -0.0119899800000000
    VV10 Nonlocal Energy =                  0.0000000000000000
    Total Energy =                       -381.4695252477049507



Properties will be evaluated at   0.000000,   0.000000,   0.000000 [a0]

Properties computed using the SCF density matrix

  Nuclear Dipole Moment: [e a0]
     X:     0.2848      Y:     0.4084      Z:    -0.1128

  Electronic Dipole Moment: [e a0]
     X:    -0.2915      Y:    -0.4109      Z:    -2.2030

  Dipole Moment: [e a0]
     X:    -0.0067      Y:    -0.0025      Z:    -2.3157     Total:     2.3158

  Dipole Moment: [D]
     X:    -0.0170      Y:    -0.0063      Z:    -5.8860     Total:     5.8861


*** tstop() called on arancio.prib.upf.edu at Sat Sep 29 20:49:35 2018
Module time:
	user time   =      75.09 seconds =       1.25 minutes
	system time =       0.36 seconds =       0.01 minutes
	total time  =         21 seconds =       0.35 minutes
Total time:
	user time   =     195.68 seconds =       3.26 minutes
	system time =       1.02 seconds =       0.02 minutes
	total time  =         54 seconds =       0.90 minutes

*** tstart() called on arancio.prib.upf.edu
*** at Sat Sep 29 20:49:35 2018


         ------------------------------------------------------------
                                   SCF GRAD                          
                          Rob Parrish, Justin Turney,                
                       Andy Simmonett, and Alex Sokolov              
         ------------------------------------------------------------

  ==> Geometry <==

    Molecular point group: c1
    Full point group: C1

    Geometry (in Angstrom), charge = 1, multiplicity = 1:

       Center              X                  Y                   Z               Mass       
    ------------   -----------------  -----------------  -----------------  -----------------
         C            0.031094535057     0.012518934654    -0.178796107950    12.000000000000
         C            0.073652625836     1.228347737310     0.525575602417    12.000000000000
         C            0.054864170760     1.212518932177     1.917484000767    12.000000000000
         C           -0.004483553048    -0.004896722889     2.603797849175    12.000000000000
         C           -0.061885218180    -1.213185789013     1.901455127392    12.000000000000
         C           -0.060818701861    -1.211142281573     0.509394805888    12.000000000000
         C           -0.005667213324     0.023357599862    -1.645908380428    12.000000000000
         H            0.094334949379     2.173622549684    -0.011221517209     1.007825032070
         H            0.080910158222     2.148616785141     2.466068548329     1.007825032070
         H           -0.014284786310    -0.011812250386     3.689478614450     1.007825032070
         H           -0.109993148404    -2.156054017733     2.437877580743     1.007825032070
         H           -0.095926897944    -2.150050984881    -0.039149422986     1.007825032070
         N            0.878396683115     0.753111782183    -2.317875478311    14.003074004780
         N           -0.875574082015    -0.756688508786    -2.283073835943    14.003074004780
         H           -0.873178622371    -0.882701848917    -3.289356524696     1.007825032070
         H           -1.608655298400    -1.225490175842    -1.759514389118     1.007825032070
         H            1.632168277784     1.211047136664    -1.818026730706     1.007825032070
         H            0.865046121704     0.848881122346    -3.327208741814     1.007825032070

  Nuclear repulsion =  416.853393102941880

  ==> Basis Set <==

  Basis Set: 6-31G*
    Blend: 6-31G*
    Number of shells: 72
    Number of basis function: 153
    Number of Cartesian functions: 153
    Spherical Harmonics?: false
    Max angular momentum: 2

  ==> DFJKGrad: Density-Fitted SCF Gradients <==

    Gradient:                    1
    J tasked:                  Yes
    K tasked:                  Yes
    wK tasked:                  No
    OpenMP threads:              4
    Integrals threads:           4
    Memory (MB):              2002
    Schwarz Cutoff:          0E+00
    Fitting Condition:       1E-12

   => Auxiliary Basis Set <=

  Basis Set: (6-31G* AUX)
    Blend: CC-PVDZ-JKFIT
    Number of shells: 297
    Number of basis function: 954
    Number of Cartesian functions: 954
    Spherical Harmonics?: false
    Max angular momentum: 3

  ==> DFT Potential <==

   => Composite Functional: B3LYP-D3ZERO <= 

    B3LYP-d3zero Hyb-GGA Exchange-Correlation Functional

    P. J. Stephens, F. J. Devlin, C. F. Chabalowski, and M. J. Frisch, J. Phys. Chem. 98, 11623 (1994)

    Deriv               =              1
    GGA                 =           TRUE
    Meta                =          FALSE

    Exchange Hybrid     =           TRUE
    MP2 Hybrid          =          FALSE

   => Exchange Functionals <=

    0.0800   Slater exchange
    0.7200         Becke 88

   => Exact (HF) Exchange <=

    0.2000               HF 

   => Correlation Functionals <=

    0.1900   Vosko, Wilk & Nusair (VWN5_RPA)
    0.8100   Lee, Yang & Parr

   => Molecular Quadrature <=

    Radial Scheme       =       TREUTLER
    Pruning Scheme      =           FLAT
    Nuclear Scheme      =       TREUTLER

    BS radius alpha     =              1
    Pruning alpha       =              1
    Radial Points       =             75
    Spherical Points    =            302
    Total Points        =         397057
    Total Blocks        =           3013
    Max Points          =            256
    Max Functions       =            149


  -Total Gradient:
     Atom            X                  Y                   Z
    ------   -----------------  -----------------  -----------------
       1        0.006821246248    -0.001208967904    -0.000837045214
       2       -0.003585810642    -0.000109198202     0.000165444225
       3       -0.000497817395     0.000135046082    -0.000433502163
       4        0.000260994644    -0.000356311364     0.000439558910
       5        0.000273401377     0.000277824571     0.000033416488
       6        0.000358086360     0.000213433548    -0.000097898981
       7       -0.005145415077     0.007930334372     0.001249085096
       8        0.000077737451     0.000442171084    -0.000336333221
       9        0.000198250753     0.000130386664    -0.000077088589
      10       -0.000071103657    -0.000029932950     0.000079622267
      11       -0.000223247872    -0.000431522579     0.000115117102
      12       -0.000759032963    -0.000901996625    -0.000659254547
      13        0.001891618245    -0.002711378943    -0.000076483147
      14        0.000896645269    -0.001046411100    -0.001073727681
      15        0.000032489241    -0.000296748707    -0.000300910909
      16       -0.002200134482    -0.002032145444     0.001393914621
      17        0.001583676298     0.000266178008     0.000594925632
      18        0.000087724812    -0.000281123895    -0.000198525029


*** tstop() called on arancio.prib.upf.edu at Sat Sep 29 20:49:41 2018
Module time:
	user time   =      24.79 seconds =       0.41 minutes
	system time =       0.19 seconds =       0.00 minutes
	total time  =          6 seconds =       0.10 minutes
Total time:
	user time   =     220.54 seconds =       3.68 minutes
	system time =       1.22 seconds =       0.02 minutes
	total time  =         60 seconds =       1.00 minutes

			-----------------------------------------
			 OPTKING 2.0: for geometry optimizations 
			  - R.A. King,  Bethel University        
			-----------------------------------------
	At level 1: Red. Int., RFO, no backsteps, dynamic trust

	Previous internal coordinate definitions found.
	---Fragment 1 Geometry and Gradient---
	 C           0.0587601555        0.0236573580       -0.3378756777
	 C           0.1391832918        2.3212408195        0.9931939507
	 C           0.1036782572        2.2913287128        3.6235196256
	 C          -0.0084726874       -0.0092534652        4.9204648403
	 C          -0.1169461140       -2.2925888895        3.5932294447
	 C          -0.1149306903       -2.2887272201        0.9626166766
	 C          -0.0107094811        0.0441394669       -3.1103160788
	 H           0.1782672191        4.1075513352       -0.0212055943
	 H           0.1528980404        4.0602972884        4.6601941813
	 H          -0.0269943340       -0.0223219182        6.9721041544
	 H          -0.2078569270       -4.0743516212        4.6069209731
	 H          -0.1812755659       -4.0630075332       -0.0739816877
	 N           1.6599291671        1.4231750158       -4.3801498641
	 N          -1.6545952241       -1.4299340495       -4.3143842911
	 H          -1.6500684614       -1.6680647514       -6.2159829851
	 H          -3.0399179562       -2.3158408109       -3.3250003223
	 H           3.0843510478        2.2885474223       -3.4355726233
	 H           1.6347002623        1.6041528406       -6.2875133090
	             0.0068212462       -0.0012089679       -0.0008370452
	            -0.0035858106       -0.0001091982        0.0001654442
	            -0.0004978174        0.0001350461       -0.0004335022
	             0.0002609946       -0.0003563114        0.0004395589
	             0.0002734014        0.0002778246        0.0000334165
	             0.0003580864        0.0002134335       -0.0000978990
	            -0.0051454151        0.0079303344        0.0012490851
	             0.0000777375        0.0004421711       -0.0003363332
	             0.0001982508        0.0001303867       -0.0000770886
	            -0.0000711037       -0.0000299330        0.0000796223
	            -0.0002232479       -0.0004315226        0.0001151171
	            -0.0007590330       -0.0009019966       -0.0006592545
	             0.0018916182       -0.0027113789       -0.0000764831
	             0.0008966453       -0.0010464111       -0.0010737277
	             0.0000324892       -0.0002967487       -0.0003009109
	            -0.0022001345       -0.0020321454        0.0013939146
	             0.0015836763        0.0002661780        0.0005949256
	             0.0000877248       -0.0002811239       -0.0001985250

	---Fragment 1 Intrafragment Coordinates---
	 - Coordinate -           - BOHR/RAD -       - ANG/DEG -
	 R(1,2)           =         2.656521	       1.405770
	 R(1,6)           =         2.658678	       1.406912
	 R(1,7)           =         2.773386	       1.467613
	 R(2,3)           =         2.630735	       1.392125
	 R(2,8)           =         2.054614	       1.087255
	 R(3,4)           =         2.643355	       1.398803
	 R(3,9)           =         2.050943	       1.085312
	 R(4,5)           =         2.643282	       1.398765
	 R(4,10)          =         2.051765	       1.085747
	 R(5,6)           =         2.630616	       1.392062
	 R(5,11)          =         2.051954	       1.085847
	 R(6,12)          =         2.055969	       1.087972
	 R(7,13)          =         2.511026	       1.328778
	 R(7,14)          =         2.514962	       1.330861
	 R(13,17)         =         1.915744	       1.013768
	 R(13,18)         =         1.916096	       1.013954
	 R(14,15)         =         1.916456	       1.014145
	 R(14,16)         =         1.919070	       1.015528
	 B(1,2,3)         =         2.083732	     119.389026
	 B(1,2,8)         =         2.100338	     120.340485
	 B(1,6,5)         =         2.083432	     119.371877
	 B(1,6,12)        =         2.101417	     120.402332
	 B(1,7,13)        =         2.086240	     119.532768
	 B(1,7,14)        =         2.083624	     119.382850
	 B(2,1,6)         =         2.104957	     120.605125
	 B(2,1,7)         =         2.088928	     119.686732
	 B(2,3,4)         =         2.095591	     120.068547
	 B(2,3,9)         =         2.088922	     119.686423
	 B(3,2,8)         =         2.098769	     120.250604
	 B(3,4,5)         =         2.102719	     120.476943
	 B(3,4,10)        =         2.090405	     119.771363
	 B(4,3,9)         =         2.098657	     120.244163
	 B(4,5,6)         =         2.095338	     120.054015
	 B(4,5,11)        =         2.098844	     120.254894
	 B(5,4,10)        =         2.090028	     119.749788
	 B(5,6,12)        =         2.097744	     120.191878
	 B(6,1,7)         =         2.087216	     119.588674
	 B(6,5,11)        =         2.089000	     119.690908
	 B(7,13,17)       =         2.086821	     119.566025
	 B(7,13,18)       =         2.148988	     123.127924
	 B(7,14,15)       =         2.148779	     123.115968
	 B(7,14,16)       =         2.089312	     119.708777
	 B(13,7,14)       =         2.111412	     120.975001
	 B(15,14,16)      =         2.044181	     117.122949
	 B(17,13,18)      =         2.046471	     117.254131
	 D(1,2,3,4)       =         0.001136	       0.065109
	 D(1,2,3,9)       =        -3.134558	    -179.596960
	 D(1,6,5,4)       =         0.026731	       1.531575
	 D(1,6,5,11)      =        -3.117573	    -178.623798
	 D(1,7,13,17)     =         0.119295	       6.835091
	 D(1,7,13,18)     =        -3.069327	    -175.859505
	 D(1,7,14,15)     =        -3.003517	    -172.088837
	 D(1,7,14,16)     =         0.185338	      10.619060
	 D(2,1,6,5)       =        -0.039452	      -2.260445
	 D(2,1,6,12)      =         3.139035	     179.853473
	*D(2,1,7,13)      =         0.872665	      50.000000
	 D(2,1,7,14)      =        -2.334632	    -133.764562
	 D(2,3,4,5)       =        -0.013693	      -0.784578
	 D(2,3,4,10)      =         3.136686	     179.718856
	 D(3,2,1,6)       =         0.025494	       1.460693
	 D(3,2,1,7)       =         3.097451	     177.470896
	 D(3,4,5,6)       =        -0.000450	      -0.025757
	 D(3,4,5,11)      =        -3.139315	    -179.869499
	 D(4,3,2,8)       =         3.114518	     178.448724
	 D(4,5,6,12)      =         3.131508	     179.422190
	 D(5,4,3,9)       =         3.121968	     178.875589
	 D(5,6,1,7)       =        -3.111478	    -178.274537
	 D(6,1,2,8)       =        -3.087862	    -176.921440
	 D(6,1,7,13)      =        -2.337850	    -133.948916
	 D(6,1,7,14)      =         0.738039	      42.286523
	 D(6,5,4,10)      =         3.132358	     179.470918
	 D(7,1,2,8)       =        -0.015904	      -0.911236
	 D(7,1,6,12)      =         0.067010	       3.839381
	 D(8,2,3,9)       =        -0.021177	      -1.213345
	 D(9,3,4,10)      =        -0.010838	      -0.620977
	 D(10,4,5,11)     =        -0.006507	      -0.372825
	 D(11,5,6,12)     =        -0.012796	      -0.733182
	 D(13,7,14,15)    =         0.071399	       4.090836
	 D(13,7,14,16)    =        -3.022932	    -173.201266
	 D(14,7,13,17)    =        -2.955522	    -169.338924
	 D(14,7,13,18)    =         0.139041	       7.966480

	Current energy   :      -381.4695252477

	Energy change for the previous step:
		Projected    :        -0.0017172313
		Actual       :        -0.0003100825
	Energy ratio indicates iffy step: Trust radius decreased to 1.250e-01.


	Performing BFGS update.
	Previous computed or guess Hessian on step 1.
	Steps to be used in Hessian update: 1
	Taking RFO optimization step.
	Going to follow RFO solution 1.
	Using RFO vector 1.
	Norm of target step-size    0.08633
	Projected energy change by RFO approximation:        -0.0002159480

	Back-transformation to cartesian coordinates...
	Could not converge backtransformation.
	Using first guess instead.

	Back-transformation to cartesian coordinates to adjust frozen coordinates...
	Successfully converged to displaced geometry.

	--- Internal Coordinate Step in ANG or DEG, aJ/ANG or AJ/DEG ---
	 ---------------------------------------------------------------------------
	   Coordinate                Previous        Force       Change         New 
	   ----------                --------       ------       ------       ------
	    1 R(1,2)          =      1.405770     0.002170     0.000128     1.405898
	    2 R(1,6)          =      1.406912    -0.002057    -0.000564     1.406348
	    3 R(1,7)          =      1.467613     0.012443     0.001441     1.469054
	    4 R(2,3)          =      1.392125     0.000264     0.000104     1.392229
	    5 R(2,8)          =      1.087255    -0.004544    -0.000702     1.086553
	    6 R(3,4)          =      1.398803    -0.006550    -0.000687     1.398116
	    7 R(3,9)          =      1.085312    -0.000651    -0.000055     1.085257
	    8 R(4,5)          =      1.398765    -0.002137    -0.000208     1.398556
	    9 R(4,10)         =      1.085747    -0.000672    -0.000078     1.085669
	   10 R(5,6)          =      1.392062    -0.001651    -0.000081     1.391981
	   11 R(5,11)         =      1.085847    -0.003640    -0.000545     1.085302
	   12 R(6,12)         =      1.087972    -0.009347    -0.001314     1.086658
	   13 R(7,13)         =      1.328778    -0.005863    -0.000628     1.328150
	   14 R(7,14)         =      1.330861    -0.023038    -0.001911     1.328949
	   15 R(13,17)        =      1.013768    -0.013120    -0.001559     1.012209
	   16 R(13,18)        =      1.013954    -0.001390     0.000072     1.014026
	   17 R(14,15)        =      1.014145    -0.002755    -0.000089     1.014055
	   18 R(14,16)        =      1.015528    -0.026734    -0.003062     1.012466
	   19 B(1,2,3)        =    119.389026     0.000029     0.052953   119.441980
	   20 B(1,2,8)        =    120.340485    -0.000009    -0.035836   120.304649
	   21 B(1,6,5)        =    119.371877     0.000015     0.012775   119.384652
	   22 B(1,6,12)       =    120.402332    -0.000001    -0.037419   120.364913
	   23 B(1,7,13)       =    119.532768    -0.000006    -0.023005   119.509763
	   24 B(1,7,14)       =    119.382850     0.000137     0.291351   119.674201
	   25 B(2,1,6)        =    120.605125    -0.000046    -0.050394   120.554731
	   26 B(2,1,7)        =    119.686732    -0.000051    -0.136553   119.550179
	   27 B(2,3,4)        =    120.068547    -0.000013    -0.033235   120.035312
	   28 B(2,3,9)        =    119.686423     0.000017     0.051680   119.738103
	   29 B(3,2,8)        =    120.250604    -0.000020    -0.018921   120.231683
	   30 B(3,4,5)        =    120.476943     0.000005     0.003100   120.480043
	   31 B(3,4,10)       =    119.771363    -0.000005    -0.011749   119.759614
	   32 B(4,3,9)        =    120.244163    -0.000004    -0.019867   120.224296
	   33 B(4,5,6)        =    120.054015     0.000009     0.020286   120.074301
	   34 B(4,5,11)       =    120.254894    -0.000014    -0.037421   120.217473
	   35 B(5,4,10)       =    119.749788     0.000000     0.010251   119.760038
	   36 B(5,6,12)       =    120.191878    -0.000014     0.002844   120.194722
	   37 B(6,1,7)        =    119.588674     0.000098     0.193907   119.782581
	   38 B(6,5,11)       =    119.690908     0.000004     0.017219   119.708127
	   39 B(7,13,17)      =    119.566025    -0.000017    -0.071881   119.494144
	   40 B(7,13,18)      =    123.127924     0.000017     0.090750   123.218674
	   41 B(7,14,15)      =    123.115968     0.000006     0.048774   123.164742
	   42 B(7,14,16)      =    119.708777    -0.000034    -0.166746   119.542031
	   43 B(13,7,14)      =    120.975001    -0.000126    -0.181097   120.793904
	   44 B(15,14,16)     =    117.122949     0.000026     0.077857   117.200807
	   45 B(17,13,18)     =    117.254131     0.000002     0.024133   117.278264
	   46 D(1,2,3,4)      =      0.065109     0.000000     0.026921     0.092031
	   47 D(1,2,3,9)      =   -179.596960     0.000002     0.238080  -179.358880
	   48 D(1,6,5,4)      =      1.531575     0.000000     0.050606     1.582180
	   49 D(1,6,5,11)     =   -178.623798     0.000003     0.320344  -178.303455
	   50 D(1,7,13,17)    =      6.835091     0.000000    -0.108786     6.726305
	   51 D(1,7,13,18)    =   -175.859505     0.000013     1.468946  -174.390560
	   52 D(1,7,14,15)    =   -172.088837    -0.000012    -1.399128  -173.487965
	   53 D(1,7,14,16)    =     10.619060    -0.000002    -0.510820    10.108240
	   54 D(2,1,6,5)      =     -2.260445     0.000002     0.181740    -2.078705
	   55 D(2,1,6,12)     =    179.853473     0.000008     0.776856   180.630329
	   56 *D(2,1,7,13)    =     50.000000    -0.000000     0.000000    50.000000
	   57 D(2,1,7,14)     =   -133.764562     0.000016     2.067186  -131.697376
	   58 D(2,3,4,5)      =     -0.784578     0.000002     0.203461    -0.581117
	   59 D(2,3,4,10)     =    179.718856    -0.000001    -0.098962   179.619895
	   60 D(3,2,1,6)      =      1.460693    -0.000002    -0.219783     1.240910
	   61 D(3,2,1,7)      =    177.470896     0.000001    -0.094465   177.376431
	   62 D(3,4,5,6)      =     -0.025757    -0.000002    -0.242116    -0.267872
	   63 D(3,4,5,11)     =   -179.869499    -0.000005    -0.513326  -180.382825
	   64 D(4,3,2,8)      =    178.448724    -0.000001    -0.045376   178.403349
	   65 D(4,5,6,12)     =    179.422190    -0.000006    -0.544346   178.877844
	   66 D(5,4,3,9)      =    178.875589    -0.000000    -0.008491   178.867098
	   67 D(5,6,1,7)      =   -178.274537     0.000000     0.069263  -178.205274
	   68 D(6,1,2,8)      =   -176.921440    -0.000001    -0.147713  -177.069153
	   69 D(6,1,7,13)     =   -133.948916     0.000002     0.114638  -133.834278
	   70 D(6,1,7,14)     =     42.286523     0.000018     2.181823    44.468346
	   71 D(6,5,4,10)     =    179.470918     0.000001     0.060197   179.531115
	   72 D(7,1,2,8)      =     -0.911236     0.000002    -0.022395    -0.933631
	   73 D(7,1,6,12)     =      3.839381     0.000006     0.664379     4.503760
	   74 D(8,2,3,9)      =     -1.213345     0.000001     0.165783    -1.047562
	   75 D(9,3,4,10)     =     -0.620977    -0.000003    -0.310913    -0.931890
	   76 D(10,4,5,11)    =     -0.372825    -0.000002    -0.211013    -0.583838
	   77 D(11,5,6,12)    =     -0.733182    -0.000003    -0.274609    -1.007791
	   78 D(13,7,14,15)   =      4.090836     0.000005     0.701572     4.792409
	   79 D(13,7,14,16)   =   -173.201266     0.000016     1.589880  -171.611386
	   80 D(14,7,13,17)   =   -169.338924    -0.000018    -2.217946  -171.556870
	   81 D(14,7,13,18)   =      7.966480    -0.000005    -0.640214     7.326265
	 ---------------------------------------------------------------------------
	Successfully symmetrized geometry.

  ==> Convergence Check <==

  Measures of convergence in internal coordinates in au.
  Criteria marked as inactive (o), active & met (*), and active & unmet ( ).
  ---------------------------------------------------------------------------------------------
   Step     Total Energy     Delta E     MAX Force     RMS Force      MAX Disp      RMS Disp   
  ---------------------------------------------------------------------------------------------
    Convergence Criteria    1.00e-06 *    3.00e-04 *             o    1.20e-03 *             o
  ---------------------------------------------------------------------------------------------
      2    -381.46952525   -3.10e-04      3.24e-03      7.16e-04 o    3.87e-02      9.60e-03 o  ~
  ---------------------------------------------------------------------------------------------

	Writing optimization data to binary file.
	Structure for next step:
	Cartesian Geometry (in Angstrom)
	    C     0.0368698102   0.0001813329  -0.1778737668
	    C     0.0722124627   1.2194874303   0.5211201995
	    C     0.0474681477   1.2112829226   1.9131054666
	    C    -0.0101091074  -0.0023458969   2.6048554630
	    C    -0.0554910562  -1.2143544703   1.9084820972
	    C    -0.0491969290  -1.2197437453   0.5165259364
	    C     0.0043812761   0.0076836263  -1.6465489273
	    H     0.0907978129   2.1614305906  -0.0201706260
	    H     0.0640190496   2.1500601597   2.4573542456
	    H    -0.0229627375  -0.0037675992   3.6904471781
	    H    -0.0938579679  -2.1542319330   2.4498132255
	    H    -0.0660171066  -2.1608762949  -0.0264401096
	    N     0.8871663422   0.7394945635  -2.3167164175
	    N    -0.8845592832  -0.7429121183  -2.2888079691
	    H    -0.8928059493  -0.8527648589  -3.2968619349
	    H    -1.6278285193  -1.1919517817  -1.7682290042
	    H     1.6348160617   1.2017040924  -1.8147718286
	    H     0.8650976933   0.8516239803  -3.3242822279
			--------------------------
			 OPTKING Finished Execution 
			--------------------------

    Structure for next step:
    Molecular point group: c1
    Full point group: C1

    Geometry (in Angstrom), charge = 1, multiplicity = 1:

    C            0.036869810242     0.000181332875    -0.177873766837
    C            0.072212462669     1.219487430282     0.521120199529
    C            0.047468147725     1.211282922584     1.913105466583
    C           -0.010109107388    -0.002345896931     2.604855462955
    C           -0.055491056161    -1.214354470315     1.908482097210
    C           -0.049196928958    -1.219743745305     0.516525936387
    C            0.004381276086     0.007683626329    -1.646548927289
    H            0.090797812869     2.161430590615    -0.020170625956
    H            0.064019049563     2.150060159691     2.457354245645
    H           -0.022962737510    -0.003767599214     3.690447178126
    H           -0.093857967915    -2.154231932961     2.449813225531
    H           -0.066017106625    -2.160876294901    -0.026440109613
    N            0.887166342195     0.739494563455    -2.316716417508
    N           -0.884559283186    -0.742912118312    -2.288807969063
    H           -0.892805949251    -0.852764858898    -3.296861934947
    H           -1.627828519348    -1.191951781685    -1.768229004190
    H            1.634816061719     1.201704092404    -1.814771828619
    H            0.865097693274     0.851623980287    -3.324282227945

gradient() will perform analytic gradient computation.

*** tstart() called on arancio.prib.upf.edu
*** at Sat Sep 29 20:49:42 2018

   => Loading Basis Set <=

    Name: 6-31G*
    Role: ORBITAL
    Keyword: BASIS
    atoms 1-7         entry C          line   111 file /shared/joao/test_parameterize/miniconda3/share/psi4/basis/6-31gs.gbs 
    atoms 8-12, 15-18 entry H          line    44 file /shared/joao/test_parameterize/miniconda3/share/psi4/basis/6-31gs.gbs 
    atoms 13-14       entry N          line   128 file /shared/joao/test_parameterize/miniconda3/share/psi4/basis/6-31gs.gbs 


         ---------------------------------------------------------
                                   SCF
            by Justin Turney, Rob Parrish, Andy Simmonett
                             and Daniel Smith
                              RKS Reference
                        4 Threads,   2861 MiB Core
         ---------------------------------------------------------

  ==> Geometry <==

    Molecular point group: c1
    Full point group: C1

    Geometry (in Angstrom), charge = 1, multiplicity = 1:

[...]
	             0.0000097214        0.0000007143        0.0000057391
	            -0.0043037352        0.0035845806        0.0000501132
	            -0.0000028183       -0.0000011357       -0.0000028379
	             0.0000034180       -0.0000011785       -0.0000010461
	             0.0000037265       -0.0000020128        0.0000005153
	            -0.0000015341        0.0000013319        0.0000030379
	             0.0000000407       -0.0000010915       -0.0000053768
	             0.0019864451       -0.0024537505       -0.0000488278
	             0.0000183847       -0.0000087914        0.0000052772
	            -0.0000042136        0.0000082384        0.0000010959
	            -0.0000066689       -0.0000010766        0.0000063320
	             0.0000028691       -0.0000006832       -0.0000007005
	             0.0000037141       -0.0000042702        0.0000045997

	---Fragment 1 Intrafragment Coordinates---
	 - Coordinate -           - BOHR/RAD -       - ANG/DEG -
	 R(1,2)           =         2.656919	       1.405981
	 R(1,6)           =         2.657096	       1.406075
	 R(1,7)           =         2.777588	       1.469836
	 R(2,3)           =         2.631004	       1.392267
	 R(2,8)           =         2.053159	       1.086485
	 R(3,4)           =         2.641855	       1.398009
	 R(3,9)           =         2.050711	       1.085190
	 R(4,5)           =         2.642703	       1.398458
	 R(4,10)          =         2.051591	       1.085655
	 R(5,6)           =         2.630397	       1.391946
	 R(5,11)          =         2.050743	       1.085206
	 R(6,12)          =         2.053069	       1.086437
	 R(7,13)          =         2.509926	       1.328195
	 R(7,14)          =         2.509770	       1.328113
	 R(13,17)         =         1.912431	       1.012015
	 R(13,18)         =         1.915735	       1.013763
	 R(14,15)         =         1.915750	       1.013771
	 R(14,16)         =         1.912386	       1.011991
	 B(1,2,3)         =         2.084498	     119.432946
	 B(1,2,8)         =         2.100806	     120.367302
	 B(1,6,5)         =         2.083742	     119.389598
	 B(1,6,12)        =         2.100674	     120.359753
	 B(1,7,13)        =         2.086056	     119.522223
	 B(1,7,14)        =         2.087730	     119.618111
	 B(2,1,6)         =         2.104293	     120.567097
	 B(2,1,7)         =         2.086028	     119.520618
	 B(2,3,4)         =         2.094868	     120.027112
	 B(2,3,9)         =         2.089948	     119.745227
	 B(3,2,8)         =         2.097416	     120.173107
	 B(3,4,5)         =         2.103054	     120.496115
	 B(3,4,10)        =         2.090197	     119.759465
	 B(4,3,9)         =         2.098324	     120.225094
	 B(4,5,6)         =         2.095543	     120.065783
	 B(4,5,11)        =         2.097926	     120.202279
	 B(5,4,10)        =         2.089929	     119.744124
	 B(5,6,12)        =         2.097803	     120.195277
	 B(6,1,7)         =         2.091335	     119.824642
	 B(6,5,11)        =         2.089712	     119.731687
	 B(7,13,17)       =         2.085700	     119.501824
	 B(7,13,18)       =         2.150829	     123.233407
	 B(7,14,15)       =         2.149394	     123.151228
	 B(7,14,16)       =         2.085837	     119.509644
	 B(13,7,14)       =         2.108812	     120.826019
	 B(15,14,16)      =         2.046677	     117.265951
	 B(17,13,18)      =         2.046656	     117.264732
	 D(1,2,3,4)       =         0.002586	       0.148171
	 D(1,2,3,9)       =        -3.128858	    -179.270370
	 D(1,6,5,4)       =         0.024397	       1.397836
	 D(1,6,5,11)      =        -3.114021	    -178.420233
	 D(1,7,13,17)     =         0.105411	       6.039606
	 D(1,7,13,18)     =        -3.037435	    -174.032198
	 D(1,7,14,15)     =        -3.028289	    -173.508203
	 D(1,7,14,16)     =         0.169124	       9.690118
	 D(2,1,6,5)       =        -0.030870	      -1.768719
	 D(2,1,6,12)      =        -3.125326	    -179.067990
	*D(2,1,7,13)      =         0.872665	      50.000000
	 D(2,1,7,14)      =        -2.305440	    -132.092002
	 D(2,3,4,5)       =        -0.008954	      -0.513031
	 D(2,3,4,10)      =         3.136102	     179.685414
	 D(3,2,1,6)       =         0.017365	       0.994915
	 D(3,2,1,7)       =         3.099444	     177.585055
	 D(3,4,5,6)       =        -0.004726	      -0.270805
	 D(3,4,5,11)      =         3.133676	     179.546401
	 D(4,3,2,8)       =         3.111533	     178.277707
	 D(4,5,6,12)      =         3.118932	     178.701633
	 D(5,4,3,9)       =         3.122441	     178.902692
	 D(5,6,1,7)       =        -3.112769	    -178.348523
	 D(6,1,2,8)       =        -3.091518	    -177.130917
	 D(6,1,7,13)      =        -2.327994	    -133.384213
	 D(6,1,7,14)      =         0.777087	      44.523785
	 D(6,5,4,10)      =         3.133403	     179.530780
	 D(7,1,2,8)       =        -0.009438	      -0.540776
	 D(7,1,6,12)      =         0.075960	       4.352206
	 D(8,2,3,9)       =        -0.019911	      -1.140833
	 D(9,3,4,10)      =        -0.015688	      -0.898863
	 D(10,4,5,11)     =        -0.011380	      -0.652014
	 D(11,5,6,12)     =        -0.019485	      -1.116437
	 D(13,7,14,15)    =         0.076304	       4.371920
	 D(13,7,14,16)    =        -3.009467	    -172.429759
	 D(14,7,13,17)    =        -2.999218	    -171.842529
	 D(14,7,13,18)    =         0.141122	       8.085667

	Current energy   :      -381.4696618737

	Energy change for the previous step:
		Projected    :         0.0000001470
		Actual       :        -0.0000001461

	Performing BFGS update.
	Previous computed or guess Hessian on step 1.
	Steps to be used in Hessian update: 5 4
	Taking RFO optimization step.
	Going to follow RFO solution 1.
	Rejecting RFO root 1 because normalization gives large value.
	Rejecting RFO root 2 because normalization gives large value.
	Using RFO vector 3.
	Norm of target step-size    0.00104
	Projected energy change by RFO approximation:        -0.0000000221

	Back-transformation to cartesian coordinates...
	Successfully converged to displaced geometry.

	Back-transformation to cartesian coordinates to adjust frozen coordinates...
	Successfully converged to displaced geometry.

	--- Internal Coordinate Step in ANG or DEG, aJ/ANG or AJ/DEG ---
	 ---------------------------------------------------------------------------
	   Coordinate                Previous        Force       Change         New 
	   ----------                --------       ------       ------       ------
	    1 R(1,2)          =      1.405981    -0.000017    -0.000005     1.405976
	    2 R(1,6)          =      1.406075    -0.000001    -0.000000     1.406075
	    3 R(1,7)          =      1.469836    -0.000175    -0.000032     1.469805
	    4 R(2,3)          =      1.392267    -0.000039    -0.000004     1.392263
	    5 R(2,8)          =      1.086485     0.000001     0.000003     1.086488
	    6 R(3,4)          =      1.398009    -0.000006     0.000001     1.398010
	    7 R(3,9)          =      1.085190     0.000007     0.000002     1.085191
	    8 R(4,5)          =      1.398458     0.000016     0.000000     1.398458
	    9 R(4,10)         =      1.085655    -0.000014    -0.000002     1.085654
	   10 R(5,6)          =      1.391946    -0.000000     0.000003     1.391949
	   11 R(5,11)         =      1.085206    -0.000008     0.000001     1.085207
	   12 R(6,12)         =      1.086437    -0.000024     0.000003     1.086440
	   13 R(7,13)         =      1.328195    -0.000055    -0.000007     1.328188
	   14 R(7,14)         =      1.328113     0.000115     0.000020     1.328132
	   15 R(13,17)        =      1.012015    -0.000024     0.000002     1.012017
	   16 R(13,18)        =      1.013763     0.000054     0.000010     1.013773
	   17 R(14,15)        =      1.013771     0.000025     0.000006     1.013778
	   18 R(14,16)        =      1.011991    -0.000070     0.000002     1.011993
	   19 B(1,2,3)        =    119.432946     0.000000     0.002063   119.435009
	   20 B(1,2,8)        =    120.367302    -0.000000     0.000537   120.367839
	   21 B(1,6,5)        =    119.389598     0.000000     0.001627   119.391225
	   22 B(1,6,12)       =    120.359753     0.000000     0.001286   120.361039
	   23 B(1,7,13)       =    119.522223     0.000001     0.004436   119.526659
	   24 B(1,7,14)       =    119.618111     0.000000     0.002156   119.620267
	   25 B(2,1,6)        =    120.567097    -0.000000    -0.003002   120.564095
	   26 B(2,1,7)        =    119.520618     0.000001     0.004678   119.525297
	   27 B(2,3,4)        =    120.027112     0.000000     0.000476   120.027589
	   28 B(2,3,9)        =    119.745227    -0.000000    -0.000746   119.744481
	   29 B(3,2,8)        =    120.173107    -0.000000    -0.002361   120.170746
	   30 B(3,4,5)        =    120.496115    -0.000000    -0.001792   120.494324
	   31 B(3,4,10)       =    119.759465    -0.000000     0.000146   119.759611
	   32 B(4,3,9)        =    120.225094     0.000000     0.000327   120.225420
	   33 B(4,5,6)        =    120.065783     0.000000     0.000520   120.066303
	   34 B(4,5,11)       =    120.202279     0.000000     0.001150   120.203429
	   35 B(5,4,10)       =    119.744124     0.000000     0.001619   119.745743
	   36 B(5,6,12)       =    120.195277    -0.000000    -0.003125   120.192151
	   37 B(6,1,7)        =    119.824642    -0.000001    -0.001653   119.822989
	   38 B(6,5,11)       =    119.731687    -0.000000    -0.001725   119.729962
	   39 B(7,13,17)      =    119.501824     0.000000     0.000809   119.502633
	   40 B(7,13,18)      =    123.233407    -0.000000    -0.001494   123.231914
	   41 B(7,14,15)      =    123.151228     0.000000     0.000637   123.151865
	   42 B(7,14,16)      =    119.509644     0.000000     0.002239   119.511883
	   43 B(13,7,14)      =    120.826019    -0.000002    -0.006501   120.819518
	   44 B(15,14,16)     =    117.265951    -0.000000    -0.001308   117.264644
	   45 B(17,13,18)     =    117.264732     0.000000     0.000707   117.265438
	   46 D(1,2,3,4)      =      0.148171    -0.000000    -0.002180     0.145990
	   47 D(1,2,3,9)      =   -179.270370     0.000000    -0.008639  -179.279008
	   48 D(1,6,5,4)      =      1.397836     0.000000    -0.005825     1.392011
	   49 D(1,6,5,11)     =   -178.420233     0.000000     0.012805  -178.407428
	   50 D(1,7,13,17)    =      6.039606    -0.000000    -0.008730     6.030877
	   51 D(1,7,13,18)    =   -174.032198     0.000000     0.017831  -174.014367
	   52 D(1,7,14,15)    =   -173.508203     0.000000     0.021269  -173.486934
	   53 D(1,7,14,16)    =      9.690118    -0.000000    -0.013144     9.676974
	   54 D(2,1,6,5)      =     -1.768719    -0.000000    -0.005515    -1.774234
	   55 D(2,1,6,12)     =   -179.067990    -0.000000    -0.000257  -179.068247
	   56 *D(2,1,7,13)    =     50.000000     0.000000    -0.000000    50.000000
	   57 D(2,1,7,14)     =   -132.092002    -0.000000     0.002694  -132.089308
	   58 D(2,3,4,5)      =     -0.513031     0.000000    -0.009204    -0.522235
	   59 D(2,3,4,10)     =    179.685414     0.000000    -0.000566   179.684848
	   60 D(3,2,1,6)      =      0.994915     0.000000     0.009535     1.004449
	   61 D(3,2,1,7)      =    177.585055     0.000000     0.009934   177.594989
	   62 D(3,4,5,6)      =     -0.270805     0.000000     0.013286    -0.257519
	   63 D(3,4,5,11)     =    179.546401    -0.000000    -0.005439   179.540961
	   64 D(4,3,2,8)      =    178.277707     0.000000     0.006229   178.283937
	   65 D(4,5,6,12)     =    178.701633    -0.000000    -0.010953   178.690680
	   66 D(5,4,3,9)      =    178.902692    -0.000000    -0.002721   178.899971
	   67 D(5,6,1,7)      =   -178.348523    -0.000000    -0.006130  -178.354653
	   68 D(6,1,2,8)      =   -177.130917     0.000000     0.001163  -177.129754
	   69 D(6,1,7,13)     =   -133.384213     0.000000     0.000347  -133.383866
	   70 D(6,1,7,14)     =     44.523785    -0.000000     0.003041    44.526827
	   71 D(6,5,4,10)     =    179.530780    -0.000000     0.004646   179.535426
	   72 D(7,1,2,8)      =     -0.540776     0.000000     0.001562    -0.539214
	   73 D(7,1,6,12)     =      4.352206    -0.000000    -0.000872     4.351334
	   74 D(8,2,3,9)      =     -1.140833     0.000000    -0.000229    -1.141062
	   75 D(9,3,4,10)     =     -0.898863    -0.000000     0.005917    -0.892946
	   76 D(10,4,5,11)    =     -0.652014    -0.000000    -0.014079    -0.666093
	   77 D(11,5,6,12)    =     -1.116437    -0.000000     0.007678    -1.108759
	   78 D(13,7,14,15)   =      4.371920     0.000000     0.024235     4.396155
	   79 D(13,7,14,16)   =   -172.429759    -0.000000    -0.010177  -172.439937
	   80 D(14,7,13,17)   =   -171.842529    -0.000000    -0.011646  -171.854175
	   81 D(14,7,13,18)   =      8.085667     0.000000     0.014915     8.100582
	 ---------------------------------------------------------------------------
	Successfully symmetrized geometry.

  ==> Convergence Check <==

  Measures of convergence in internal coordinates in au.
  Criteria marked as inactive (o), active & met (*), and active & unmet ( ).
  ---------------------------------------------------------------------------------------------
   Step     Total Energy     Delta E     MAX Force     RMS Force      MAX Disp      RMS Disp   
  ---------------------------------------------------------------------------------------------
    Convergence Criteria    1.00e-06 *    3.00e-04 *             o    1.20e-03 *             o
  ---------------------------------------------------------------------------------------------
      6    -381.46966187   -1.46e-07 *    2.13e-05 *    5.43e-06 o    4.23e-04 *    1.16e-04 o  ~
  ---------------------------------------------------------------------------------------------


  **** Optimization is complete! (in 6 steps) ****

  ==> Optimization Summary <==

  Measures of convergence in internal coordinates in au.
  --------------------------------------------------------------------------------------------------------------- ~
   Step         Total Energy             Delta E       MAX Force       RMS Force        MAX Disp        RMS Disp  ~
  --------------------------------------------------------------------------------------------------------------- ~
      1    -381.469215165218   -381.469215165218      0.00365096      0.00088018      0.13462559      0.02672230  ~
      2    -381.469525247705     -0.000310082487      0.00324488      0.00071594      0.03871046      0.00960238  ~
      3    -381.469652102494     -0.000126854789      0.00082205      0.00014661      0.01291063      0.00312859  ~
      4    -381.469660455384     -0.000008352890      0.00022062      0.00005091      0.00461998      0.00110715  ~
      5    -381.469661727512     -0.000001272128      0.00008514      0.00001962      0.00184616      0.00036990  ~
      6    -381.469661873651     -0.000000146139      0.00002128      0.00000543      0.00042298      0.00011572  ~
  --------------------------------------------------------------------------------------------------------------- ~

	Writing optimization data to binary file.
	Final energy is   -381.4696618736511
	Final (previous) structure:
	Cartesian Geometry (in Angstrom)
	    C     0.0323183515   0.0005993056  -0.1779026100
	    C     0.0694236009   1.2200886640   0.5208468110
	    C     0.0434337441   1.2120763699   1.9128484242
	    C    -0.0159238454  -0.0014191276   2.6044663380
	    C    -0.0604259458  -1.2135396352   1.9084288807
	    C    -0.0515236700  -1.2191505823   0.5165227449
	    C     0.0057843170   0.0084542337  -1.6474784325
	    H     0.0873250973   2.1624611899  -0.0195816836
	    H     0.0598685642   2.1507923197   2.4570718228
	    H    -0.0308259160  -0.0028047860   3.6900185360
	    H    -0.0990166524  -2.1530546588   2.4501809156
	    H    -0.0647639781  -2.1602221882  -0.0262061254
	    N     0.8939377767   0.7369750571  -2.3142196384
	    N    -0.8780914480  -0.7446671089  -2.2920369038
	    H    -0.8826188105  -0.8544708875  -3.2998340407
	    H    -1.6173820704  -1.2005665746  -1.7726804511
	    H     1.6351647719   1.2048490775  -1.8084025728
	    H     0.8733161129   0.8535993318  -3.3210410146
	Saving final (previous) structure.
	Removing binary optimization data file.
			--------------------------
			 OPTKING Finished Execution 
			--------------------------

    Final optimized geometry and variables:
    Molecular point group: c1
    Full point group: C1

    Geometry (in Angstrom), charge = 1, multiplicity = 1:

    C            0.032318351467     0.000599305592    -0.177902610020
    C            0.069423600893     1.220088663970     0.520846811032
    C            0.043433744134     1.212076369933     1.912848424227
    C           -0.015923845373    -0.001419127558     2.604466337954
    C           -0.060425945786    -1.213539635187     1.908428880659
    C           -0.051523669985    -1.219150582259     0.516522744900
    C            0.005784316955     0.008454233684    -1.647478432546
    H            0.087325097338     2.162461189892    -0.019581683641
    H            0.059868564233     2.150792319700     2.457071822754
    H           -0.030825915966    -0.002804786021     3.690018536012
    H           -0.099016652395    -2.153054658827     2.450180915603
    H           -0.064763978129    -2.160222188156    -0.026206125436
    N            0.893937776717     0.736975057090    -2.314219638432
    N           -0.878091448040    -0.744667108944    -2.292036903822
    H           -0.882618810480    -0.854470887539    -3.299834040710
    H           -1.617382070398    -1.200566574575    -1.772680451129
    H            1.635164771881     1.204849077452    -1.808402572793
    H            0.873316112933     0.853599331752    -3.321041014612

	Removing binary optimization data file.
	Cleaning optimization helper files.


Properties will be evaluated at   0.000000,   0.000000,   0.000000 [a0]
OEProp: No title given, name of density matrix used for the following properties is 'SCF density'
  Nuclear Dipole Moment: [e a0]
     X:     0.3978      Y:    -0.0200      Z:    -0.1283

  Electronic Dipole Moment: [e a0]
     X:    -0.4169      Y:     0.0378      Z:    -2.1985

  Dipole Moment: [e a0]
     X:    -0.0191      Y:     0.0177      Z:    -2.3268     Total:     2.3269

  Dipole Moment: [D]
     X:    -0.0486      Y:     0.0450      Z:    -5.9140     Total:     5.9144

  Quadrupole Moment: [D A]
    XX:   -46.9927     YY:   -40.2490     ZZ:   -13.4757
    XY:     6.5764     XZ:    -0.1156     YZ:    -0.1457

  Traceless Quadrupole Moment: [D A]
    XX:   -13.4202     YY:    -6.6765     ZZ:    20.0967
    XY:     6.5764     XZ:    -0.1156     YZ:    -0.1457

  Mulliken Charges: (a.u.)
   Center  Symbol    Alpha    Beta     Spin     Total
       1     C     2.96855  2.96855  0.00000  0.06290
       2     C     3.07824  3.07824  0.00000 -0.15647
       3     C     3.06205  3.06205  0.00000 -0.12409
       4     C     3.05202  3.05202  0.00000 -0.10403
       5     C     3.06302  3.06302  0.00000 -0.12605
       6     C     3.07942  3.07942  0.00000 -0.15883
       7     C     2.73029  2.73029  0.00000  0.53942
       8     H     0.41366  0.41366  0.00000  0.17268
       9     H     0.40588  0.40588  0.00000  0.18824
      10     H     0.40462  0.40462  0.00000  0.19077
      11     H     0.40587  0.40587  0.00000  0.18826
      12     H     0.41345  0.41345  0.00000  0.17311
      13     N     3.85677  3.85677  0.00000 -0.71354
      14     N     3.85817  3.85817  0.00000 -0.71635
      15     H     0.30550  0.30550  0.00000  0.38901
      16     H     0.29862  0.29862  0.00000  0.40276
      17     H     0.29825  0.29825  0.00000  0.40350
      18     H     0.30563  0.30563  0.00000  0.38873

   Total alpha = 32.00000, Total beta = 32.00000, Total charge =  1.00000


    Psi4 stopped on: Saturday, 29 September 2018 08:51PM
    Psi4 wall time for execution: 0:02:35.07

*** Psi4 exiting successfully. Buy a developer a beer!
