
    -----------------------------------------------------------------------
          Psi4: An Open-Source Ab Initio Electronic Structure Package
                               Psi4 1.2.1 release

                         Git: Rev {HEAD} 406f4de 


    R. M. Parrish, L. A. Burns, D. G. A. Smith, A. C. Simmonett,
    A. E. DePrince III, E. G. Hohenstein, U. Bozkaya, A. Yu. Sokolov,
    R. Di Remigio, R. M. Richard, J. F. Gonthier, A. M. James,
    H. R. McAlexander, A. Kumar, M. Saitow, X. Wang, B. P. Pritchard,
    P. Verma, H. F. Schaefer III, K. Patkowski, R. A. King, E. F. Valeev,
    F. A. Evangelista, J. M. Turney, T. D. Crawford, and C. D. Sherrill,
    J. Chem. Theory Comput. 13(7) pp 3185--3197 (2017).
    (doi: 10.1021/acs.jctc.7b00174)


                         Additional Contributions by
    P. Kraus, H. Kruse, M. H. Lechner, M. C. Schieber, and R. A. Shaw

    -----------------------------------------------------------------------


    Psi4 started on: Saturday, 29 September 2018 04:38PM

    Process ID: 30714
    Host:       loro.prib.upf.edu
    PSIDATADIR: /shared/joao/test_parameterize/miniconda3/share/psi4
    Memory:     500.0 MiB
    Threads:    1
    
  ==> Input File <==

--------------------------------------------------------------------------
set_num_threads(1)
set_memory('5348 MB')

set { scf_mem_safety_factor 0.7 }

set { reference rks }
set { basis cc-pVDZ }

molecule MOL {
    0 1
    noreorient
    nocom
    symmetry c1
    O    1.014300  -0.002300   0.060500
    O    2.462400  -0.107500  -0.002400
    H    0.821200  -0.823600  -0.430600
    H    2.601688   0.635706  -0.619716
}

set optking { frozen_dihedral = (" 3 1 2 4 ") }

set optking { dynamic_level = 1 
 geom_maxiter = 250
 print_trajectory_xyz_file = True }

energy, wfn = optimize('B3LYP-D3', return_wfn=True)

import os
os.chdir(os.environ['HTMD_PSI4_WORKDIR'])

oeprop(wfn, 'DIPOLE', 'QUADRUPOLE', 'MULLIKEN_CHARGES')

with open('psi4out.xyz', 'w') as f:
    f.write('4 ' )
    f.write('%.12f\n' % energy)
    f.write(MOL.save_string_xyz())
--------------------------------------------------------------------------
  Threads set to 1 by Python driver.

  Memory set to   4.981 GiB by Python driver.
gradient() will perform analytic gradient computation.

*** tstart() called on loro.prib.upf.edu
*** at Sat Sep 29 16:38:04 2018

   => Loading Basis Set <=

    Name: CC-PVDZ
    Role: ORBITAL
    Keyword: BASIS
    atoms 1-2 entry O          line   198 file /shared/joao/test_parameterize/miniconda3/share/psi4/basis/cc-pvdz.gbs 
    atoms 3-4 entry H          line    22 file /shared/joao/test_parameterize/miniconda3/share/psi4/basis/cc-pvdz.gbs 


         ---------------------------------------------------------
                                   SCF
            by Justin Turney, Rob Parrish, Andy Simmonett
                             and Daniel Smith
                              RKS Reference
                        1 Threads,   5100 MiB Core
         ---------------------------------------------------------

  ==> Geometry <==

    Molecular point group: c1
    Full point group: C1

    Geometry (in Angstrom), charge = 0, multiplicity = 1:

       Center              X                  Y                   Z               Mass       
    ------------   -----------------  -----------------  -----------------  -----------------
         O            1.014300000000    -0.002300000000     0.060500000000    15.994914619560
         O            2.462400000000    -0.107500000000    -0.002400000000    15.994914619560
         H            0.821200000000    -0.823600000000    -0.430600000000     1.007825032070
         H            2.601688000000     0.635706000000    -0.619716000000     1.007825032070

  Running in c1 symmetry.

  Rotational constants: A =      9.32234  B =      0.13857  C =      0.13791 [cm^-1]
  Rotational constants: A = 279476.77874  B =   4154.18080  C =   4134.50032 [MHz]
  Nuclear repulsion =   36.805489430584430

  Charge       = 0
  Multiplicity = 1
  Electrons    = 18
  Nalpha       = 9
  Nbeta        = 9

  ==> Algorithm <==

  SCF Algorithm Type is DF.
  DIIS enabled.
  MOM disabled.
  Fractional occupation disabled.
  Guess Type is SAD.
  Energy threshold   = 1.00e-08
  Density threshold  = 1.00e-08
  Integral threshold = 0.00e+00

  ==> Primary Basis <==

  Basis Set: CC-PVDZ
    Blend: CC-PVDZ
    Number of shells: 18
    Number of basis function: 38
    Number of Cartesian functions: 40
    Spherical Harmonics?: true
    Max angular momentum: 2

  ==> DFT Potential <==

   => Composite Functional: B3LYP-D3ZERO <= 

    B3LYP-d3zero Hyb-GGA Exchange-Correlation Functional

    P. J. Stephens, F. J. Devlin, C. F. Chabalowski, and M. J. Frisch, J. Phys. Chem. 98, 11623 (1994)

    Deriv               =              1
    GGA                 =           TRUE
    Meta                =          FALSE

    Exchange Hybrid     =           TRUE
    MP2 Hybrid          =          FALSE

   => Exchange Functionals <=

    0.0800   Slater exchange
    0.7200         Becke 88

   => Exact (HF) Exchange <=

    0.2000               HF 

   => Correlation Functionals <=

    0.1900   Vosko, Wilk & Nusair (VWN5_RPA)
    0.8100   Lee, Yang & Parr

   => Molecular Quadrature <=

    Radial Scheme       =       TREUTLER
    Pruning Scheme      =           FLAT
    Nuclear Scheme      =       TREUTLER

    BS radius alpha     =              1
    Pruning alpha       =              1
    Radial Points       =             75
    Spherical Points    =            302
    Total Points        =          88328
    Total Blocks        =            710
    Max Points          =            255
    Max Functions       =             38

   => -D3ZERO: Empirical Dispersion <=

    Grimme's -D3 (zero-damping) Dispersion Correction
    Grimme S.; Antony J.; Ehrlich S.; Krieg H. (2010), J. Chem. Phys., 132: 154104

        S6 =   1.000000E+00
        S8 =   1.703000E+00
       SR6 =   1.261000E+00
       SR8 =   1.000000E+00
    ALPHA6 =   1.400000E+01

   => Loading Basis Set <=

    Name: (CC-PVDZ AUX)
    Role: JKFIT
    Keyword: DF_BASIS_SCF
    atoms 1-2 entry O          line   221 file /shared/joao/test_parameterize/miniconda3/share/psi4/basis/cc-pvdz-jkfit.gbs 
    atoms 3-4 entry H          line    51 file /shared/joao/test_parameterize/miniconda3/share/psi4/basis/cc-pvdz-jkfit.gbs 

  ==> Pre-Iterations <==

   -------------------------------------------------------
    Irrep   Nso     Nmo     Nalpha   Nbeta   Ndocc  Nsocc
   -------------------------------------------------------
     A         38      38       0       0       0       0
   -------------------------------------------------------
    Total      38      38       9       9       9       0
   -------------------------------------------------------

  ==> Integral Setup <==

  DFHelper Memory: AOs need 0.003 [GiB]; user supplied 3.486 [GiB]. Using in-core AOs.

  ==> MemDFJK: Density-Fitted J/K Matrices <==

    J tasked:                   Yes
    K tasked:                   Yes
    wK tasked:                   No
    OpenMP threads:               1
    Memory (MB):               3570
    Algorithm:                 Core
    Schwarz Cutoff:           1E-12
    Mask sparsity (%):       0.0000
    Fitting Condition:        1E-12

   => Auxiliary Basis Set <=

  Basis Set: (CC-PVDZ AUX)
    Blend: CC-PVDZ-JKFIT
    Number of shells: 66
    Number of basis function: 186
    Number of Cartesian functions: 212
    Spherical Harmonics?: true
    Max angular momentum: 3

  Minimum eigenvalue in the overlap matrix is 2.5505134751E-02.
  Using Symmetric Orthogonalization.

  SCF Guess: Superposition of Atomic Densities via on-the-fly atomic UHF.

  ==> Iterations <==

                           Total Energy        Delta E     RMS |[F,P]|

   @DF-RKS iter   0:  -151.60440547126973   -1.51604e+02   4.86284e-02 
   @DF-RKS iter   1:  -151.51809458601190    8.63109e-02   7.46860e-03 
   @DF-RKS iter   2:  -151.51948657353299   -1.39199e-03   7.56158e-03 DIIS
   @DF-RKS iter   3:  -151.54967392148410   -3.01873e-02   8.91394e-04 DIIS
   @DF-RKS iter   4:  -151.55003810501773   -3.64184e-04   2.73489e-04 DIIS
   @DF-RKS iter   5:  -151.55006138913703   -2.32841e-05   1.79590e-04 DIIS
   @DF-RKS iter   6:  -151.55007852813833   -1.71390e-05   8.30604e-06 DIIS
   @DF-RKS iter   7:  -151.55007858644458   -5.83063e-08   1.49604e-06 DIIS
   @DF-RKS iter   8:  -151.55007858854108   -2.09650e-09   1.84605e-07 DIIS
   @DF-RKS iter   9:  -151.55007858857741   -3.63229e-11   4.21399e-08 DIIS
   @DF-RKS iter  10:  -151.55007858857869   -1.27898e-12   3.72020e-09 DIIS

  ==> Post-Iterations <==

    Orbital Energies [Eh]
    ---------------------

    Doubly Occupied:                                                      

       1A    -19.188324     2A    -19.188283     3A     -1.112843  
       4A     -0.886492     5A     -0.515394     6A     -0.485561  
       7A     -0.414651     8A     -0.308200     9A     -0.273106  

    Virtual:                                                              

      10A      0.024576    11A      0.048666    12A      0.104043  
      13A      0.573051    14A      0.582346    15A      0.847747  
      16A      0.871753    17A      0.900377    18A      0.938317  
      19A      1.013905    20A      1.058471    21A      1.212071  
      22A      1.259468    23A      1.394021    24A      1.399926  
      25A      1.683271    26A      1.709817    27A      2.069029  
      28A      2.080798    29A      2.404806    30A      2.451585  
      31A      2.546653    32A      2.875823    33A      2.916061  
      34A      3.050454    35A      3.129856    36A      3.483895  
      37A      3.536363    38A      3.825203  

    Final Occupation by Irrep:
              A 
    DOCC [     9 ]

  Energy converged.

  @DF-RKS Final Energy:  -151.55007858857869

   => Energetics <=

    Nuclear Repulsion Energy =             36.8054894305844300
    One-Electron Energy =                -281.5811996775922808
    Two-Electron Energy =                 107.6879981004679792
    DFT Exchange-Correlation Energy =     -14.4620579720388136
    Empirical Dispersion Energy =          -0.0003084700000000
    VV10 Nonlocal Energy =                  0.0000000000000000
    Total Energy =                       -151.5500785885786854



Properties will be evaluated at   0.000000,   0.000000,   0.000000 [a0]

Properties computed using the SCF density matrix

  Nuclear Dipole Moment: [e a0]
     X:    59.0284      Y:    -2.0150      Z:    -1.1065

  Electronic Dipole Moment: [e a0]
     X:   -59.0646      Y:     1.9625      Z:     0.3609

  Dipole Moment: [e a0]
     X:    -0.0362      Y:    -0.0525      Z:    -0.7456     Total:     0.7483

  Dipole Moment: [D]
     X:    -0.0920      Y:    -0.1334      Z:    -1.8951     Total:     1.9020


*** tstop() called on loro.prib.upf.edu at Sat Sep 29 16:38:08 2018
Module time:
	user time   =       3.21 seconds =       0.05 minutes
	system time =       0.10 seconds =       0.00 minutes
	total time  =          4 seconds =       0.07 minutes
Total time:
	user time   =       3.21 seconds =       0.05 minutes
	system time =       0.10 seconds =       0.00 minutes
	total time  =          4 seconds =       0.07 minutes

*** tstart() called on loro.prib.upf.edu
*** at Sat Sep 29 16:38:08 2018


         ------------------------------------------------------------
                                   SCF GRAD                          
                          Rob Parrish, Justin Turney,                
                       Andy Simmonett, and Alex Sokolov              
         ------------------------------------------------------------

  ==> Geometry <==

    Molecular point group: c1
    Full point group: C1

    Geometry (in Angstrom), charge = 0, multiplicity = 1:

       Center              X                  Y                   Z               Mass       
    ------------   -----------------  -----------------  -----------------  -----------------
         O            1.014300000000    -0.002300000000     0.060500000000    15.994914619560
         O            2.462400000000    -0.107500000000    -0.002400000000    15.994914619560
         H            0.821200000000    -0.823600000000    -0.430600000000     1.007825032070
         H            2.601688000000     0.635706000000    -0.619716000000     1.007825032070

  Nuclear repulsion =   36.805489430584430

  ==> Basis Set <==

  Basis Set: CC-PVDZ
    Blend: CC-PVDZ
    Number of shells: 18
    Number of basis function: 38
    Number of Cartesian functions: 40
    Spherical Harmonics?: true
    Max angular momentum: 2

  ==> DFJKGrad: Density-Fitted SCF Gradients <==

    Gradient:                    1
    J tasked:                  Yes
    K tasked:                  Yes
    wK tasked:                  No
    OpenMP threads:              1
    Integrals threads:           1
    Memory (MB):              3570
    Schwarz Cutoff:          0E+00
    Fitting Condition:       1E-12

   => Auxiliary Basis Set <=

  Basis Set: (CC-PVDZ AUX)
    Blend: CC-PVDZ-JKFIT
    Number of shells: 66
    Number of basis function: 186
    Number of Cartesian functions: 212
    Spherical Harmonics?: true
    Max angular momentum: 3

  ==> DFT Potential <==

   => Composite Functional: B3LYP-D3ZERO <= 

    B3LYP-d3zero Hyb-GGA Exchange-Correlation Functional

    P. J. Stephens, F. J. Devlin, C. F. Chabalowski, and M. J. Frisch, J. Phys. Chem. 98, 11623 (1994)

    Deriv               =              1
    GGA                 =           TRUE
    Meta                =          FALSE

    Exchange Hybrid     =           TRUE
    MP2 Hybrid          =          FALSE

   => Exchange Functionals <=

    0.0800   Slater exchange
    0.7200         Becke 88

   => Exact (HF) Exchange <=

    0.2000               HF 

   => Correlation Functionals <=

    0.1900   Vosko, Wilk & Nusair (VWN5_RPA)
    0.8100   Lee, Yang & Parr

   => Molecular Quadrature <=

    Radial Scheme       =       TREUTLER
    Pruning Scheme      =           FLAT
    Nuclear Scheme      =       TREUTLER

    BS radius alpha     =              1
    Pruning alpha       =              1
    Radial Points       =             75
    Spherical Points    =            302
    Total Points        =          88328
    Total Blocks        =            710
    Max Points          =            255
    Max Functions       =             38


  -Total Gradient:
     Atom            X                  Y                   Z
    ------   -----------------  -----------------  -----------------
       1        0.001270848833     0.011451598547     0.002173606077
       2       -0.000968852039    -0.010967450216     0.003814141891
       3        0.007721536130    -0.002967536714    -0.003192562892
       4       -0.008022207179     0.002485379021    -0.002767866042


*** tstop() called on loro.prib.upf.edu at Sat Sep 29 16:38:09 2018
Module time:
	user time   =       0.61 seconds =       0.01 minutes
	system time =       0.02 seconds =       0.00 minutes
	total time  =          1 seconds =       0.02 minutes
Total time:
	user time   =       3.82 seconds =       0.06 minutes
	system time =       0.12 seconds =       0.00 minutes
	total time  =          5 seconds =       0.08 minutes

			-----------------------------------------
			 OPTKING 2.0: for geometry optimizations 
			  - R.A. King,  Bethel University        
			-----------------------------------------
	At level 1: Red. Int., RFO, no backsteps, dynamic trust

	Internal coordinates to be generated automatically.
	Detected frag 1 with atoms:  1 2 3 4
	---Fragment 1 Bond Connectivity---
	 1 : 2 3
	 2 : 1 4
	 3 : 1
	 4 : 2

	Assuming in current code that numbering for constraints corresponds to unified fragment.
	Frozen dihedral atom list: 
	     3     1     2     4
	---Fragment 1 Geometry and Gradient---
	 O           1.9167492166       -0.0043463701        0.1143284310
	 O           4.6532616296       -0.2031455593       -0.0045353427
	 H           1.5518431003       -1.5563784430       -0.8137160728
	 H           4.9164778032        1.2013102410       -1.1710935202
	             0.0012708488        0.0114515985        0.0021736061
	            -0.0009688520       -0.0109674502        0.0038141419
	             0.0077215361       -0.0029675367       -0.0031925629
	            -0.0080222072        0.0024853790       -0.0027678660

	Previous optimization step data not found.  Starting new optimization.

	---Fragment 1 Intrafragment Coordinates---
	 - Coordinate -           - BOHR/RAD -       - ANG/DEG -
	 R(1,2)           =         2.746297	       1.453278
	 R(1,3)           =         1.844784	       0.976217
	 R(2,4)           =         1.844624	       0.976133
	 B(1,2,4)         =         1.685490	      96.571454
	 B(2,1,3)         =         1.685473	      96.570488
	*D(3,1,2,4)       =         1.919862	     109.999997

	Current energy   :      -151.5500785886

	Generating empirical Hessian (Schlegel '84) for each fragment.
	Taking RFO optimization step.
	Going to follow RFO solution 1.
	Using RFO vector 1.
	Norm of target step-size    0.13625
	Projected energy change by RFO approximation:        -0.0036373584

	Back-transformation to cartesian coordinates...
	Successfully converged to displaced geometry.

	Back-transformation to cartesian coordinates to adjust frozen coordinates...
	Successfully converged to displaced geometry.

	--- Internal Coordinate Step in ANG or DEG, aJ/ANG or AJ/DEG ---
	 ---------------------------------------------------------------------------
	   Coordinate                Previous        Force       Change         New 
	   ----------                --------       ------       ------       ------
	    1 R(1,2)          =      1.453278     0.069138     0.011645     1.464923
	    2 R(1,3)          =      0.976217    -0.021259    -0.002604     0.973614
	    3 R(2,4)          =      0.976133    -0.020622    -0.002525     0.973608
	    4 B(1,2,4)        =     96.571454     0.001179     5.425933   101.997386
	    5 B(2,1,3)        =     96.570488     0.001179     5.427792   101.998280
	    6 *D(3,1,2,4)     =    109.999997     0.000000     0.000000   109.999997
	 ---------------------------------------------------------------------------
	Successfully symmetrized geometry.

  ==> Convergence Check <==

  Measures of convergence in internal coordinates in au.
  Criteria marked as inactive (o), active & met (*), and active & unmet ( ).
  --------------------------------------------------------------------------------------------- ~
   Step     Total Energy     Delta E     MAX Force     RMS Force      MAX Disp      RMS Disp    ~
  --------------------------------------------------------------------------------------------- ~
    Convergence Criteria    1.00e-06 *    3.00e-04 *             o    1.20e-03 *             o  ~
  --------------------------------------------------------------------------------------------- ~
      1    -151.55007859   -1.52e+02      1.55e-02      9.69e-03 o    9.47e-02      5.55e-02 o  ~
  ---------------------------------------------------------------------------------------------

	Writing optimization data to binary file.
	Structure for next step:
	Cartesian Geometry (in Angstrom)
	    O     1.0067044871  -0.0356258098   0.0581866252
	    O     2.4695108246  -0.0749064651  -0.0100396290
	    H     0.7598929401  -0.8464245864  -0.4209927903
	    H     2.6634797482   0.6592628613  -0.6193702059
			--------------------------
			 OPTKING Finished Execution 
			--------------------------

    Structure for next step:
    Molecular point group: c1
    Full point group: C1

    Geometry (in Angstrom), charge = 0, multiplicity = 1:

    O            1.006704487123    -0.035625809801     0.058186625159
    O            2.469510824566    -0.074906465126    -0.010039628977
    H            0.759892940118    -0.846424586371    -0.420992790267
    H            2.663479748193     0.659262861297    -0.619370205916

gradient() will perform analytic gradient computation.

*** tstart() called on loro.prib.upf.edu
*** at Sat Sep 29 16:38:09 2018

   => Loading Basis Set <=

    Name: CC-PVDZ
    Role: ORBITAL
    Keyword: BASIS
    atoms 1-2 entry O          line   198 file /shared/joao/test_parameterize/miniconda3/share/psi4/basis/cc-pvdz.gbs 
    atoms 3-4 entry H          line    22 file /shared/joao/test_parameterize/miniconda3/share/psi4/basis/cc-pvdz.gbs 


         ---------------------------------------------------------
                                   SCF
            by Justin Turney, Rob Parrish, Andy Simmonett
                             and Daniel Smith
                              RKS Reference
                        1 Threads,   5100 MiB Core
         ---------------------------------------------------------

  ==> Geometry <==

    Molecular point group: c1
    Full point group: C1

    Geometry (in Angstrom), charge = 0, multiplicity = 1:

       Center              X                  Y                   Z               Mass       
    ------------   -----------------  -----------------  -----------------  -----------------
         O            1.006704487123    -0.035625809801     0.058186625159    15.994914619560
         O            2.469510824566    -0.074906465126    -0.010039628977    15.994914619560
         H            0.759892940118    -0.846424586371    -0.420992790267     1.007825032070
         H            2.663479748193     0.659262861297    -0.619370205916     1.007825032070

  Running in c1 symmetry.

  Rotational constants: A =      9.23414  B =      0.13802  C =      0.13729 [cm^-1]
  Rotational constants: A = 276832.47419  B =   4137.72889  C =   4115.78921 [MHz]
  Nuclear repulsion =   36.441999108983239

  Charge       = 0
  Multiplicity = 1
  Electrons    = 18
  Nalpha       = 9
  Nbeta        = 9

  ==> Algorithm <==

  SCF Algorithm Type is DF.
  DIIS enabled.
  MOM disabled.
  Fractional occupation disabled.
  Guess Type is READ.
  Energy threshold   = 1.00e-08
  Density threshold  = 1.00e-08
  Integral threshold = 0.00e+00

  ==> Primary Basis <==

  Basis Set: CC-PVDZ
    Blend: CC-PVDZ
    Number of shells: 18
    Number of basis function: 38
    Number of Cartesian functions: 40
    Spherical Harmonics?: true
    Max angular momentum: 2

  ==> DFT Potential <==

   => Composite Functional: B3LYP-D3ZERO <= 

    B3LYP-d3zero Hyb-GGA Exchange-Correlation Functional

    P. J. Stephens, F. J. Devlin, C. F. Chabalowski, and M. J. Frisch, J. Phys. Chem. 98, 11623 (1994)

    Deriv               =              1
    GGA                 =           TRUE
    Meta                =          FALSE

    Exchange Hybrid     =           TRUE
    MP2 Hybrid          =          FALSE

   => Exchange Functionals <=

    0.0800   Slater exchange
    0.7200         Becke 88

   => Exact (HF) Exchange <=

    0.2000               HF 

   => Correlation Functionals <=

    0.1900   Vosko, Wilk & Nusair (VWN5_RPA)
    0.8100   Lee, Yang & Parr

   => Molecular Quadrature <=

    Radial Scheme       =       TREUTLER
    Pruning Scheme      =           FLAT
    Nuclear Scheme      =       TREUTLER

    BS radius alpha     =              1
    Pruning alpha       =              1
    Radial Points       =             75
    Spherical Points    =            302
    Total Points        =          88336
    Total Blocks        =            720
    Max Points          =            254
    Max Functions       =             38

   => -D3ZERO: Empirical Dispersion <=

    Grimme's -D3 (zero-damping) Dispersion Correction
    Grimme S.; Antony J.; Ehrlich S.; Krieg H. (2010), J. Chem. Phys., 132: 154104

        S6 =   1.000000E+00
        S8 =   1.703000E+00
       SR6 =   1.261000E+00
       SR8 =   1.000000E+00
    ALPHA6 =   1.400000E+01

   => Loading Basis Set <=

    Name: (CC-PVDZ AUX)
    Role: JKFIT
    Keyword: DF_BASIS_SCF
    atoms 1-2 entry O          line   221 file /shared/joao/test_parameterize/miniconda3/share/psi4/basis/cc-pvdz-jkfit.gbs 
    atoms 3-4 entry H          line    51 file /shared/joao/test_parameterize/miniconda3/share/psi4/basis/cc-pvdz-jkfit.gbs 

  Reading orbitals from file 180, no projection.

  ==> Pre-Iterations <==

   -------------------------------------------------------
    Irrep   Nso     Nmo     Nalpha   Nbeta   Ndocc  Nsocc
   -------------------------------------------------------
     A         38      38       0       0       0       0
   -------------------------------------------------------
    Total      38      38       9       9       9       0
   -------------------------------------------------------

  ==> Integral Setup <==

  DFHelper Memory: AOs need 0.003 [GiB]; user supplied 3.486 [GiB]. Using in-core AOs.

  ==> MemDFJK: Density-Fitted J/K Matrices <==

    J tasked:                   Yes
    K tasked:                   Yes
    wK tasked:                   No
    OpenMP threads:               1
    Memory (MB):               3570
    Algorithm:                 Core
    Schwarz Cutoff:           1E-12
    Mask sparsity (%):       0.0000
    Fitting Condition:        1E-12

   => Auxiliary Basis Set <=

  Basis Set: (CC-PVDZ AUX)
    Blend: CC-PVDZ-JKFIT
    Number of shells: 66
    Number of basis function: 186
    Number of Cartesian functions: 212
    Spherical Harmonics?: true
    Max angular momentum: 3

  Minimum eigenvalue in the overlap matrix is 2.6439924561E-02.
  Using Symmetric Orthogonalization.

  SCF Guess: Orbitals guess was supplied from a previous computation.

  ==> Iterations <==

                           Total Energy        Delta E     RMS |[F,P]|

   @DF-RKS iter   0:  -151.55190174788174   -1.51552e+02   1.82144e-03 
   @DF-RKS iter   1:  -151.55059007765749    1.31167e-03   3.08689e-04 
   @DF-RKS iter   2:  -151.55065023261477   -6.01550e-05   1.30642e-04 DIIS
   @DF-RKS iter   3:  -151.55065973724896   -9.50463e-06   2.16301e-05 DIIS
   @DF-RKS iter   4:  -151.55066006443477   -3.27186e-07   1.51618e-05 DIIS
   @DF-RKS iter   5:  -151.55066019721602   -1.32781e-07   2.37448e-06 DIIS
   @DF-RKS iter   6:  -151.55066019798087   -7.64857e-10   2.41732e-06 DIIS
   @DF-RKS iter   7:  -151.55066020105807   -3.07719e-09   3.03794e-07 DIIS
   @DF-RKS iter   8:  -151.55066020111011   -5.20401e-11   2.01607e-08 DIIS
   @DF-RKS iter   9:  -151.55066020111062   -5.11591e-13   3.56324e-09 DIIS

  ==> Post-Iterations <==

    Orbital Energies [Eh]
    ---------------------

    Doubly Occupied:                                                      

       1A    -19.188359     2A    -19.188321     3A     -1.102220  
       4A     -0.892665     5A     -0.525343     6A     -0.474386  
       7A     -0.406579     8A     -0.306035     9A     -0.274244  

    Virtual:                                                              

      10A      0.013111    11A      0.051909    12A      0.106134  
      13A      0.573623    14A      0.579846    15A      0.848704  
      16A      0.871454    17A      0.916258    18A      0.954308  
      19A      1.015288    20A      1.051963    21A      1.229707  
      22A      1.264934    23A      1.395204    24A      1.413948  
      25A      1.640853    26A      1.726239    27A      2.074196  
      28A      2.082855    29A      2.396906    30A      2.435672  
      31A      2.531807    32A      2.871029    33A      2.924274  
      34A      3.051045    35A      3.128364    36A      3.503262  
      37A      3.545050    38A      3.793060  

    Final Occupation by Irrep:
              A 
    DOCC [     9 ]

  Energy converged.

  @DF-RKS Final Energy:  -151.55066020111062

   => Energetics <=

    Nuclear Repulsion Energy =             36.4419991089832394
    One-Electron Energy =                -280.8886145348559467
    Two-Electron Energy =                 107.3522343730172821
    DFT Exchange-Correlation Energy =     -14.4558929882551901
    Empirical Dispersion Energy =          -0.0003861600000000
    VV10 Nonlocal Energy =                  0.0000000000000000
    Total Energy =                       -151.5506602011106452



Properties will be evaluated at   0.000000,   0.000000,   0.000000 [a0]

Properties computed using the SCF density matrix

  Nuclear Dipole Moment: [e a0]
     X:    59.0220      Y:    -2.0247      Z:    -1.2381

  Electronic Dipole Moment: [e a0]
     X:   -59.0581      Y:     1.9723      Z:     0.4934

  Dipole Moment: [e a0]
     X:    -0.0361      Y:    -0.0524      Z:    -0.7447     Total:     0.7474

  Dipole Moment: [D]
     X:    -0.0919      Y:    -0.1332      Z:    -1.8928     Total:     1.8997


*** tstop() called on loro.prib.upf.edu at Sat Sep 29 16:38:12 2018
Module time:
	user time   =       2.72 seconds =       0.05 minutes
	system time =       0.08 seconds =       0.00 minutes
	total time  =          3 seconds =       0.05 minutes
Total time:
	user time   =       6.56 seconds =       0.11 minutes
	system time =       0.20 seconds =       0.00 minutes
	total time  =          8 seconds =       0.13 minutes

*** tstart() called on loro.prib.upf.edu
*** at Sat Sep 29 16:38:12 2018


         ------------------------------------------------------------
                                   SCF GRAD                          
                          Rob Parrish, Justin Turney,                
                       Andy Simmonett, and Alex Sokolov              
         ------------------------------------------------------------

  ==> Geometry <==

    Molecular point group: c1
    Full point group: C1

    Geometry (in Angstrom), charge = 0, multiplicity = 1:

       Center              X                  Y                   Z               Mass       
    ------------   -----------------  -----------------  -----------------  -----------------
         O            1.006704487123    -0.035625809801     0.058186625159    15.994914619560
         O            2.469510824566    -0.074906465126    -0.010039628977    15.994914619560
         H            0.759892940118    -0.846424586371    -0.420992790267     1.007825032070
         H            2.663479748193     0.659262861297    -0.619370205916     1.007825032070

  Nuclear repulsion =   36.441999108983239

  ==> Basis Set <==

  Basis Set: CC-PVDZ
    Blend: CC-PVDZ
    Number of shells: 18
    Number of basis function: 38
    Number of Cartesian functions: 40
    Spherical Harmonics?: true
    Max angular momentum: 2

  ==> DFJKGrad: Density-Fitted SCF Gradients <==

    Gradient:                    1
    J tasked:                  Yes
    K tasked:                  Yes
    wK tasked:                  No
    OpenMP threads:              1
    Integrals threads:           1
    Memory (MB):              3570
    Schwarz Cutoff:          0E+00
    Fitting Condition:       1E-12

   => Auxiliary Basis Set <=

  Basis Set: (CC-PVDZ AUX)
    Blend: CC-PVDZ-JKFIT
    Number of shells: 66
    Number of basis function: 186
    Number of Cartesian functions: 212
    Spherical Harmonics?: true
    Max angular momentum: 3

  ==> DFT Potential <==

   => Composite Functional: B3LYP-D3ZERO <= 

    B3LYP-d3zero Hyb-GGA Exchange-Correlation Functional

    P. J. Stephens, F. J. Devlin, C. F. Chabalowski, and M. J. Frisch, J. Phys. Chem. 98, 11623 (1994)

    Deriv               =              1
    GGA                 =           TRUE
    Meta                =          FALSE

    Exchange Hybrid     =           TRUE
    MP2 Hybrid          =          FALSE

   => Exchange Functionals <=

    0.0800   Slater exchange
    0.7200         Becke 88

   => Exact (HF) Exchange <=

    0.2000               HF 

   => Correlation Functionals <=

    0.1900   Vosko, Wilk & Nusair (VWN5_RPA)
    0.8100   Lee, Yang & Parr

   => Molecular Quadrature <=

    Radial Scheme       =       TREUTLER
    Pruning Scheme      =           FLAT
    Nuclear Scheme      =       TREUTLER

    BS radius alpha     =              1
    Pruning alpha       =              1
    Radial Points       =             75
    Spherical Points    =            302
    Total Points        =          88336
    Total Blocks        =            720
    Max Points          =            254
    Max Functions       =             38


  -Total Gradient:
     Atom            X                  Y                   Z
    ------   -----------------  -----------------  -----------------
       1       -0.007303184861    -0.006502528502     0.000076075812
       2        0.007234826743     0.006403282559    -0.001539486299
       3       -0.004399478887     0.001646573683     0.000831477312
       4        0.004467677089    -0.001547557979     0.000628691343


*** tstop() called on loro.prib.upf.edu at Sat Sep 29 16:38:13 2018
Module time:
	user time   =       0.59 seconds =       0.01 minutes
	system time =       0.01 seconds =       0.00 minutes
	total time  =          1 seconds =       0.02 minutes
Total time:
	user time   =       7.16 seconds =       0.12 minutes
	system time =       0.21 seconds =       0.00 minutes
	total time  =          9 seconds =       0.15 minutes

			-----------------------------------------
			 OPTKING 2.0: for geometry optimizations 
			  - R.A. King,  Bethel University        
			-----------------------------------------
	At level 1: Red. Int., RFO, no backsteps, dynamic trust

	Previous internal coordinate definitions found.
	---Fragment 1 Geometry and Gradient---
	 O           1.9023957774       -0.0673230238        0.1099567861
	 O           4.6666991406       -0.1415527047       -0.0189721492
	 H           1.4359895471       -1.5995106604       -0.7955610775
	 H           5.0332472846        1.2458262574       -1.1704400640
	            -0.0073031849       -0.0065025285        0.0000760758
	             0.0072348267        0.0064032826       -0.0015394863
	            -0.0043994789        0.0016465737        0.0008314773
	             0.0044676771       -0.0015475580        0.0006286913

	---Fragment 1 Intrafragment Coordinates---
	 - Coordinate -           - BOHR/RAD -       - ANG/DEG -
	 R(1,2)           =         2.768304	       1.464923
	 R(1,3)           =         1.839863	       0.973614
	 R(2,4)           =         1.839852	       0.973608
	 B(1,2,4)         =         1.780190	     101.997386
	 B(2,1,3)         =         1.780206	     101.998280
	*D(3,1,2,4)       =         1.919862	     109.999997

	Current energy   :      -151.5506602011

	Energy change for the previous step:
		Projected    :        -0.0036373584
		Actual       :        -0.0005816125
	Energy ratio indicates iffy step: Trust radius decreased to 1.250e-01.


	Performing BFGS update.
	Previous computed or guess Hessian on step 1.
	Steps to be used in Hessian update: 1
	Taking RFO optimization step.
	Going to follow RFO solution 1.
	Using RFO vector 1.
	Norm of target step-size    0.04833
	Projected energy change by RFO approximation:        -0.0002829072

	Back-transformation to cartesian coordinates...
	Successfully converged to displaced geometry.

	Back-transformation to cartesian coordinates to adjust frozen coordinates...
	Successfully converged to displaced geometry.

	--- Internal Coordinate Step in ANG or DEG, aJ/ANG or AJ/DEG ---
	 ---------------------------------------------------------------------------
	   Coordinate                Previous        Force       Change         New 
	   ----------                --------       ------       ------       ------
	    1 R(1,2)          =      1.464923    -0.095566    -0.009893     1.455030
	    2 R(1,3)          =      0.973614     0.005495     0.000378     0.973991
	    3 R(2,4)          =      0.973608     0.005538     0.000382     0.973990
	    4 B(1,2,4)        =    101.997386    -0.000661    -1.806415   100.190972
	    5 B(2,1,3)        =    101.998280    -0.000661    -1.807031   100.191249
	    6 *D(3,1,2,4)     =    109.999997     0.000000    -0.000000   109.999997
	 ---------------------------------------------------------------------------
	Successfully symmetrized geometry.

  ==> Convergence Check <==

  Measures of convergence in internal coordinates in au.
  Criteria marked as inactive (o), active & met (*), and active & unmet ( ).
  ---------------------------------------------------------------------------------------------
   Step     Total Energy     Delta E     MAX Force     RMS Force      MAX Disp      RMS Disp   
  ---------------------------------------------------------------------------------------------
    Convergence Criteria    1.00e-06 *    3.00e-04 *             o    1.20e-03 *             o
  ---------------------------------------------------------------------------------------------
      2    -151.55066020   -5.82e-04      1.16e-02      6.91e-03 o    3.15e-02      1.97e-02 o  ~
  ---------------------------------------------------------------------------------------------

	Writing optimization data to binary file.
	Structure for next step:
	Cartesian Geometry (in Angstrom)
	    O     1.0120992783  -0.0239087845   0.0589090072
	    O     2.4642853985  -0.0863724054  -0.0071719112
	    H     0.7824285094  -0.8376757557  -0.4245097244
	    H     2.6407748137   0.6502629456  -0.6194433715
			--------------------------
			 OPTKING Finished Execution 
			--------------------------

    Structure for next step:
    Molecular point group: c1
    Full point group: C1

    Geometry (in Angstrom), charge = 0, multiplicity = 1:

    O            1.012099278343    -0.023908784521     0.058909007167
    O            2.464285398522    -0.086372405433    -0.007171911212
    H            0.782428509416    -0.837675755660    -0.424509724420
    H            2.640774813720     0.650262945613    -0.619443371535

gradient() will perform analytic gradient computation.

*** tstart() called on loro.prib.upf.edu
*** at Sat Sep 29 16:38:14 2018

   => Loading Basis Set <=

    Name: CC-PVDZ
    Role: ORBITAL
    Keyword: BASIS
    atoms 1-2 entry O          line   198 file /shared/joao/test_parameterize/miniconda3/share/psi4/basis/cc-pvdz.gbs 
    atoms 3-4 entry H          line    22 file /shared/joao/test_parameterize/miniconda3/share/psi4/basis/cc-pvdz.gbs 


         ---------------------------------------------------------
                                   SCF
            by Justin Turney, Rob Parrish, Andy Simmonett
                             and Daniel Smith
                              RKS Reference
                        1 Threads,   5100 MiB Core
         ---------------------------------------------------------

  ==> Geometry <==

    Molecular point group: c1
    Full point group: C1

    Geometry (in Angstrom), charge = 0, multiplicity = 1:

       Center              X                  Y                   Z               Mass       
    ------------   -----------------  -----------------  -----------------  -----------------
         O            1.012099278343    -0.023908784521     0.058909007167    15.994914619560
         O            2.464285398522    -0.086372405433    -0.007171911212    15.994914619560
         H            0.782428509416    -0.837675755660    -0.424509724420     1.007825032070
         H            2.640774813720     0.650262945613    -0.619443371535     1.007825032070

  Running in c1 symmetry.

  Rotational constants: A =      9.31108  B =      0.13836  C =      0.13767 [cm^-1]
  Rotational constants: A = 279139.26828  B =   4148.06432  C =   4127.18099 [MHz]
  Nuclear repulsion =   36.673359704893521

  Charge       = 0
  Multiplicity = 1
  Electrons    = 18
  Nalpha       = 9
  Nbeta        = 9

  ==> Algorithm <==

  SCF Algorithm Type is DF.
  DIIS enabled.
  MOM disabled.
  Fractional occupation disabled.
  Guess Type is READ.
  Energy threshold   = 1.00e-08
  Density threshold  = 1.00e-08
  Integral threshold = 0.00e+00

  ==> Primary Basis <==

  Basis Set: CC-PVDZ
    Blend: CC-PVDZ
    Number of shells: 18
    Number of basis function: 38
    Number of Cartesian functions: 40
    Spherical Harmonics?: true
    Max angular momentum: 2

  ==> DFT Potential <==

   => Composite Functional: B3LYP-D3ZERO <= 

    B3LYP-d3zero Hyb-GGA Exchange-Correlation Functional

    P. J. Stephens, F. J. Devlin, C. F. Chabalowski, and M. J. Frisch, J. Phys. Chem. 98, 11623 (1994)

    Deriv               =              1
    GGA                 =           TRUE
    Meta                =          FALSE

    Exchange Hybrid     =           TRUE
    MP2 Hybrid          =          FALSE

   => Exchange Functionals <=

    0.0800   Slater exchange
    0.7200         Becke 88

   => Exact (HF) Exchange <=

    0.2000               HF 

   => Correlation Functionals <=

    0.1900   Vosko, Wilk & Nusair (VWN5_RPA)
    0.8100   Lee, Yang & Parr

   => Molecular Quadrature <=

    Radial Scheme       =       TREUTLER
    Pruning Scheme      =           FLAT
    Nuclear Scheme      =       TREUTLER

    BS radius alpha     =              1
    Pruning alpha       =              1
    Radial Points       =             75
    Spherical Points    =            302
    Total Points        =          88336
    Total Blocks        =            711
    Max Points          =            255
    Max Functions       =             38

   => -D3ZERO: Empirical Dispersion <=

    Grimme's -D3 (zero-damping) Dispersion Correction
    Grimme S.; Antony J.; Ehrlich S.; Krieg H. (2010), J. Chem. Phys., 132: 154104

        S6 =   1.000000E+00
        S8 =   1.703000E+00
       SR6 =   1.261000E+00
       SR8 =   1.000000E+00
    ALPHA6 =   1.400000E+01

   => Loading Basis Set <=

    Name: (CC-PVDZ AUX)
    Role: JKFIT
    Keyword: DF_BASIS_SCF
    atoms 1-2 entry O          line   221 file /shared/joao/test_parameterize/miniconda3/share/psi4/basis/cc-pvdz-jkfit.gbs 
    atoms 3-4 entry H          line    51 file /shared/joao/test_parameterize/miniconda3/share/psi4/basis/cc-pvdz-jkfit.gbs 

  Reading orbitals from file 180, no projection.

  ==> Pre-Iterations <==

   -------------------------------------------------------
    Irrep   Nso     Nmo     Nalpha   Nbeta   Ndocc  Nsocc
   -------------------------------------------------------
     A         38      38       0       0       0       0
   -------------------------------------------------------
    Total      38      38       9       9       9       0
   -------------------------------------------------------

  ==> Integral Setup <==

  DFHelper Memory: AOs need 0.003 [GiB]; user supplied 3.486 [GiB]. Using in-core AOs.

  ==> MemDFJK: Density-Fitted J/K Matrices <==

    J tasked:                   Yes
    K tasked:                   Yes
    wK tasked:                   No
    OpenMP threads:               1
    Memory (MB):               3570
    Algorithm:                 Core
    Schwarz Cutoff:           1E-12
    Mask sparsity (%):       0.0000
    Fitting Condition:        1E-12

   => Auxiliary Basis Set <=

  Basis Set: (CC-PVDZ AUX)
    Blend: CC-PVDZ-JKFIT
    Number of shells: 66
    Number of basis function: 186
    Number of Cartesian functions: 212
    Spherical Harmonics?: true
    Max angular momentum: 3

  Minimum eigenvalue in the overlap matrix is 2.5753380834E-02.
  Using Symmetric Orthogonalization.

  SCF Guess: Orbitals guess was supplied from a previous computation.

  ==> Iterations <==

                           Total Energy        Delta E     RMS |[F,P]|

   @DF-RKS iter   0:  -151.55441816667084   -1.51554e+02   7.55523e-04 
   @DF-RKS iter   1:  -151.55105326148359    3.36491e-03   1.63095e-04 
   @DF-RKS iter   2:  -151.55106570009980   -1.24386e-05   7.79781e-05 DIIS
   @DF-RKS iter   3:  -151.55106875919654   -3.05910e-06   1.04677e-05 DIIS
   @DF-RKS iter   4:  -151.55106882097979   -6.17833e-08   6.16282e-06 DIIS
   @DF-RKS iter   5:  -151.55106884545549   -2.44757e-08   4.71574e-07 DIIS
   @DF-RKS iter   6:  -151.55106884561218   -1.56689e-10   3.00190e-07 DIIS
   @DF-RKS iter   7:  -151.55106884564890   -3.67208e-11   1.48083e-07 DIIS
   @DF-RKS iter   8:  -151.55106884566084   -1.19371e-11   5.83751e-09 DIIS

  ==> Post-Iterations <==

    Orbital Energies [Eh]
    ---------------------

    Doubly Occupied:                                                      

       1A    -19.187955     2A    -19.187916     3A     -1.108111  
       4A     -0.889761     5A     -0.523206     6A     -0.478827  
       7A     -0.410029     8A     -0.306403     9A     -0.273177  

    Virtual:                                                              

      10A      0.020297    11A      0.050959    12A      0.106525  
      13A      0.574266    14A      0.581514    15A      0.848469  
      16A      0.872194    17A      0.908876    18A      0.948788  
      19A      1.015091    20A      1.053994    21A      1.222369  
      22A      1.262589    23A      1.396145    24A      1.409795  
      25A      1.658488    26A      1.718171    27A      2.075894  
      28A      2.084669    29A      2.402401    30A      2.435975  
      31A      2.531947    32A      2.872199    33A      2.923787  
      34A      3.058104    35A      3.137676    36A      3.497143  
      37A      3.540710    38A      3.811232  

    Final Occupation by Irrep:
              A 
    DOCC [     9 ]

  Energy converged.

  @DF-RKS Final Energy:  -151.55106884566084

   => Energetics <=

    Nuclear Repulsion Energy =             36.6733597048935209
    One-Electron Energy =                -281.3347521190926273
    Two-Electron Energy =                 107.5711487738002035
    DFT Exchange-Correlation Energy =     -14.4604687352619443
    Empirical Dispersion Energy =          -0.0003564700000000
    VV10 Nonlocal Energy =                  0.0000000000000000
    Total Energy =                       -151.5510688456608648



Properties will be evaluated at   0.000000,   0.000000,   0.000000 [a0]

Properties computed using the SCF density matrix

  Nuclear Dipole Moment: [e a0]
     X:    59.0242      Y:    -2.0214      Z:    -1.1906

  Electronic Dipole Moment: [e a0]
     X:   -59.0604      Y:     1.9689      Z:     0.4454

  Dipole Moment: [e a0]
     X:    -0.0362      Y:    -0.0525      Z:    -0.7452     Total:     0.7479

  Dipole Moment: [D]
     X:    -0.0919      Y:    -0.1333      Z:    -1.8942     Total:     1.9011


*** tstop() called on loro.prib.upf.edu at Sat Sep 29 16:38:17 2018
Module time:
	user time   =       2.48 seconds =       0.04 minutes
	system time =       0.08 seconds =       0.00 minutes
	total time  =          3 seconds =       0.05 minutes
Total time:
	user time   =       9.66 seconds =       0.16 minutes
	system time =       0.29 seconds =       0.00 minutes
	total time  =         13 seconds =       0.22 minutes

*** tstart() called on loro.prib.upf.edu
*** at Sat Sep 29 16:38:17 2018


         ------------------------------------------------------------
                                   SCF GRAD                          
                          Rob Parrish, Justin Turney,                
                       Andy Simmonett, and Alex Sokolov              
         ------------------------------------------------------------

  ==> Geometry <==

    Molecular point group: c1
    Full point group: C1

    Geometry (in Angstrom), charge = 0, multiplicity = 1:

       Center              X                  Y                   Z               Mass       
    ------------   -----------------  -----------------  -----------------  -----------------
         O            1.012099278343    -0.023908784521     0.058909007167    15.994914619560
         O            2.464285398522    -0.086372405433    -0.007171911212    15.994914619560
         H            0.782428509416    -0.837675755660    -0.424509724420     1.007825032070
         H            2.640774813720     0.650262945613    -0.619443371535     1.007825032070

  Nuclear repulsion =   36.673359704893521

  ==> Basis Set <==

  Basis Set: CC-PVDZ
    Blend: CC-PVDZ
    Number of shells: 18
    Number of basis function: 38
    Number of Cartesian functions: 40
    Spherical Harmonics?: true
    Max angular momentum: 2

  ==> DFJKGrad: Density-Fitted SCF Gradients <==

    Gradient:                    1
    J tasked:                  Yes
    K tasked:                  Yes
    wK tasked:                  No
    OpenMP threads:              1
    Integrals threads:           1
    Memory (MB):              3570
    Schwarz Cutoff:          0E+00
    Fitting Condition:       1E-12

   => Auxiliary Basis Set <=

  Basis Set: (CC-PVDZ AUX)
    Blend: CC-PVDZ-JKFIT
    Number of shells: 66
    Number of basis function: 186
    Number of Cartesian functions: 212
    Spherical Harmonics?: true
    Max angular momentum: 3

  ==> DFT Potential <==

   => Composite Functional: B3LYP-D3ZERO <= 

    B3LYP-d3zero Hyb-GGA Exchange-Correlation Functional

    P. J. Stephens, F. J. Devlin, C. F. Chabalowski, and M. J. Frisch, J. Phys. Chem. 98, 11623 (1994)

    Deriv               =              1
    GGA                 =           TRUE
    Meta                =          FALSE

    Exchange Hybrid     =           TRUE
    MP2 Hybrid          =          FALSE

   => Exchange Functionals <=

    0.0800   Slater exchange
    0.7200         Becke 88

   => Exact (HF) Exchange <=

    0.2000               HF 

   => Correlation Functionals <=

    0.1900   Vosko, Wilk & Nusair (VWN5_RPA)
    0.8100   Lee, Yang & Parr

   => Molecular Quadrature <=

    Radial Scheme       =       TREUTLER
    Pruning Scheme      =           FLAT
    Nuclear Scheme      =       TREUTLER

    BS radius alpha     =              1
    Pruning alpha       =              1
    Radial Points       =             75
    Spherical Points    =            302
    Total Points        =          88336
    Total Blocks        =            711
    Max Points          =            255
    Max Functions       =             38


  -Total Gradient:
     Atom            X                  Y                   Z
    ------   -----------------  -----------------  -----------------
       1       -0.002066410088    -0.000307318774     0.000646998267
       2        0.002117735199     0.000381507550     0.000395238599
       3       -0.000061004565     0.000273544394    -0.000535543410
       4        0.000010260051    -0.000346891980    -0.000494730836


*** tstop() called on loro.prib.upf.edu at Sat Sep 29 16:38:17 2018
Module time:
	user time   =       0.62 seconds =       0.01 minutes
	system time =       0.02 seconds =       0.00 minutes
	total time  =          0 seconds =       0.00 minutes
Total time:
	user time   =      10.28 seconds =       0.17 minutes
	system time =       0.32 seconds =       0.01 minutes
	total time  =         13 seconds =       0.22 minutes

			-----------------------------------------
			 OPTKING 2.0: for geometry optimizations 
			  - R.A. King,  Bethel University        
			-----------------------------------------
	At level 1: Red. Int., RFO, no backsteps, dynamic trust

	Previous internal coordinate definitions found.
	---Fragment 1 Geometry and Gradient---
	 O           1.9125904554       -0.0451810549        0.1113218903
	 O           4.6568245165       -0.1632201917       -0.0135529480
	 H           1.4785756014       -1.5829777664       -0.8022071199
	 H           4.9903411766        1.2288188816       -1.1705783270
	            -0.0020664101       -0.0003073188        0.0006469983
	             0.0021177352        0.0003815076        0.0003952386
	            -0.0000610046        0.0002735444       -0.0005355434
	             0.0000102601       -0.0003468920       -0.0004947308

	---Fragment 1 Intrafragment Coordinates---
	 - Coordinate -           - BOHR/RAD -       - ANG/DEG -
	 R(1,2)           =         2.749609	       1.455030
	 R(1,3)           =         1.840577	       0.973991
	 R(2,4)           =         1.840574	       0.973990
	 B(1,2,4)         =         1.748662	     100.190972
	 B(2,1,3)         =         1.748667	     100.191249
	*D(3,1,2,4)       =         1.919862	     109.999997

	Current energy   :      -151.5510688457

	Energy change for the previous step:
		Projected    :        -0.0002829072
		Actual       :        -0.0004086446
	Energy ratio indicates good step: Trust radius increased to 3.750e-01.


	Performing BFGS update.
	Previous computed or guess Hessian on step 1.
	Steps to be used in Hessian update: 2 1
	Taking RFO optimization step.
	Going to follow RFO solution 1.
	Using RFO vector 1.
	Norm of target step-size    0.00582
	Projected energy change by RFO approximation:        -0.0000146828

	Back-transformation to cartesian coordinates...
	Successfully converged to displaced geometry.

	Back-transformation to cartesian coordinates to adjust frozen coordinates...
	Successfully converged to displaced geometry.

	--- Internal Coordinate Step in ANG or DEG, aJ/ANG or AJ/DEG ---
	 ---------------------------------------------------------------------------
	   Coordinate                Previous        Force       Change         New 
	   ----------                --------       ------       ------       ------
	    1 R(1,2)          =      1.455030    -0.017525    -0.002914     1.452116
	    2 R(1,3)          =      0.973991    -0.000438    -0.000107     0.973884
	    3 R(2,4)          =      0.973990    -0.000428    -0.000104     0.973886
	    4 B(1,2,4)        =    100.190972    -0.000006     0.075858   100.266829
	    5 B(2,1,3)        =    100.191249    -0.000006     0.075541   100.266790
	    6 *D(3,1,2,4)     =    109.999997     0.000000     0.000000   109.999997
	 ---------------------------------------------------------------------------
	Successfully symmetrized geometry.

  ==> Convergence Check <==

  Measures of convergence in internal coordinates in au.
  Criteria marked as inactive (o), active & met (*), and active & unmet ( ).
  ---------------------------------------------------------------------------------------------
   Step     Total Energy     Delta E     MAX Force     RMS Force      MAX Disp      RMS Disp   
  ---------------------------------------------------------------------------------------------
    Convergence Criteria    1.00e-06 *    3.00e-04 *             o    1.20e-03 *             o
  ---------------------------------------------------------------------------------------------
      3    -151.55106885   -4.09e-04      2.13e-03      8.70e-04 o    5.51e-03      2.38e-03 o  ~
  ---------------------------------------------------------------------------------------------

	Writing optimization data to binary file.
	Structure for next step:
	Cartesian Geometry (in Angstrom)
	    O     1.0135465134  -0.0240083948   0.0587504709
	    O     2.4628263232  -0.0862872856  -0.0072032886
	    H     0.7826853158  -0.8374442593  -0.4244423007
	    H     2.6405298476   0.6500459397  -0.6193208816
			--------------------------
			 OPTKING Finished Execution 
			--------------------------

    Structure for next step:
    Molecular point group: c1
    Full point group: C1

    Geometry (in Angstrom), charge = 0, multiplicity = 1:

    O            1.013546513374    -0.024008394844     0.058750470870
    O            2.462826323246    -0.086287285568    -0.007203288580
    H            0.782685315761    -0.837444259258    -0.424442300706
    H            2.640529847618     0.650045939670    -0.619320881584

gradient() will perform analytic gradient computation.

*** tstart() called on loro.prib.upf.edu
*** at Sat Sep 29 16:38:18 2018

   => Loading Basis Set <=

    Name: CC-PVDZ
    Role: ORBITAL
    Keyword: BASIS
    atoms 1-2 entry O          line   198 file /shared/joao/test_parameterize/miniconda3/share/psi4/basis/cc-pvdz.gbs 
    atoms 3-4 entry H          line    22 file /shared/joao/test_parameterize/miniconda3/share/psi4/basis/cc-pvdz.gbs 


         ---------------------------------------------------------
                                   SCF
            by Justin Turney, Rob Parrish, Andy Simmonett
                             and Daniel Smith
                              RKS Reference
                        1 Threads,   5100 MiB Core
         ---------------------------------------------------------

  ==> Geometry <==

    Molecular point group: c1
    Full point group: C1

    Geometry (in Angstrom), charge = 0, multiplicity = 1:

       Center              X                  Y                   Z               Mass       
    ------------   -----------------  -----------------  -----------------  -----------------
         O            1.013546513374    -0.024008394844     0.058750470870    15.994914619560
         O            2.462826323246    -0.086287285568    -0.007203288580    15.994914619560
         H            0.782685315761    -0.837444259258    -0.424442300706     1.007825032070
         H            2.640529847618     0.650045939670    -0.619320881584     1.007825032070

  Running in c1 symmetry.

  Rotational constants: A =      9.31782  B =      0.13844  C =      0.13775 [cm^-1]
  Rotational constants: A = 279341.24757  B =   4150.43427  C =   4129.53442 [MHz]
  Nuclear repulsion =   36.724893551346426

  Charge       = 0
  Multiplicity = 1
  Electrons    = 18
  Nalpha       = 9
  Nbeta        = 9

  ==> Algorithm <==

  SCF Algorithm Type is DF.
  DIIS enabled.
  MOM disabled.
  Fractional occupation disabled.
  Guess Type is READ.
  Energy threshold   = 1.00e-08
  Density threshold  = 1.00e-08
  Integral threshold = 0.00e+00

  ==> Primary Basis <==

  Basis Set: CC-PVDZ
    Blend: CC-PVDZ
    Number of shells: 18
    Number of basis function: 38
    Number of Cartesian functions: 40
    Spherical Harmonics?: true
    Max angular momentum: 2

  ==> DFT Potential <==

   => Composite Functional: B3LYP-D3ZERO <= 

    B3LYP-d3zero Hyb-GGA Exchange-Correlation Functional

    P. J. Stephens, F. J. Devlin, C. F. Chabalowski, and M. J. Frisch, J. Phys. Chem. 98, 11623 (1994)

    Deriv               =              1
    GGA                 =           TRUE
    Meta                =          FALSE

    Exchange Hybrid     =           TRUE
    MP2 Hybrid          =          FALSE

   => Exchange Functionals <=

    0.0800   Slater exchange
    0.7200         Becke 88

   => Exact (HF) Exchange <=

    0.2000               HF 

   => Correlation Functionals <=

    0.1900   Vosko, Wilk & Nusair (VWN5_RPA)
    0.8100   Lee, Yang & Parr

   => Molecular Quadrature <=

    Radial Scheme       =       TREUTLER
    Pruning Scheme      =           FLAT
    Nuclear Scheme      =       TREUTLER

    BS radius alpha     =              1
    Pruning alpha       =              1
    Radial Points       =             75
    Spherical Points    =            302
    Total Points        =          88336
    Total Blocks        =            712
    Max Points          =            256
    Max Functions       =             38

   => -D3ZERO: Empirical Dispersion <=

    Grimme's -D3 (zero-damping) Dispersion Correction
    Grimme S.; Antony J.; Ehrlich S.; Krieg H. (2010), J. Chem. Phys., 132: 154104

        S6 =   1.000000E+00
        S8 =   1.703000E+00
       SR6 =   1.261000E+00
       SR8 =   1.000000E+00
    ALPHA6 =   1.400000E+01

   => Loading Basis Set <=

    Name: (CC-PVDZ AUX)
    Role: JKFIT
    Keyword: DF_BASIS_SCF
    atoms 1-2 entry O          line   221 file /shared/joao/test_parameterize/miniconda3/share/psi4/basis/cc-pvdz-jkfit.gbs 
    atoms 3-4 entry H          line    51 file /shared/joao/test_parameterize/miniconda3/share/psi4/basis/cc-pvdz-jkfit.gbs 

  Reading orbitals from file 180, no projection.

  ==> Pre-Iterations <==

   -------------------------------------------------------
    Irrep   Nso     Nmo     Nalpha   Nbeta   Ndocc  Nsocc
   -------------------------------------------------------
     A         38      38       0       0       0       0
   -------------------------------------------------------
    Total      38      38       9       9       9       0
   -------------------------------------------------------

  ==> Integral Setup <==

  DFHelper Memory: AOs need 0.003 [GiB]; user supplied 3.486 [GiB]. Using in-core AOs.

  ==> MemDFJK: Density-Fitted J/K Matrices <==

    J tasked:                   Yes
    K tasked:                   Yes
    wK tasked:                   No
    OpenMP threads:               1
    Memory (MB):               3570
    Algorithm:                 Core
    Schwarz Cutoff:           1E-12
    Mask sparsity (%):       0.0000
    Fitting Condition:        1E-12

   => Auxiliary Basis Set <=

  Basis Set: (CC-PVDZ AUX)
    Blend: CC-PVDZ-JKFIT
    Number of shells: 66
    Number of basis function: 186
    Number of Cartesian functions: 212
    Spherical Harmonics?: true
    Max angular momentum: 3

  Minimum eigenvalue in the overlap matrix is 2.5603514505E-02.
  Using Symmetric Orthogonalization.

  SCF Guess: Orbitals guess was supplied from a previous computation.

  ==> Iterations <==

                           Total Energy        Delta E     RMS |[F,P]|

   @DF-RKS iter   0:  -151.55258738184227   -1.51553e+02   1.56083e-04 
   @DF-RKS iter   1:  -151.55107579061300    1.51159e-03   3.55355e-05 
   @DF-RKS iter   2:  -151.55107623420483   -4.43592e-07   1.77992e-05 DIIS
   @DF-RKS iter   3:  -151.55107638073969   -1.46535e-07   2.73580e-06 DIIS
   @DF-RKS iter   4:  -151.55107638466461   -3.92492e-09   3.50721e-07 DIIS
   @DF-RKS iter   5:  -151.55107638473626   -7.16511e-11   7.59802e-08 DIIS
   @DF-RKS iter   6:  -151.55107638473692   -6.53699e-13   6.95560e-08 DIIS
   @DF-RKS iter   7:  -151.55107638473928   -2.35900e-12   3.41245e-09 DIIS

  ==> Post-Iterations <==

    Orbital Energies [Eh]
    ---------------------

    Doubly Occupied:                                                      

       1A    -19.187742     2A    -19.187703     3A     -1.109217  
       4A     -0.889309     5A     -0.523911     6A     -0.479048  
       7A     -0.410326     8A     -0.306104     9A     -0.272803  

    Virtual:                                                              

      10A      0.021745    11A      0.051018    12A      0.107113  
      13A      0.574409    14A      0.581618    15A      0.848452  
      16A      0.872525    17A      0.908440    18A      0.948741  
      19A      1.015201    20A      1.053757    21A      1.222351  
      22A      1.262504    23A      1.396485    24A      1.410037  
      25A      1.659309    26A      1.718460    27A      2.076953  
      28A      2.085151    29A      2.403962    30A      2.434858  
      31A      2.530404    32A      2.871653    33A      2.924245  
      34A      3.061477    35A      3.140736    36A      3.497976  
      37A      3.540638    38A      3.813820  

    Final Occupation by Irrep:
              A 
    DOCC [     9 ]

  Energy converged.

  @DF-RKS Final Energy:  -151.55107638473928

   => Energetics <=

    Nuclear Repulsion Energy =             36.7248935513464261
    One-Electron Energy =                -281.4355325796113334
    Two-Electron Energy =                 107.6215246009812176
    DFT Exchange-Correlation Energy =     -14.4616068874555825
    Empirical Dispersion Energy =          -0.0003550700000000
    VV10 Nonlocal Energy =                  0.0000000000000000
    Total Energy =                       -151.5510763847392752



Properties will be evaluated at   0.000000,   0.000000,   0.000000 [a0]

Properties computed using the SCF density matrix

  Nuclear Dipole Moment: [e a0]
     X:    59.0241      Y:    -2.0216      Z:    -1.1931

  Electronic Dipole Moment: [e a0]
     X:   -59.0602      Y:     1.9691      Z:     0.4481

  Dipole Moment: [e a0]
     X:    -0.0362      Y:    -0.0524      Z:    -0.7451     Total:     0.7478

  Dipole Moment: [D]
     X:    -0.0919      Y:    -0.1333      Z:    -1.8938     Total:     1.9007


*** tstop() called on loro.prib.upf.edu at Sat Sep 29 16:38:21 2018
Module time:
	user time   =       2.17 seconds =       0.04 minutes
	system time =       0.05 seconds =       0.00 minutes
	total time  =          3 seconds =       0.05 minutes
Total time:
	user time   =      12.46 seconds =       0.21 minutes
	system time =       0.37 seconds =       0.01 minutes
	total time  =         17 seconds =       0.28 minutes

*** tstart() called on loro.prib.upf.edu
*** at Sat Sep 29 16:38:21 2018


         ------------------------------------------------------------
                                   SCF GRAD                          
                          Rob Parrish, Justin Turney,                
                       Andy Simmonett, and Alex Sokolov              
         ------------------------------------------------------------

  ==> Geometry <==

    Molecular point group: c1
    Full point group: C1

    Geometry (in Angstrom), charge = 0, multiplicity = 1:

       Center              X                  Y                   Z               Mass       
    ------------   -----------------  -----------------  -----------------  -----------------
         O            1.013546513374    -0.024008394844     0.058750470870    15.994914619560
         O            2.462826323246    -0.086287285568    -0.007203288580    15.994914619560
         H            0.782685315761    -0.837444259258    -0.424442300706     1.007825032070
         H            2.640529847618     0.650045939670    -0.619320881584     1.007825032070

  Nuclear repulsion =   36.724893551346426

  ==> Basis Set <==

  Basis Set: CC-PVDZ
    Blend: CC-PVDZ
    Number of shells: 18
    Number of basis function: 38
    Number of Cartesian functions: 40
    Spherical Harmonics?: true
    Max angular momentum: 2

  ==> DFJKGrad: Density-Fitted SCF Gradients <==

    Gradient:                    1
    J tasked:                  Yes
    K tasked:                  Yes
    wK tasked:                  No
    OpenMP threads:              1
    Integrals threads:           1
    Memory (MB):              3570
    Schwarz Cutoff:          0E+00
    Fitting Condition:       1E-12

   => Auxiliary Basis Set <=

  Basis Set: (CC-PVDZ AUX)
    Blend: CC-PVDZ-JKFIT
    Number of shells: 66
    Number of basis function: 186
    Number of Cartesian functions: 212
    Spherical Harmonics?: true
    Max angular momentum: 3

  ==> DFT Potential <==

   => Composite Functional: B3LYP-D3ZERO <= 

    B3LYP-d3zero Hyb-GGA Exchange-Correlation Functional

    P. J. Stephens, F. J. Devlin, C. F. Chabalowski, and M. J. Frisch, J. Phys. Chem. 98, 11623 (1994)

    Deriv               =              1
    GGA                 =           TRUE
    Meta                =          FALSE

    Exchange Hybrid     =           TRUE
    MP2 Hybrid          =          FALSE

   => Exchange Functionals <=

    0.0800   Slater exchange
    0.7200         Becke 88

   => Exact (HF) Exchange <=

    0.2000               HF 

   => Correlation Functionals <=

    0.1900   Vosko, Wilk & Nusair (VWN5_RPA)
    0.8100   Lee, Yang & Parr

   => Molecular Quadrature <=

    Radial Scheme       =       TREUTLER
    Pruning Scheme      =           FLAT
    Nuclear Scheme      =       TREUTLER

    BS radius alpha     =              1
    Pruning alpha       =              1
    Radial Points       =             75
    Spherical Points    =            302
    Total Points        =          88336
    Total Blocks        =            712
    Max Points          =            256
    Max Functions       =             38


  -Total Gradient:
     Atom            X                  Y                   Z
    ------   -----------------  -----------------  -----------------
       1       -0.000619407418    -0.000388285427     0.000525278498
       2        0.000664171141     0.000452593900     0.000404557401
       3       -0.000009493700     0.000326889469    -0.000484840963
       4       -0.000034733705    -0.000390419714    -0.000433933329


*** tstop() called on loro.prib.upf.edu at Sat Sep 29 16:38:22 2018
Module time:
	user time   =       0.67 seconds =       0.01 minutes
	system time =       0.02 seconds =       0.00 minutes
	total time  =          1 seconds =       0.02 minutes
Total time:
	user time   =      13.13 seconds =       0.22 minutes
	system time =       0.39 seconds =       0.01 minutes
	total time  =         18 seconds =       0.30 minutes

			-----------------------------------------
			 OPTKING 2.0: for geometry optimizations 
			  - R.A. King,  Bethel University        
			-----------------------------------------
	At level 1: Red. Int., RFO, no backsteps, dynamic trust

	Previous internal coordinate definitions found.
	---Fragment 1 Geometry and Gradient---
	 O           1.9153253332       -0.0453692911        0.1110223001
	 O           4.6540672638       -0.1630593385       -0.0136122427
	 H           1.4790608950       -1.5825403016       -0.8020797075
	 H           4.9898782577        1.2284087998       -1.1703468546
	            -0.0006194074       -0.0003882854        0.0005252785
	             0.0006641711        0.0004525939        0.0004045574
	            -0.0000094937        0.0003268895       -0.0004848410
	            -0.0000347337       -0.0003904197       -0.0004339333

	---Fragment 1 Intrafragment Coordinates---
	 - Coordinate -           - BOHR/RAD -       - ANG/DEG -
	 R(1,2)           =         2.744101	       1.452116
	 R(1,3)           =         1.840374	       0.973884
	 R(2,4)           =         1.840377	       0.973886
	 B(1,2,4)         =         1.749986	     100.266829
	 B(2,1,3)         =         1.749986	     100.266790
	*D(3,1,2,4)       =         1.919862	     109.999997

	Current energy   :      -151.5510763847

	Energy change for the previous step:
		Projected    :        -0.0000146828
		Actual       :        -0.0000075391

	Performing BFGS update.
	Previous computed or guess Hessian on step 1.
	Steps to be used in Hessian update: 3 2
	Taking RFO optimization step.
	Going to follow RFO solution 1.
	Using RFO vector 1.
	Norm of target step-size    0.00251
	Projected energy change by RFO approximation:        -0.0000010851

	Back-transformation to cartesian coordinates...
	Successfully converged to displaced geometry.

	Back-transformation to cartesian coordinates to adjust frozen coordinates...
	Successfully converged to displaced geometry.

	--- Internal Coordinate Step in ANG or DEG, aJ/ANG or AJ/DEG ---
	 ---------------------------------------------------------------------------
	   Coordinate                Previous        Force       Change         New 
	   ----------                --------       ------       ------       ------
	    1 R(1,2)          =      1.452116    -0.005168    -0.001253     1.450863
	    2 R(1,3)          =      0.973884     0.000238     0.000017     0.973901
	    3 R(2,4)          =      0.973886     0.000226     0.000016     0.973901
	    4 B(1,2,4)        =    100.266829    -0.000001     0.033101   100.299930
	    5 B(2,1,3)        =    100.266790    -0.000001     0.033148   100.299939
	    6 *D(3,1,2,4)     =    109.999997     0.000000     0.000000   109.999997
	 ---------------------------------------------------------------------------
	Successfully symmetrized geometry.

  ==> Convergence Check <==

  Measures of convergence in internal coordinates in au.
  Criteria marked as inactive (o), active & met (*), and active & unmet ( ).
  ---------------------------------------------------------------------------------------------
   Step     Total Energy     Delta E     MAX Force     RMS Force      MAX Disp      RMS Disp   
  ---------------------------------------------------------------------------------------------
    Convergence Criteria    1.00e-06 *    3.00e-04 *             o    1.20e-03 *             o
  ---------------------------------------------------------------------------------------------
      4    -151.55107638   -7.54e-06      6.27e-04      2.57e-04 o    2.37e-03      1.02e-03 o  ~
  ---------------------------------------------------------------------------------------------

	Writing optimization data to binary file.
	Structure for next step:
	Cartesian Geometry (in Angstrom)
	    O     1.0141709019  -0.0240395073   0.0586980635
	    O     2.4622001487  -0.0862590628  -0.0071992363
	    H     0.7827614074  -0.8373804281  -0.4244263523
	    H     2.6404555420   0.6499849982  -0.6192884749
			--------------------------
			 OPTKING Finished Execution 
			--------------------------

    Structure for next step:
    Molecular point group: c1
    Full point group: C1

    Geometry (in Angstrom), charge = 0, multiplicity = 1:

    O            1.014170901866    -0.024039507283     0.058698063542
    O            2.462200148727    -0.086259062791    -0.007199236344
    H            0.782761407439    -0.837380428093    -0.424426352327
    H            2.640455541969     0.649984998167    -0.619288474871

gradient() will perform analytic gradient computation.

*** tstart() called on loro.prib.upf.edu
*** at Sat Sep 29 16:38:22 2018

   => Loading Basis Set <=

    Name: CC-PVDZ
    Role: ORBITAL
    Keyword: BASIS
    atoms 1-2 entry O          line   198 file /shared/joao/test_parameterize/miniconda3/share/psi4/basis/cc-pvdz.gbs 
    atoms 3-4 entry H          line    22 file /shared/joao/test_parameterize/miniconda3/share/psi4/basis/cc-pvdz.gbs 


         ---------------------------------------------------------
                                   SCF
            by Justin Turney, Rob Parrish, Andy Simmonett
                             and Daniel Smith
                              RKS Reference
                        1 Threads,   5100 MiB Core
         ---------------------------------------------------------

  ==> Geometry <==

    Molecular point group: c1
    Full point group: C1

    Geometry (in Angstrom), charge = 0, multiplicity = 1:

       Center              X                  Y                   Z               Mass       
    ------------   -----------------  -----------------  -----------------  -----------------
         O            1.014170901866    -0.024039507283     0.058698063542    15.994914619560
         O            2.462200148727    -0.086259062791    -0.007199236344    15.994914619560
         H            0.782761407439    -0.837380428093    -0.424426352327     1.007825032070
         H            2.640455541969     0.649984998167    -0.619288474871     1.007825032070

  Running in c1 symmetry.

  Rotational constants: A =      9.31971  B =      0.13848  C =      0.13778 [cm^-1]
  Rotational constants: A = 279397.78478  B =   4151.44124  C =   4130.53319 [MHz]
  Nuclear repulsion =   36.746440975202297

  Charge       = 0
  Multiplicity = 1
  Electrons    = 18
  Nalpha       = 9
  Nbeta        = 9

  ==> Algorithm <==

  SCF Algorithm Type is DF.
  DIIS enabled.
  MOM disabled.
  Fractional occupation disabled.
  Guess Type is READ.
  Energy threshold   = 1.00e-08
  Density threshold  = 1.00e-08
  Integral threshold = 0.00e+00

  ==> Primary Basis <==

  Basis Set: CC-PVDZ
    Blend: CC-PVDZ
    Number of shells: 18
    Number of basis function: 38
    Number of Cartesian functions: 40
    Spherical Harmonics?: true
    Max angular momentum: 2

  ==> DFT Potential <==

   => Composite Functional: B3LYP-D3ZERO <= 

    B3LYP-d3zero Hyb-GGA Exchange-Correlation Functional

    P. J. Stephens, F. J. Devlin, C. F. Chabalowski, and M. J. Frisch, J. Phys. Chem. 98, 11623 (1994)

    Deriv               =              1
    GGA                 =           TRUE
    Meta                =          FALSE

    Exchange Hybrid     =           TRUE
    MP2 Hybrid          =          FALSE

   => Exchange Functionals <=

    0.0800   Slater exchange
    0.7200         Becke 88

   => Exact (HF) Exchange <=

    0.2000               HF 

   => Correlation Functionals <=

    0.1900   Vosko, Wilk & Nusair (VWN5_RPA)
    0.8100   Lee, Yang & Parr

   => Molecular Quadrature <=

    Radial Scheme       =       TREUTLER
    Pruning Scheme      =           FLAT
    Nuclear Scheme      =       TREUTLER

    BS radius alpha     =              1
    Pruning alpha       =              1
    Radial Points       =             75
    Spherical Points    =            302
    Total Points        =          88336
    Total Blocks        =            711
    Max Points          =            256
    Max Functions       =             38

   => -D3ZERO: Empirical Dispersion <=

    Grimme's -D3 (zero-damping) Dispersion Correction
    Grimme S.; Antony J.; Ehrlich S.; Krieg H. (2010), J. Chem. Phys., 132: 154104

        S6 =   1.000000E+00
        S8 =   1.703000E+00
       SR6 =   1.261000E+00
       SR8 =   1.000000E+00
    ALPHA6 =   1.400000E+01

   => Loading Basis Set <=

    Name: (CC-PVDZ AUX)
    Role: JKFIT
    Keyword: DF_BASIS_SCF
    atoms 1-2 entry O          line   221 file /shared/joao/test_parameterize/miniconda3/share/psi4/basis/cc-pvdz-jkfit.gbs 
    atoms 3-4 entry H          line    51 file /shared/joao/test_parameterize/miniconda3/share/psi4/basis/cc-pvdz-jkfit.gbs 

  Reading orbitals from file 180, no projection.

  ==> Pre-Iterations <==

   -------------------------------------------------------
    Irrep   Nso     Nmo     Nalpha   Nbeta   Ndocc  Nsocc
   -------------------------------------------------------
     A         38      38       0       0       0       0
   -------------------------------------------------------
    Total      38      38       9       9       9       0
   -------------------------------------------------------

  ==> Integral Setup <==

  DFHelper Memory: AOs need 0.003 [GiB]; user supplied 3.486 [GiB]. Using in-core AOs.

  ==> MemDFJK: Density-Fitted J/K Matrices <==

    J tasked:                   Yes
    K tasked:                   Yes
    wK tasked:                   No
    OpenMP threads:               1
    Memory (MB):               3570
    Algorithm:                 Core
    Schwarz Cutoff:           1E-12
    Mask sparsity (%):       0.0000
    Fitting Condition:        1E-12

   => Auxiliary Basis Set <=

  Basis Set: (CC-PVDZ AUX)
    Blend: CC-PVDZ-JKFIT
    Number of shells: 66
    Number of basis function: 186
    Number of Cartesian functions: 212
    Spherical Harmonics?: true
    Max angular momentum: 3

  Minimum eigenvalue in the overlap matrix is 2.5540261120E-02.
  Using Symmetric Orthogonalization.

  SCF Guess: Orbitals guess was supplied from a previous computation.

  ==> Iterations <==

                           Total Energy        Delta E     RMS |[F,P]|

   @DF-RKS iter   0:  -151.55166215613991   -1.51552e+02   6.81923e-05 
   @DF-RKS iter   1:  -151.55107700153613    5.85155e-04   1.53076e-05 
   @DF-RKS iter   2:  -151.55107708550190   -8.39658e-08   7.54104e-06 DIIS
   @DF-RKS iter   3:  -151.55107711198960   -2.64877e-08   8.95542e-07 DIIS
   @DF-RKS iter   4:  -151.55107711240106   -4.11461e-10   1.73887e-07 DIIS
   @DF-RKS iter   5:  -151.55107711241874   -1.76783e-11   2.81853e-08 DIIS
   @DF-RKS iter   6:  -151.55107711241865    8.52651e-14   2.60805e-08 DIIS
   @DF-RKS iter   7:  -151.55107711241902   -3.69482e-13   1.56536e-09 DIIS

  ==> Post-Iterations <==

    Orbital Energies [Eh]
    ---------------------

    Doubly Occupied:                                                      

       1A    -19.187654     2A    -19.187614     3A     -1.109682  
       4A     -0.889094     5A     -0.524202     6A     -0.479136  
       7A     -0.410451     8A     -0.305970     9A     -0.272637  

    Virtual:                                                              

      10A      0.022362    11A      0.051029    12A      0.107359  
      13A      0.574423    14A      0.581620    15A      0.848445  
      16A      0.872668    17A      0.908253    18A      0.948722  
      19A      1.015256    20A      1.053649    21A      1.222336  
      22A      1.262464    23A      1.396626    24A      1.410141  
      25A      1.659634    26A      1.718601    27A      2.077296  
      28A      2.085223    29A      2.404605    30A      2.434404  
      31A      2.529702    32A      2.871353    33A      2.924389  
      34A      3.062918    35A      3.142018    36A      3.498299  
      37A      3.540549    38A      3.814895  

    Final Occupation by Irrep:
              A 
    DOCC [     9 ]

  Energy converged.

  @DF-RKS Final Energy:  -151.55107711241902

   => Energetics <=

    Nuclear Repulsion Energy =             36.7464409752022974
    One-Electron Energy =                -281.4777868814023805
    Two-Electron Energy =                 107.6426769265652723
    DFT Exchange-Correlation Energy =     -14.4620536227841914
    Empirical Dispersion Energy =          -0.0003545100000000
    VV10 Nonlocal Energy =                  0.0000000000000000
    Total Energy =                       -151.5510771124189944



Properties will be evaluated at   0.000000,   0.000000,   0.000000 [a0]

Properties computed using the SCF density matrix

  Nuclear Dipole Moment: [e a0]
     X:    59.0241      Y:    -2.0216      Z:    -1.1938

  Electronic Dipole Moment: [e a0]
     X:   -59.0602      Y:     1.9692      Z:     0.4487

  Dipole Moment: [e a0]
     X:    -0.0362      Y:    -0.0524      Z:    -0.7450     Total:     0.7478

  Dipole Moment: [D]
     X:    -0.0919      Y:    -0.1333      Z:    -1.8937     Total:     1.9006


*** tstop() called on loro.prib.upf.edu at Sat Sep 29 16:38:24 2018
Module time:
	user time   =       1.87 seconds =       0.03 minutes
	system time =       0.05 seconds =       0.00 minutes
	total time  =          2 seconds =       0.03 minutes
Total time:
	user time   =      15.02 seconds =       0.25 minutes
	system time =       0.44 seconds =       0.01 minutes
	total time  =         20 seconds =       0.33 minutes

*** tstart() called on loro.prib.upf.edu
*** at Sat Sep 29 16:38:24 2018


         ------------------------------------------------------------
                                   SCF GRAD                          
                          Rob Parrish, Justin Turney,                
                       Andy Simmonett, and Alex Sokolov              
         ------------------------------------------------------------

  ==> Geometry <==

    Molecular point group: c1
    Full point group: C1

    Geometry (in Angstrom), charge = 0, multiplicity = 1:

       Center              X                  Y                   Z               Mass       
    ------------   -----------------  -----------------  -----------------  -----------------
         O            1.014170901866    -0.024039507283     0.058698063542    15.994914619560
         O            2.462200148727    -0.086259062791    -0.007199236344    15.994914619560
         H            0.782761407439    -0.837380428093    -0.424426352327     1.007825032070
         H            2.640455541969     0.649984998167    -0.619288474871     1.007825032070

  Nuclear repulsion =   36.746440975202297

  ==> Basis Set <==

  Basis Set: CC-PVDZ
    Blend: CC-PVDZ
    Number of shells: 18
    Number of basis function: 38
    Number of Cartesian functions: 40
    Spherical Harmonics?: true
    Max angular momentum: 2

  ==> DFJKGrad: Density-Fitted SCF Gradients <==

    Gradient:                    1
    J tasked:                  Yes
    K tasked:                  Yes
    wK tasked:                  No
    OpenMP threads:              1
    Integrals threads:           1
    Memory (MB):              3570
    Schwarz Cutoff:          0E+00
    Fitting Condition:       1E-12

   => Auxiliary Basis Set <=

  Basis Set: (CC-PVDZ AUX)
    Blend: CC-PVDZ-JKFIT
    Number of shells: 66
    Number of basis function: 186
    Number of Cartesian functions: 212
    Spherical Harmonics?: true
    Max angular momentum: 3

  ==> DFT Potential <==

   => Composite Functional: B3LYP-D3ZERO <= 

    B3LYP-d3zero Hyb-GGA Exchange-Correlation Functional

    P. J. Stephens, F. J. Devlin, C. F. Chabalowski, and M. J. Frisch, J. Phys. Chem. 98, 11623 (1994)

    Deriv               =              1
    GGA                 =           TRUE
    Meta                =          FALSE

    Exchange Hybrid     =           TRUE
    MP2 Hybrid          =          FALSE

   => Exchange Functionals <=

    0.0800   Slater exchange
    0.7200         Becke 88

   => Exact (HF) Exchange <=

    0.2000               HF 

   => Correlation Functionals <=

    0.1900   Vosko, Wilk & Nusair (VWN5_RPA)
    0.8100   Lee, Yang & Parr

   => Molecular Quadrature <=

    Radial Scheme       =       TREUTLER
    Pruning Scheme      =           FLAT
    Nuclear Scheme      =       TREUTLER

    BS radius alpha     =              1
    Pruning alpha       =              1
    Radial Points       =             75
    Spherical Points    =            302
    Total Points        =          88336
    Total Blocks        =            711
    Max Points          =            256
    Max Functions       =             38


  -Total Gradient:
     Atom            X                  Y                   Z
    ------   -----------------  -----------------  -----------------
       1        0.000024445090    -0.000375145399     0.000500731254
       2        0.000021349154     0.000441411907     0.000443560610
       3       -0.000001717112     0.000301145113    -0.000491263647
       4       -0.000043559892    -0.000366661371    -0.000442368224


*** tstop() called on loro.prib.upf.edu at Sat Sep 29 16:38:25 2018
Module time:
	user time   =       0.52 seconds =       0.01 minutes
	system time =       0.02 seconds =       0.00 minutes
	total time  =          1 seconds =       0.02 minutes
Total time:
	user time   =      15.54 seconds =       0.26 minutes
	system time =       0.46 seconds =       0.01 minutes
	total time  =         21 seconds =       0.35 minutes

			-----------------------------------------
			 OPTKING 2.0: for geometry optimizations 
			  - R.A. King,  Bethel University        
			-----------------------------------------
	At level 1: Red. Int., RFO, no backsteps, dynamic trust

	Previous internal coordinate definitions found.
	---Fragment 1 Geometry and Gradient---
	 O           1.9165052565       -0.0454280851        0.1109232646
	 O           4.6528839654       -0.1630060052       -0.0136045851
	 H           1.4792046875       -1.5824196781       -0.8020495695
	 H           4.9897378404        1.2282936370       -1.1702856148
	             0.0000244451       -0.0003751454        0.0005007313
	             0.0000213492        0.0004414119        0.0004435606
	            -0.0000017171        0.0003011451       -0.0004912636
	            -0.0000435599       -0.0003666614       -0.0004423682

	---Fragment 1 Intrafragment Coordinates---
	 - Coordinate -           - BOHR/RAD -       - ANG/DEG -
	 R(1,2)           =         2.741733	       1.450863
	 R(1,3)           =         1.840406	       0.973901
	 R(2,4)           =         1.840407	       0.973901
	 B(1,2,4)         =         1.750564	     100.299930
	 B(2,1,3)         =         1.750564	     100.299939
	*D(3,1,2,4)       =         1.919862	     109.999997

	Current energy   :      -151.5510771124

	Energy change for the previous step:
		Projected    :        -0.0000010851
		Actual       :        -0.0000007277

	Performing BFGS update.
	Previous computed or guess Hessian on step 1.
	Steps to be used in Hessian update: 4 3
	Taking RFO optimization step.
	Going to follow RFO solution 1.
	Using RFO vector 1.
	Norm of target step-size    0.00008
	Projected energy change by RFO approximation:        -0.0000000037

	Back-transformation to cartesian coordinates...
	Successfully converged to displaced geometry.

	Back-transformation to cartesian coordinates to adjust frozen coordinates...
	Successfully converged to displaced geometry.

	--- Internal Coordinate Step in ANG or DEG, aJ/ANG or AJ/DEG ---
	 ---------------------------------------------------------------------------
	   Coordinate                Previous        Force       Change         New 
	   ----------                --------       ------       ------       ------
	    1 R(1,2)          =      1.450863     0.000206     0.000037     1.450899
	    2 R(1,3)          =      0.973901     0.000051     0.000007     0.973908
	    3 R(2,4)          =      0.973901     0.000049     0.000007     0.973908
	    4 B(1,2,4)        =    100.299930     0.000001     0.001700   100.301630
	    5 B(2,1,3)        =    100.299939     0.000001     0.001686   100.301625
	    6 *D(3,1,2,4)     =    109.999997     0.000000     0.000000   109.999997
	 ---------------------------------------------------------------------------
	Successfully symmetrized geometry.

  ==> Convergence Check <==

  Measures of convergence in internal coordinates in au.
  Criteria marked as inactive (o), active & met (*), and active & unmet ( ).
  ---------------------------------------------------------------------------------------------
   Step     Total Energy     Delta E     MAX Force     RMS Force      MAX Disp      RMS Disp   
  ---------------------------------------------------------------------------------------------
    Convergence Criteria    1.00e-06 *    3.00e-04 *             o    1.20e-03 *             o
  ---------------------------------------------------------------------------------------------
      5    -151.55107711   -7.28e-07 *    2.50e-05 *    1.27e-05 o    6.91e-05 *    3.38e-05 o  ~
  ---------------------------------------------------------------------------------------------


  **** Optimization is complete! (in 5 steps) ****

  ==> Optimization Summary <==

  Measures of convergence in internal coordinates in au.
  --------------------------------------------------------------------------------------------------------------- ~
   Step         Total Energy             Delta E       MAX Force       RMS Force        MAX Disp        RMS Disp  ~
  --------------------------------------------------------------------------------------------------------------- ~
      1    -151.550078588579   -151.550078588579      0.01549431      0.00968963      0.09473285      0.05548833  ~
      2    -151.550660201111     -0.000581612532      0.01159958      0.00690646      0.03153863      0.01974518  ~
      3    -151.551068845661     -0.000408644550      0.00212713      0.00086994      0.00550729      0.00237702  ~
      4    -151.551076384739     -0.000007539078      0.00062723      0.00025669      0.00236826      0.00102299  ~
      5    -151.551077112419     -0.000000727680      0.00002504      0.00001271      0.00006909      0.00003377  ~
  --------------------------------------------------------------------------------------------------------------- ~

	Writing optimization data to binary file.
	Final energy is   -151.5510771124190
	Final (previous) structure:
	Cartesian Geometry (in Angstrom)
	    O     1.0141709019  -0.0240395073   0.0586980635
	    O     2.4622001487  -0.0862590628  -0.0071992363
	    H     0.7827614074  -0.8373804281  -0.4244263523
	    H     2.6404555420   0.6499849982  -0.6192884749
	Saving final (previous) structure.
	Removing binary optimization data file.
			--------------------------
			 OPTKING Finished Execution 
			--------------------------

    Final optimized geometry and variables:
    Molecular point group: c1
    Full point group: C1

    Geometry (in Angstrom), charge = 0, multiplicity = 1:

    O            1.014170901866    -0.024039507283     0.058698063542
    O            2.462200148727    -0.086259062791    -0.007199236344
    H            0.782761407439    -0.837380428093    -0.424426352327
    H            2.640455541969     0.649984998167    -0.619288474871

	Removing binary optimization data file.
	Cleaning optimization helper files.


Properties will be evaluated at   0.000000,   0.000000,   0.000000 [a0]
OEProp: No title given, name of density matrix used for the following properties is 'SCF density'
  Nuclear Dipole Moment: [e a0]
     X:    59.0241      Y:    -2.0216      Z:    -1.1938

  Electronic Dipole Moment: [e a0]
     X:   -59.0602      Y:     1.9692      Z:     0.4487

  Dipole Moment: [e a0]
     X:    -0.0362      Y:    -0.0524      Z:    -0.7450     Total:     0.7478

  Dipole Moment: [D]
     X:    -0.0919      Y:    -0.1333      Z:    -1.8937     Total:     1.9006

  Quadrupole Moment: [D A]
    XX:   -11.0758     YY:    -9.6365     ZZ:   -10.9878
    XY:     2.5790     XZ:    -3.4993     YZ:    -0.1242

  Traceless Quadrupole Moment: [D A]
    XX:    -0.5091     YY:     0.9302     ZZ:    -0.4211
    XY:     2.5790     XZ:    -3.4993     YZ:    -0.1242

  Mulliken Charges: (a.u.)
   Center  Symbol    Alpha    Beta     Spin     Total
       1     O     4.08927  4.08927  0.00000 -0.17855
       2     O     4.08927  4.08927  0.00000 -0.17855
       3     H     0.41073  0.41073  0.00000  0.17855
       4     H     0.41073  0.41073  0.00000  0.17855

   Total alpha =  9.00000, Total beta =  9.00000, Total charge = -0.00000


    Psi4 stopped on: Saturday, 29 September 2018 04:38PM
    Psi4 wall time for execution: 0:00:21.01

*** Psi4 exiting successfully. Buy a developer a beer!
