
    -----------------------------------------------------------------------
          Psi4: An Open-Source Ab Initio Electronic Structure Package
                               Psi4 1.2.1 release

                         Git: Rev {HEAD} 406f4de 


    R. M. Parrish, L. A. Burns, D. G. A. Smith, A. C. Simmonett,
    A. E. DePrince III, E. G. Hohenstein, U. Bozkaya, A. Yu. Sokolov,
    R. Di Remigio, R. M. Richard, J. F. Gonthier, A. M. James,
    H. R. McAlexander, A. Kumar, M. Saitow, X. Wang, B. P. Pritchard,
    P. Verma, H. F. Schaefer III, K. Patkowski, R. A. King, E. F. Valeev,
    F. A. Evangelista, J. M. Turney, T. D. Crawford, and C. D. Sherrill,
    J. Chem. Theory Comput. 13(7) pp 3185--3197 (2017).
    (doi: 10.1021/acs.jctc.7b00174)


                         Additional Contributions by
    P. Kraus, H. Kruse, M. H. Lechner, M. C. Schieber, and R. A. Shaw

    -----------------------------------------------------------------------


    Psi4 started on: Saturday, 29 September 2018 05:09PM

    Process ID: 13037
    Host:       loro.prib.upf.edu
    PSIDATADIR: /shared/joao/test_parameterize/miniconda3/share/psi4
    Memory:     500.0 MiB
    Threads:    1
    
  ==> Input File <==

--------------------------------------------------------------------------
set_num_threads(1)
set_memory('5348 MB')

set { scf_mem_safety_factor 0.7 }

set { reference rks }
set { basis cc-pVDZ }

molecule MOL {
    0 1
    noreorient
    nocom
    symmetry c1
    O    1.050400   0.042900  -0.048100
    C    2.474100   0.047400  -0.029000
    C    3.002600  -1.068900  -0.932000
    N    4.299175  -0.735177  -1.519385
    H    0.760400   0.728400   0.578000
    H    2.809900  -0.097900   1.003200
    H    2.817400   1.026800  -0.378600
    H    2.278327  -1.276581  -1.728264
    H    3.092097  -1.993297  -0.350162
    H    4.188536   0.053920  -2.155441
    H    4.608938  -1.517094  -2.096364
}

set optking { frozen_dihedral = (" 1 2 3 4 ") }

energy, wfn = energy('B3LYP-D3', return_wfn=True)

import os
os.chdir(os.environ['HTMD_PSI4_WORKDIR'])

oeprop(wfn, 'DIPOLE', 'QUADRUPOLE', 'MULLIKEN_CHARGES')

with open('psi4out.xyz', 'w') as f:
    f.write('11 ' )
    f.write('%.12f\n' % energy)
    f.write(MOL.save_string_xyz())
--------------------------------------------------------------------------
  Threads set to 1 by Python driver.

  Memory set to   4.981 GiB by Python driver.

*** tstart() called on loro.prib.upf.edu
*** at Sat Sep 29 17:09:10 2018

   => Loading Basis Set <=

    Name: CC-PVDZ
    Role: ORBITAL
    Keyword: BASIS
    atoms 1    entry O          line   198 file /shared/joao/test_parameterize/miniconda3/share/psi4/basis/cc-pvdz.gbs 
    atoms 2-3  entry C          line   138 file /shared/joao/test_parameterize/miniconda3/share/psi4/basis/cc-pvdz.gbs 
    atoms 4    entry N          line   168 file /shared/joao/test_parameterize/miniconda3/share/psi4/basis/cc-pvdz.gbs 
    atoms 5-11 entry H          line    22 file /shared/joao/test_parameterize/miniconda3/share/psi4/basis/cc-pvdz.gbs 


         ---------------------------------------------------------
                                   SCF
            by Justin Turney, Rob Parrish, Andy Simmonett
                             and Daniel Smith
                              RKS Reference
                        1 Threads,   5100 MiB Core
         ---------------------------------------------------------

  ==> Geometry <==

    Molecular point group: c1
    Full point group: C1

    Geometry (in Angstrom), charge = 0, multiplicity = 1:

       Center              X                  Y                   Z               Mass       
    ------------   -----------------  -----------------  -----------------  -----------------
         O            1.050400000000     0.042900000000    -0.048100000000    15.994914619560
         C            2.474100000000     0.047400000000    -0.029000000000    12.000000000000
         C            3.002600000000    -1.068900000000    -0.932000000000    12.000000000000
         N            4.299175000000    -0.735177000000    -1.519385000000    14.003074004780
         H            0.760400000000     0.728400000000     0.578000000000     1.007825032070
         H            2.809900000000    -0.097900000000     1.003200000000     1.007825032070
         H            2.817400000000     1.026800000000    -0.378600000000     1.007825032070
         H            2.278327000000    -1.276581000000    -1.728264000000     1.007825032070
         H            3.092097000000    -1.993297000000    -0.350162000000     1.007825032070
         H            4.188536000000     0.053920000000    -2.155441000000     1.007825032070
         H            4.608938000000    -1.517094000000    -2.096364000000     1.007825032070

  Running in c1 symmetry.

  Rotational constants: A =      0.62220  B =      0.02827  C =      0.02769 [cm^-1]
  Rotational constants: A =  18653.22948  B =    847.54258  C =    830.22549 [MHz]
  Nuclear repulsion =  130.618164873674317

  Charge       = 0
  Multiplicity = 1
  Electrons    = 34
  Nalpha       = 17
  Nbeta        = 17

  ==> Algorithm <==

  SCF Algorithm Type is DF.
  DIIS enabled.
  MOM disabled.
  Fractional occupation disabled.
  Guess Type is SAD.
  Energy threshold   = 1.00e-06
  Density threshold  = 1.00e-06
  Integral threshold = 0.00e+00

  ==> Primary Basis <==

  Basis Set: CC-PVDZ
    Blend: CC-PVDZ
    Number of shells: 45
    Number of basis function: 91
    Number of Cartesian functions: 95
    Spherical Harmonics?: true
    Max angular momentum: 2

  ==> DFT Potential <==

   => Composite Functional: B3LYP-D3ZERO <= 

    B3LYP-d3zero Hyb-GGA Exchange-Correlation Functional

    P. J. Stephens, F. J. Devlin, C. F. Chabalowski, and M. J. Frisch, J. Phys. Chem. 98, 11623 (1994)

    Deriv               =              1
    GGA                 =           TRUE
    Meta                =          FALSE

    Exchange Hybrid     =           TRUE
    MP2 Hybrid          =          FALSE

   => Exchange Functionals <=

    0.0800   Slater exchange
    0.7200         Becke 88

   => Exact (HF) Exchange <=

    0.2000               HF 

   => Correlation Functionals <=

    0.1900   Vosko, Wilk & Nusair (VWN5_RPA)
    0.8100   Lee, Yang & Parr

   => Molecular Quadrature <=

    Radial Scheme       =       TREUTLER
    Pruning Scheme      =           FLAT
    Nuclear Scheme      =       TREUTLER

    BS radius alpha     =              1
    Pruning alpha       =              1
    Radial Points       =             75
    Spherical Points    =            302
    Total Points        =         245089
    Total Blocks        =           1889
    Max Points          =            256
    Max Functions       =             91

   => -D3ZERO: Empirical Dispersion <=

    Grimme's -D3 (zero-damping) Dispersion Correction
    Grimme S.; Antony J.; Ehrlich S.; Krieg H. (2010), J. Chem. Phys., 132: 154104

        S6 =   1.000000E+00
        S8 =   1.703000E+00
       SR6 =   1.261000E+00
       SR8 =   1.000000E+00
    ALPHA6 =   1.400000E+01

   => Loading Basis Set <=

    Name: (CC-PVDZ AUX)
    Role: JKFIT
    Keyword: DF_BASIS_SCF
    atoms 1    entry O          line   221 file /shared/joao/test_parameterize/miniconda3/share/psi4/basis/cc-pvdz-jkfit.gbs 
    atoms 2-3  entry C          line   121 file /shared/joao/test_parameterize/miniconda3/share/psi4/basis/cc-pvdz-jkfit.gbs 
    atoms 4    entry N          line   171 file /shared/joao/test_parameterize/miniconda3/share/psi4/basis/cc-pvdz-jkfit.gbs 
    atoms 5-11 entry H          line    51 file /shared/joao/test_parameterize/miniconda3/share/psi4/basis/cc-pvdz-jkfit.gbs 

  ==> Pre-Iterations <==

   -------------------------------------------------------
    Irrep   Nso     Nmo     Nalpha   Nbeta   Ndocc  Nsocc
   -------------------------------------------------------
     A         91      91       0       0       0       0
   -------------------------------------------------------
    Total      91      91      17      17      17       0
   -------------------------------------------------------

  ==> Integral Setup <==

  DFHelper Memory: AOs need 0.036 [GiB]; user supplied 3.486 [GiB]. Using in-core AOs.

  ==> MemDFJK: Density-Fitted J/K Matrices <==

    J tasked:                   Yes
    K tasked:                   Yes
    wK tasked:                   No
    OpenMP threads:               1
    Memory (MB):               3570
    Algorithm:                 Core
    Schwarz Cutoff:           1E-12
    Mask sparsity (%):       0.3140
    Fitting Condition:        1E-12

   => Auxiliary Basis Set <=

  Basis Set: (CC-PVDZ AUX)
    Blend: CC-PVDZ-JKFIT
    Number of shells: 159
    Number of basis function: 441
    Number of Cartesian functions: 499
    Spherical Harmonics?: true
    Max angular momentum: 3

  Minimum eigenvalue in the overlap matrix is 4.4680642061E-03.
  Using Symmetric Orthogonalization.

  SCF Guess: Superposition of Atomic Densities via on-the-fly atomic UHF.

  ==> Iterations <==

                           Total Energy        Delta E     RMS |[F,P]|

   @DF-RKS iter   0:  -210.89027842199025   -2.10890e+02   3.71468e-02 
   @DF-RKS iter   1:  -210.23212980626738    6.58149e-01   6.64314e-03 
   @DF-RKS iter   2:  -210.11034427619813    1.21786e-01   9.08132e-03 DIIS
   @DF-RKS iter   3:  -210.38755604741388   -2.77212e-01   6.13710e-04 DIIS
   @DF-RKS iter   4:  -210.38841958908071   -8.63542e-04   3.53112e-04 DIIS
   @DF-RKS iter   5:  -210.38886088003233   -4.41291e-04   5.06975e-05 DIIS
   @DF-RKS iter   6:  -210.38886837324659   -7.49321e-06   2.11945e-05 DIIS
   @DF-RKS iter   7:  -210.38887000960540   -1.63636e-06   2.92969e-06 DIIS
   @DF-RKS iter   8:  -210.38887004173029   -3.21249e-08   7.23759e-07 DIIS

  ==> Post-Iterations <==

    Orbital Energies [Eh]
    ---------------------

    Doubly Occupied:                                                      

       1A    -19.126765     2A    -14.303486     3A    -10.223685  
       4A    -10.201128     5A     -1.009361     6A     -0.875699  
       7A     -0.712242     8A     -0.596736     9A     -0.507331  
      10A     -0.488251    11A     -0.443783    12A     -0.421096  
      13A     -0.388421    14A     -0.362914    15A     -0.323929  
      16A     -0.260163    17A     -0.229476  

    Virtual:                                                              

      18A      0.053122    19A      0.059776    20A      0.098010  
      21A      0.115070    22A      0.134133    23A      0.148982  
      24A      0.163596    25A      0.207156    26A      0.245331  
      27A      0.269140    28A      0.442268    29A      0.460600  
      30A      0.488292    31A      0.499066    32A      0.542437  
      33A      0.586451    34A      0.612756    35A      0.618001  
      36A      0.643871    37A      0.653854    38A      0.664905  
      39A      0.682902    40A      0.698446    41A      0.792583  
      42A      0.822987    43A      0.839254    44A      0.924233  
      45A      0.945193    46A      0.991904    47A      1.012653  
      48A      1.058253    49A      1.191697    50A      1.218605  
      51A      1.230264    52A      1.265048    53A      1.334637  
      54A      1.365258    55A      1.422231    56A      1.508680  
      57A      1.517675    58A      1.576919    59A      1.600489  
      60A      1.611486    61A      1.641718    62A      1.667403  
      63A      1.704896    64A      1.746375    65A      1.753004  
      66A      1.798168    67A      1.859100    68A      1.881477  
      69A      1.929485    70A      1.944696    71A      1.988482  
      72A      2.007916    73A      2.028570    74A      2.146533  
      75A      2.162132    76A      2.209088    77A      2.245428  
      78A      2.369152    79A      2.393896    80A      2.445420  
      81A      2.487946    82A      2.527956    83A      2.608461  
      84A      2.676950    85A      2.822756    86A      2.964995  
      87A      3.004885    88A      3.029771    89A      3.124502  
      90A      3.195065    91A      3.691635  

    Final Occupation by Irrep:
              A 
    DOCC [    17 ]

  Energy converged.

  @DF-RKS Final Energy:  -210.38887004173029

   => Energetics <=

    Nuclear Repulsion Energy =            130.6181648736743171
    One-Electron Energy =                -544.1817268453941097
    Two-Electron Energy =                 226.6680622940232013
    DFT Exchange-Correlation Energy =     -23.4885694240337202
    Empirical Dispersion Energy =          -0.0048009400000000
    VV10 Nonlocal Energy =                  0.0000000000000000
    Total Energy =                       -210.3888700417302857



Properties will be evaluated at   0.000000,   0.000000,   0.000000 [a0]

Properties computed using the SCF density matrix

  Nuclear Dipole Moment: [e a0]
     X:   173.6908      Y:   -26.4709      Z:   -41.4117

  Electronic Dipole Moment: [e a0]
     X:  -173.6597      Y:    26.7267      Z:    41.3513

  Dipole Moment: [e a0]
     X:     0.0311      Y:     0.2558      Z:    -0.0604     Total:     0.2647

  Dipole Moment: [D]
     X:     0.0792      Y:     0.6501      Z:    -0.1536     Total:     0.6727


*** tstop() called on loro.prib.upf.edu at Sat Sep 29 17:09:29 2018
Module time:
	user time   =      14.89 seconds =       0.25 minutes
	system time =       0.22 seconds =       0.00 minutes
	total time  =         19 seconds =       0.32 minutes
Total time:
	user time   =      14.89 seconds =       0.25 minutes
	system time =       0.22 seconds =       0.00 minutes
	total time  =         19 seconds =       0.32 minutes


Properties will be evaluated at   0.000000,   0.000000,   0.000000 [a0]
OEProp: No title given, name of density matrix used for the following properties is 'SCF density'
  Nuclear Dipole Moment: [e a0]
     X:   173.6908      Y:   -26.4709      Z:   -41.4117

  Electronic Dipole Moment: [e a0]
     X:  -173.6597      Y:    26.7267      Z:    41.3513

  Dipole Moment: [e a0]
     X:     0.0311      Y:     0.2558      Z:    -0.0604     Total:     0.2647

  Dipole Moment: [D]
     X:     0.0792      Y:     0.6501      Z:    -0.1536     Total:     0.6727

  Quadrupole Moment: [D A]
    XX:   -29.1468     YY:   -22.9433     ZZ:   -21.0420
    XY:    -0.9063     XZ:    -4.0830     YZ:     1.8222

  Traceless Quadrupole Moment: [D A]
    XX:    -4.7694     YY:     1.4340     ZZ:     3.3354
    XY:    -0.9063     XZ:    -4.0830     YZ:     1.8222

  Mulliken Charges: (a.u.)
   Center  Symbol    Alpha    Beta     Spin     Total
       1     O     4.14036  4.14036  0.00000 -0.28071
       2     C     2.92787  2.92787  0.00000  0.14426
       3     C     2.98363  2.98363  0.00000  0.03273
       4     N     3.59558  3.59558  0.00000 -0.19115
       5     H     0.43052  0.43052  0.00000  0.13896
       6     H     0.49830  0.49830  0.00000  0.00339
       7     H     0.50404  0.50404  0.00000 -0.00807
       8     H     0.49890  0.49890  0.00000  0.00220
       9     H     0.49142  0.49142  0.00000  0.01717
      10     H     0.46508  0.46508  0.00000  0.06984
      11     H     0.46431  0.46431  0.00000  0.07138

   Total alpha = 17.00000, Total beta = 17.00000, Total charge = -0.00000


    Psi4 stopped on: Saturday, 29 September 2018 05:09PM
    Psi4 wall time for execution: 0:00:18.85

*** Psi4 exiting successfully. Buy a developer a beer!
