
    -----------------------------------------------------------------------
          Psi4: An Open-Source Ab Initio Electronic Structure Package
                               Psi4 1.2.1 release

                         Git: Rev {HEAD} 406f4de 


    R. M. Parrish, L. A. Burns, D. G. A. Smith, A. C. Simmonett,
    A. E. DePrince III, E. G. Hohenstein, U. Bozkaya, A. Yu. Sokolov,
    R. Di Remigio, R. M. Richard, J. F. Gonthier, A. M. James,
    H. R. McAlexander, A. Kumar, M. Saitow, X. Wang, B. P. Pritchard,
    P. Verma, H. F. Schaefer III, K. Patkowski, R. A. King, E. F. Valeev,
    F. A. Evangelista, J. M. Turney, T. D. Crawford, and C. D. Sherrill,
    J. Chem. Theory Comput. 13(7) pp 3185--3197 (2017).
    (doi: 10.1021/acs.jctc.7b00174)


                         Additional Contributions by
    P. Kraus, H. Kruse, M. H. Lechner, M. C. Schieber, and R. A. Shaw

    -----------------------------------------------------------------------


    Psi4 started on: Saturday, 29 September 2018 08:20PM

    Process ID: 26822
    Host:       arancio.prib.upf.edu
    PSIDATADIR: /shared/joao/test_parameterize/miniconda3/share/psi4
    Memory:     500.0 MiB
    Threads:    1
    
  ==> Input File <==

--------------------------------------------------------------------------
set_num_threads(4)
set_memory('3000 MB')

set { scf_mem_safety_factor 0.7 }

set { reference rks }
set { basis 6-31G* }

molecule MOL {
    1 1
    noreorient
    nocom
    symmetry c1
    C    0.000000   0.000000  -0.170000
    C    0.007000   1.210000   0.523000
    C    0.000000   1.205000   1.904000
    C    0.000000   0.000000   2.592000
    C    0.000000  -1.205000   1.904000
    C   -0.007000  -1.210000   0.523000
    C    0.000000   0.000000  -1.643000
    H   -0.019000   2.146000  -0.006000
    H   -0.011000   2.134000   2.442000
    H    0.000000   0.000000   3.666000
    H    0.011000  -2.134000   2.442000
    H    0.019000  -2.146000  -0.006000
    N   -0.741000  -0.864000  -2.296000
    N    0.741000   0.864000  -2.296000
    H    0.721000   0.947000  -3.291000
    H    1.404000   1.427000  -1.808000
    H   -1.404000  -1.427000  -1.808000
    H   -0.721000  -0.947000  -3.291000
}

set optking { dynamic_level = 1 
 geom_maxiter = 250
 print_trajectory_xyz_file = True }

energy, wfn = optimize('B3LYP-D3', return_wfn=True)

import os
os.chdir(os.environ['HTMD_PSI4_WORKDIR'])

oeprop(wfn, 'DIPOLE', 'QUADRUPOLE', 'MULLIKEN_CHARGES')

with open('psi4out.xyz', 'w') as f:
    f.write('18 ' )
    f.write('%.12f\n' % energy)
    f.write(MOL.save_string_xyz())
--------------------------------------------------------------------------
  Threads set to 4 by Python driver.

  Memory set to   2.794 GiB by Python driver.
gradient() will perform analytic gradient computation.

*** tstart() called on arancio.prib.upf.edu
*** at Sat Sep 29 20:20:12 2018

   => Loading Basis Set <=

    Name: 6-31G*
    Role: ORBITAL
    Keyword: BASIS
    atoms 1-7         entry C          line   111 file /shared/joao/test_parameterize/miniconda3/share/psi4/basis/6-31gs.gbs 
    atoms 8-12, 15-18 entry H          line    44 file /shared/joao/test_parameterize/miniconda3/share/psi4/basis/6-31gs.gbs 
    atoms 13-14       entry N          line   128 file /shared/joao/test_parameterize/miniconda3/share/psi4/basis/6-31gs.gbs 


         ---------------------------------------------------------
                                   SCF
            by Justin Turney, Rob Parrish, Andy Simmonett
                             and Daniel Smith
                              RKS Reference
                        4 Threads,   2861 MiB Core
         ---------------------------------------------------------

  ==> Geometry <==

    Molecular point group: c1
    Full point group: C2

    Geometry (in Angstrom), charge = 1, multiplicity = 1:

       Center              X                  Y                   Z               Mass       
    ------------   -----------------  -----------------  -----------------  -----------------
         C            0.000000000000     0.000000000000    -0.170000000000    12.000000000000
         C            0.007000000000     1.210000000000     0.523000000000    12.000000000000
         C            0.000000000000     1.205000000000     1.904000000000    12.000000000000
         C            0.000000000000     0.000000000000     2.592000000000    12.000000000000
         C            0.000000000000    -1.205000000000     1.904000000000    12.000000000000
         C           -0.007000000000    -1.210000000000     0.523000000000    12.000000000000
         C            0.000000000000     0.000000000000    -1.643000000000    12.000000000000
         H           -0.019000000000     2.146000000000    -0.006000000000     1.007825032070
         H           -0.011000000000     2.134000000000     2.442000000000     1.007825032070
         H            0.000000000000     0.000000000000     3.666000000000     1.007825032070
         H            0.011000000000    -2.134000000000     2.442000000000     1.007825032070
         H            0.019000000000    -2.146000000000    -0.006000000000     1.007825032070
         N           -0.741000000000    -0.864000000000    -2.296000000000    14.003074004780
         N            0.741000000000     0.864000000000    -2.296000000000    14.003074004780
         H            0.721000000000     0.947000000000    -3.291000000000     1.007825032070
         H            1.404000000000     1.427000000000    -1.808000000000     1.007825032070
         H           -1.404000000000    -1.427000000000    -1.808000000000     1.007825032070
         H           -0.721000000000    -0.947000000000    -3.291000000000     1.007825032070

  Running in c1 symmetry.

  Rotational constants: A =      0.12426  B =      0.03981  C =      0.03185 [cm^-1]
  Rotational constants: A =   3725.10382  B =   1193.37082  C =    954.82880 [MHz]
  Nuclear repulsion =  420.120078751939900

  Charge       = 1
  Multiplicity = 1
  Electrons    = 64
  Nalpha       = 32
  Nbeta        = 32

  ==> Algorithm <==

  SCF Algorithm Type is DF.
  DIIS enabled.
  MOM disabled.
  Fractional occupation disabled.
  Guess Type is SAD.
  Energy threshold   = 1.00e-08
  Density threshold  = 1.00e-08
  Integral threshold = 0.00e+00

  ==> Primary Basis <==

  Basis Set: 6-31G*
    Blend: 6-31G*
    Number of shells: 72
    Number of basis function: 153
    Number of Cartesian functions: 153
    Spherical Harmonics?: false
    Max angular momentum: 2

  ==> DFT Potential <==

   => Composite Functional: B3LYP-D3ZERO <= 

    B3LYP-d3zero Hyb-GGA Exchange-Correlation Functional

    P. J. Stephens, F. J. Devlin, C. F. Chabalowski, and M. J. Frisch, J. Phys. Chem. 98, 11623 (1994)

    Deriv               =              1
    GGA                 =           TRUE
    Meta                =          FALSE

    Exchange Hybrid     =           TRUE
    MP2 Hybrid          =          FALSE

   => Exchange Functionals <=

    0.0800   Slater exchange
    0.7200         Becke 88

   => Exact (HF) Exchange <=

    0.2000               HF 

   => Correlation Functionals <=

    0.1900   Vosko, Wilk & Nusair (VWN5_RPA)
    0.8100   Lee, Yang & Parr

   => Molecular Quadrature <=

    Radial Scheme       =       TREUTLER
    Pruning Scheme      =           FLAT
    Nuclear Scheme      =       TREUTLER

    BS radius alpha     =              1
    Pruning alpha       =              1
    Radial Points       =             75
    Spherical Points    =            302
    Total Points        =         396923
    Total Blocks        =           3007
    Max Points          =            256
    Max Functions       =            149

   => -D3ZERO: Empirical Dispersion <=

    Grimme's -D3 (zero-damping) Dispersion Correction
    Grimme S.; Antony J.; Ehrlich S.; Krieg H. (2010), J. Chem. Phys., 132: 154104

        S6 =   1.000000E+00
        S8 =   1.703000E+00
       SR6 =   1.261000E+00
       SR8 =   1.000000E+00
    ALPHA6 =   1.400000E+01

   => Loading Basis Set <=

    Name: (6-31G* AUX)
    Role: JKFIT
    Keyword: DF_BASIS_SCF
    atoms 1-7         entry C          line   121 file /shared/joao/test_parameterize/miniconda3/share/psi4/basis/cc-pvdz-jkfit.gbs 
    atoms 8-12, 15-18 entry H          line    51 file /shared/joao/test_parameterize/miniconda3/share/psi4/basis/cc-pvdz-jkfit.gbs 
    atoms 13-14       entry N          line   171 file /shared/joao/test_parameterize/miniconda3/share/psi4/basis/cc-pvdz-jkfit.gbs 

  ==> Pre-Iterations <==

   -------------------------------------------------------
    Irrep   Nso     Nmo     Nalpha   Nbeta   Ndocc  Nsocc
   -------------------------------------------------------
     A        153     153       0       0       0       0
   -------------------------------------------------------
    Total     153     153      32      32      32       0
   -------------------------------------------------------

  ==> Integral Setup <==

  ==> DiskDFJK: Density-Fitted J/K Matrices <==

    J tasked:                  Yes
    K tasked:                  Yes
    wK tasked:                  No
    OpenMP threads:              4
    Integrals threads:           4
    Memory (MB):              2002
    Algorithm:                Core
    Integral Cache:           NONE
    Schwarz Cutoff:          1E-12
    Fitting Condition:       1E-12

   => Auxiliary Basis Set <=

  Basis Set: (6-31G* AUX)
    Blend: CC-PVDZ-JKFIT
    Number of shells: 297
    Number of basis function: 954
    Number of Cartesian functions: 954
    Spherical Harmonics?: false
    Max angular momentum: 3

  Minimum eigenvalue in the overlap matrix is 4.4624514024E-04.
  Using Symmetric Orthogonalization.

  SCF Guess: Superposition of Atomic Densities via on-the-fly atomic UHF.

  ==> Iterations <==

                           Total Energy        Delta E     RMS |[F,P]|

   @DF-RKS iter   0:  -380.16821040902300   -3.80168e+02   7.09533e-02 
   @DF-RKS iter   1:  -381.05452264890386   -8.86312e-01   1.20576e-02 
   @DF-RKS iter   2:  -380.97576416595342    7.87585e-02   1.34054e-02 DIIS
   @DF-RKS iter   3:  -381.46040938565932   -4.84645e-01   1.62213e-03 DIIS
   @DF-RKS iter   4:  -381.46603687242680   -5.62749e-03   7.44922e-04 DIIS
   @DF-RKS iter   5:  -381.46758982312900   -1.55295e-03   2.63271e-04 DIIS
   @DF-RKS iter   6:  -381.46780199002910   -2.12167e-04   7.54466e-05 DIIS
   @DF-RKS iter   7:  -381.46781852708705   -1.65371e-05   1.76397e-05 DIIS
   @DF-RKS iter   8:  -381.46781931679539   -7.89708e-07   6.46219e-06 DIIS
   @DF-RKS iter   9:  -381.46781942519721   -1.08402e-07   1.30910e-06 DIIS
   @DF-RKS iter  10:  -381.46781943361890   -8.42169e-09   4.18963e-07 DIIS
   @DF-RKS iter  11:  -381.46781943458194   -9.63041e-10   8.99678e-08 DIIS
   @DF-RKS iter  12:  -381.46781943459371   -1.17666e-11   4.79076e-08 DIIS
   @DF-RKS iter  13:  -381.46781943460877   -1.50635e-11   1.18778e-08 DIIS
   @DF-RKS iter  14:  -381.46781943460957   -7.95808e-13   6.23969e-09 DIIS

  ==> Post-Iterations <==

    Orbital Energies [Eh]
    ---------------------

    Doubly Occupied:                                                      

       1A    -14.567597     2A    -14.567589     3A    -10.495441  
       4A    -10.369991     5A    -10.350985     6A    -10.350975  
       7A    -10.337093     8A    -10.335327     9A    -10.335231  
      10A     -1.195653    11A     -1.101543    12A     -1.018995  
      13A     -0.929052    14A     -0.904802    15A     -0.850966  
      16A     -0.793191    17A     -0.778149    18A     -0.748330  
      19A     -0.737070    20A     -0.695586    21A     -0.673233  
      22A     -0.624458    23A     -0.623229    24A     -0.590604  
      25A     -0.580082    26A     -0.575116    27A     -0.521765  
      28A     -0.504565    29A     -0.498239    30A     -0.476848  
      31A     -0.412019    32A     -0.406164  

    Virtual:                                                              

      33A     -0.210791    34A     -0.154583    35A     -0.128726  
      36A     -0.105256    37A     -0.061893    38A     -0.059707  
      39A     -0.035945    40A     -0.029617    41A      0.012116  
      42A      0.023461    43A      0.024770    44A      0.060426  
      45A      0.067954    46A      0.089117    47A      0.134846  
      48A      0.157709    49A      0.160620    50A      0.164313  
      51A      0.203913    52A      0.248056    53A      0.299872  
      54A      0.348099    55A      0.353686    56A      0.387426  
      57A      0.392375    58A      0.396999    59A      0.427023  
      60A      0.427377    61A      0.447495    62A      0.451817  
      63A      0.455900    64A      0.474530    65A      0.474757  
      66A      0.478671    67A      0.485231    68A      0.518129  
      69A      0.526406    70A      0.535338    71A      0.539596  
      72A      0.587589    73A      0.607048    74A      0.656069  
      75A      0.662197    76A      0.689109    77A      0.694818  
      78A      0.712553    79A      0.721798    80A      0.726032  
      81A      0.745482    82A      0.773565    83A      0.781749  
      84A      0.804949    85A      0.816524    86A      0.834504  
      87A      0.856725    88A      0.944535    89A      0.967443  
      90A      0.998888    91A      1.006409    92A      1.035446  
      93A      1.068073    94A      1.081476    95A      1.150442  
      96A      1.175840    97A      1.226524    98A      1.276308  
      99A      1.298210   100A      1.315252   101A      1.321670  
     102A      1.345771   103A      1.359406   104A      1.365861  
     105A      1.437914   106A      1.451031   107A      1.472953  
     108A      1.609941   109A      1.634225   110A      1.663788  
     111A      1.677127   112A      1.755087   113A      1.772471  
     114A      1.814449   115A      1.844657   116A      1.882861  
     117A      1.915712   118A      1.926939   119A      1.975487  
     120A      1.992283   121A      2.005893   122A      2.032225  
     123A      2.048210   124A      2.088995   125A      2.140264  
     126A      2.145397   127A      2.163517   128A      2.234073  
     129A      2.240171   130A      2.279017   131A      2.374304  
     132A      2.380890   133A      2.448239   134A      2.471254  
     135A      2.512973   136A      2.538851   137A      2.578848  
     138A      2.601404   139A      2.621223   140A      2.644216  
     141A      2.752236   142A      2.914338   143A      2.997254  
     144A      3.301382   145A      3.656379   146A      3.667167  
     147A      3.924198   148A      3.958330   149A      3.970472  
     150A      4.060426   151A      4.181169   152A      4.263624  
     153A      4.559945  

    Final Occupation by Irrep:
              A 
    DOCC [    32 ]

  Energy converged.

  @DF-RKS Final Energy:  -381.46781943460957

   => Energetics <=

    Nuclear Repulsion Energy =            420.1200787519399000
    One-Electron Energy =               -1335.2705465446247217
    Two-Electron Energy =                 578.1842367886853253
    DFT Exchange-Correlation Energy =     -44.4896543206100858
    Empirical Dispersion Energy =          -0.0119341100000000
    VV10 Nonlocal Energy =                  0.0000000000000000
    Total Energy =                       -381.4678194346096234



Properties will be evaluated at   0.000000,   0.000000,   0.000000 [a0]

Properties computed using the SCF density matrix

  Nuclear Dipole Moment: [e a0]
     X:    -0.0000      Y:    -0.0000      Z:    -0.0113

  Electronic Dipole Moment: [e a0]
     X:     0.0000      Y:    -0.0000      Z:    -2.3091

  Dipole Moment: [e a0]
     X:     0.0000      Y:    -0.0000      Z:    -2.3204     Total:     2.3204

  Dipole Moment: [D]
     X:     0.0000      Y:    -0.0000      Z:    -5.8979     Total:     5.8979


*** tstop() called on arancio.prib.upf.edu at Sat Sep 29 20:20:34 2018
Module time:
	user time   =      74.06 seconds =       1.23 minutes
	system time =       0.36 seconds =       0.01 minutes
	total time  =         22 seconds =       0.37 minutes
Total time:
	user time   =      74.06 seconds =       1.23 minutes
	system time =       0.36 seconds =       0.01 minutes
	total time  =         22 seconds =       0.37 minutes

*** tstart() called on arancio.prib.upf.edu
*** at Sat Sep 29 20:20:34 2018


         ------------------------------------------------------------
                                   SCF GRAD                          
                          Rob Parrish, Justin Turney,                
                       Andy Simmonett, and Alex Sokolov              
         ------------------------------------------------------------

  ==> Geometry <==

    Molecular point group: c1
    Full point group: C2

    Geometry (in Angstrom), charge = 1, multiplicity = 1:

       Center              X                  Y                   Z               Mass       
    ------------   -----------------  -----------------  -----------------  -----------------
         C            0.000000000000     0.000000000000    -0.170000000000    12.000000000000
         C            0.007000000000     1.210000000000     0.523000000000    12.000000000000
         C            0.000000000000     1.205000000000     1.904000000000    12.000000000000
         C            0.000000000000     0.000000000000     2.592000000000    12.000000000000
         C            0.000000000000    -1.205000000000     1.904000000000    12.000000000000
         C           -0.007000000000    -1.210000000000     0.523000000000    12.000000000000
         C            0.000000000000     0.000000000000    -1.643000000000    12.000000000000
         H           -0.019000000000     2.146000000000    -0.006000000000     1.007825032070
         H           -0.011000000000     2.134000000000     2.442000000000     1.007825032070
         H            0.000000000000     0.000000000000     3.666000000000     1.007825032070
         H            0.011000000000    -2.134000000000     2.442000000000     1.007825032070
         H            0.019000000000    -2.146000000000    -0.006000000000     1.007825032070
         N           -0.741000000000    -0.864000000000    -2.296000000000    14.003074004780
         N            0.741000000000     0.864000000000    -2.296000000000    14.003074004780
         H            0.721000000000     0.947000000000    -3.291000000000     1.007825032070
         H            1.404000000000     1.427000000000    -1.808000000000     1.007825032070
         H           -1.404000000000    -1.427000000000    -1.808000000000     1.007825032070
         H           -0.721000000000    -0.947000000000    -3.291000000000     1.007825032070

  Nuclear repulsion =  420.120078751939900

  ==> Basis Set <==

  Basis Set: 6-31G*
    Blend: 6-31G*
    Number of shells: 72
    Number of basis function: 153
    Number of Cartesian functions: 153
    Spherical Harmonics?: false
    Max angular momentum: 2

  ==> DFJKGrad: Density-Fitted SCF Gradients <==

    Gradient:                    1
    J tasked:                  Yes
    K tasked:                  Yes
    wK tasked:                  No
    OpenMP threads:              4
    Integrals threads:           4
    Memory (MB):              2002
    Schwarz Cutoff:          0E+00
    Fitting Condition:       1E-12

   => Auxiliary Basis Set <=

  Basis Set: (6-31G* AUX)
    Blend: CC-PVDZ-JKFIT
    Number of shells: 297
    Number of basis function: 954
    Number of Cartesian functions: 954
    Spherical Harmonics?: false
    Max angular momentum: 3

  ==> DFT Potential <==

   => Composite Functional: B3LYP-D3ZERO <= 

    B3LYP-d3zero Hyb-GGA Exchange-Correlation Functional

    P. J. Stephens, F. J. Devlin, C. F. Chabalowski, and M. J. Frisch, J. Phys. Chem. 98, 11623 (1994)

    Deriv               =              1
    GGA                 =           TRUE
    Meta                =          FALSE

    Exchange Hybrid     =           TRUE
    MP2 Hybrid          =          FALSE

   => Exchange Functionals <=

    0.0800   Slater exchange
    0.7200         Becke 88

   => Exact (HF) Exchange <=

    0.2000               HF 

   => Correlation Functionals <=

    0.1900   Vosko, Wilk & Nusair (VWN5_RPA)
    0.8100   Lee, Yang & Parr

   => Molecular Quadrature <=

    Radial Scheme       =       TREUTLER
    Pruning Scheme      =           FLAT
    Nuclear Scheme      =       TREUTLER

    BS radius alpha     =              1
    Pruning alpha       =              1
    Radial Points       =             75
    Spherical Points    =            302
    Total Points        =         396923
    Total Blocks        =           3007
    Max Points          =            256
    Max Functions       =            149


  -Total Gradient:
     Atom            X                  Y                   Z
    ------   -----------------  -----------------  -----------------
       1       -0.000000004610    -0.000000023148     0.011471415011
       2       -0.001318064065    -0.003469645443     0.001559875832
       3       -0.000253042476    -0.001090573872    -0.001626764958
       4       -0.000000000127     0.000000020122    -0.002909915876
       5        0.000253042761     0.001090582725    -0.001626743484
       6        0.001318064539     0.003469634127     0.001559833119
       7       -0.000000009508     0.000000011284    -0.019490157048
       8        0.000537981684    -0.006768114609     0.004310384778
       9        0.000145868182    -0.007359611400    -0.004084477669
      10        0.000000000208    -0.000000001351    -0.008552532578
      11       -0.000145867447     0.007359585231    -0.004084462088
      12       -0.000537982166     0.006768121982     0.004310383483
      13        0.002573721380     0.004779872943     0.002517477611
      14       -0.002573719130    -0.004779867717     0.002517469753
      15       -0.000009509076    -0.002056791649     0.013859912536
      16       -0.008957921798    -0.007543456193    -0.006807842352
      17        0.008957931541     0.007543464488    -0.006807848748
      18        0.000009510107     0.002056792483     0.013859919545


*** tstop() called on arancio.prib.upf.edu at Sat Sep 29 20:20:41 2018
Module time:
	user time   =      19.04 seconds =       0.32 minutes
	system time =       0.19 seconds =       0.00 minutes
	total time  =          7 seconds =       0.12 minutes
Total time:
	user time   =      93.15 seconds =       1.55 minutes
	system time =       0.56 seconds =       0.01 minutes
	total time  =         29 seconds =       0.48 minutes

			-----------------------------------------
			 OPTKING 2.0: for geometry optimizations 
			  - R.A. King,  Bethel University        
			-----------------------------------------
	At level 1: Red. Int., RFO, no backsteps, dynamic trust

	Internal coordinates to be generated automatically.
	Detected frag 1 with atoms:  1 2 3 4 5 6 7 8 9 10 11 12 13 14 15 16 17 18
	---Fragment 1 Bond Connectivity---
	 1 : 2 6 7
	 2 : 1 3 8
	 3 : 2 4 9
	 4 : 3 5 10
	 5 : 4 6 11
	 6 : 1 5 12
	 7 : 1 13 14
	 8 : 2
	 9 : 3
	 10 : 4
	 11 : 5
	 12 : 6
	 13 : 7 17 18
	 14 : 7 15 16
	 15 : 14
	 16 : 14
	 17 : 13
	 18 : 13

	---Fragment 1 Geometry and Gradient---
	 C           0.0000000000        0.0000000000       -0.3212534426
	 C           0.0132280829        2.2865686208        0.9883267675
	 C           0.0000000000        2.2771199901        3.5980385570
	 C           0.0000000000        0.0000000000        4.8981701364
	 C           0.0000000000       -2.2771199901        3.5980385570
	 C          -0.0132280829       -2.2865686208        0.9883267675
	 C           0.0000000000        0.0000000000       -3.1048200363
	 H          -0.0359047965        4.0553522812       -0.0113383568
	 H          -0.0207869875        4.0326755676        4.6147112165
	 H           0.0000000000        0.0000000000        6.9277360032
	 H           0.0207869875       -4.0326755676        4.6147112165
	 H           0.0359047965       -4.0553522812       -0.0113383568
	 N          -1.4002870645       -1.6327233788       -4.3388112011
	 N           1.4002870645        1.6327233788       -4.3388112011
	 H           1.3624925418        1.7895706478       -6.2190887033
	 H           2.6531754906        2.6966391916       -3.4166248483
	 H          -2.6531754906       -2.6966391916       -3.4166248483
	 H          -1.3624925418       -1.7895706478       -6.2190887033
	            -0.0000000046       -0.0000000231        0.0114714150
	            -0.0013180641       -0.0034696454        0.0015598758
	            -0.0002530425       -0.0010905739       -0.0016267650
	            -0.0000000001        0.0000000201       -0.0029099159
	             0.0002530428        0.0010905827       -0.0016267435
	             0.0013180645        0.0034696341        0.0015598331
	            -0.0000000095        0.0000000113       -0.0194901570
	             0.0005379817       -0.0067681146        0.0043103848
	             0.0001458682       -0.0073596114       -0.0040844777
	             0.0000000002       -0.0000000014       -0.0085525326
	            -0.0001458674        0.0073595852       -0.0040844621
	            -0.0005379822        0.0067681220        0.0043103835
	             0.0025737214        0.0047798729        0.0025174776
	            -0.0025737191       -0.0047798677        0.0025174698
	            -0.0000095091       -0.0020567916        0.0138599125
	            -0.0089579218       -0.0075434562       -0.0068078424
	             0.0089579315        0.0075434645       -0.0068078487
	             0.0000095101        0.0020567925        0.0138599195

	Previous optimization step data not found.  Starting new optimization.

	---Fragment 1 Intrafragment Coordinates---
	 - Coordinate -           - BOHR/RAD -       - ANG/DEG -
	 R(1,2)           =         2.635066	       1.394417
	 R(1,6)           =         2.635066	       1.394417
	 R(1,7)           =         2.783567	       1.473000
	 R(2,3)           =         2.609762	       1.381027
	 R(2,8)           =         2.032324	       1.075459
	 R(3,4)           =         2.622140	       1.387577
	 R(3,9)           =         2.028800	       1.073595
	 R(4,5)           =         2.622140	       1.387577
	 R(4,10)          =         2.029566	       1.074000
	 R(5,6)           =         2.609762	       1.381027
	 R(5,11)          =         2.028800	       1.073595
	 R(6,12)          =         2.032324	       1.075459
	 R(7,13)          =         2.479783	       1.312245
	 R(7,14)          =         2.479783	       1.312245
	 R(13,17)         =         1.884695	       0.997337
	 R(13,18)         =         1.887187	       0.998656
	 R(14,15)         =         1.887187	       0.998656
	 R(14,16)         =         1.884695	       0.997337
	 B(1,2,3)         =         2.087257	     119.590997
	 B(1,2,8)         =         2.106730	     120.706715
	 B(1,6,5)         =         2.087257	     119.590997
	 B(1,6,12)        =         2.106730	     120.706715
	 B(1,7,13)        =         2.091650	     119.842706
	 B(1,7,14)        =         2.091650	     119.842706
	 B(2,1,6)         =         2.101358	     120.398940
	 B(2,1,7)         =         2.090914	     119.800530
	 B(2,3,4)         =         2.093198	     119.931413
	 B(2,3,9)         =         2.092121	     119.869715
	 B(3,2,8)         =         2.088518	     119.663270
	 B(3,4,5)         =         2.104016	     120.551211
	 B(3,4,10)        =         2.089585	     119.724395
	 B(4,3,9)         =         2.097850	     120.197979
	 B(4,5,6)         =         2.093198	     119.931413
	 B(4,5,11)        =         2.097850	     120.197979
	 B(5,4,10)        =         2.089585	     119.724395
	 B(5,6,12)        =         2.088518	     119.663270
	 B(6,1,7)         =         2.090914	     119.800530
	 B(6,5,11)        =         2.092121	     119.869715
	 B(7,13,17)       =         2.098525	     120.236644
	 B(7,13,18)       =         2.140297	     122.630005
	 B(7,14,15)       =         2.140297	     122.630005
	 B(7,14,16)       =         2.098525	     120.236644
	 B(13,7,14)       =         2.099886	     120.314587
	 B(15,14,16)      =         2.041943	     116.994691
	 B(17,13,18)      =         2.041943	     116.994691
	 D(1,2,3,4)       =         0.011570	       0.662908
	 D(1,2,3,9)       =        -3.124036	    -178.994101
	 D(1,6,5,4)       =         0.011570	       0.662908
	 D(1,6,5,11)      =        -3.124036	    -178.994101
	 D(1,7,13,17)     =         0.159376	       9.131566
	 D(1,7,13,18)     =        -3.059202	    -175.279378
	 D(1,7,14,15)     =        -3.059202	    -175.279378
	 D(1,7,14,16)     =         0.159376	       9.131566
	 D(2,1,6,5)       =        -0.005805	      -0.332590
	 D(2,1,6,12)      =        -3.107613	    -178.053087
	 D(2,1,7,13)      =        -2.438466	    -139.713785
	 D(2,1,7,14)      =         0.703127	      40.286215
	 D(2,3,4,5)       =        -0.005849	      -0.335113
	 D(2,3,4,10)      =         3.135744	     179.664887
	 D(3,2,1,6)       =        -0.005805	      -0.332590
	 D(3,2,1,7)       =         3.135788	     179.667410
	 D(3,4,5,6)       =        -0.005849	      -0.335113
	 D(3,4,5,11)      =         3.129738	     179.320758
	 D(4,3,2,8)       =         3.113797	     178.407437
	 D(4,5,6,12)      =         3.113797	     178.407437
	 D(5,4,3,9)       =         3.129738	     179.320758
	 D(5,6,1,7)       =         3.135788	     179.667410
	 D(6,1,2,8)       =        -3.107613	    -178.053087
	 D(6,1,7,13)      =         0.703127	      40.286215
	 D(6,1,7,14)      =        -2.438466	    -139.713785
	 D(6,5,4,10)      =         3.135744	     179.664887
	 D(7,1,2,8)       =         0.033980	       1.946913
	 D(7,1,6,12)      =         0.033980	       1.946913
	 D(8,2,3,9)       =        -0.021809	      -1.249572
	 D(9,3,4,10)      =        -0.011855	      -0.679242
	 D(10,4,5,11)     =        -0.011855	      -0.679242
	 D(11,5,6,12)     =        -0.021809	      -1.249572
	 D(13,7,14,15)    =         0.082390	       4.720622
	 D(13,7,14,16)    =        -2.982217	    -170.868434
	 D(14,7,13,17)    =        -2.982217	    -170.868434
	 D(14,7,13,18)    =         0.082390	       4.720622

	Current energy   :      -381.4678194346

	Generating empirical Hessian (Schlegel '84) for each fragment.
	Taking RFO optimization step.
	Going to follow RFO solution 1.
	Using RFO vector 1.
	Norm of target step-size    0.13734
	Projected energy change by RFO approximation:        -0.0054638886

	Back-transformation to cartesian coordinates...
	Could not converge backtransformation.
	Using first guess instead.

	--- Internal Coordinate Step in ANG or DEG, aJ/ANG or AJ/DEG ---
	 ---------------------------------------------------------------------------
	   Coordinate                Previous        Force       Change         New 
	   ----------                --------       ------       ------       ------
	    1 R(1,2)          =      1.394417     0.091416     0.012599     1.407016
	    2 R(1,6)          =      1.394417     0.091416     0.012599     1.407016
	    3 R(1,7)          =      1.473000    -0.002815    -0.000503     1.472497
	    4 R(2,3)          =      1.381027     0.094258     0.012239     1.393266
	    5 R(2,8)          =      1.075459     0.066111     0.011482     1.086941
	    6 R(3,4)          =      1.387577     0.088461     0.011901     1.399477
	    7 R(3,9)          =      1.073595     0.069337     0.012003     1.085598
	    8 R(4,5)          =      1.387577     0.088461     0.011901     1.399477
	    9 R(4,10)         =      1.074000     0.070451     0.012137     1.086137
	   10 R(5,6)          =      1.381027     0.094258     0.012239     1.393266
	   11 R(5,11)         =      1.073595     0.069337     0.012003     1.085598
	   12 R(6,12)         =      1.075459     0.066111     0.011482     1.086941
	   13 R(7,13)         =      1.312245     0.170947     0.017355     1.329600
	   14 R(7,14)         =      1.312245     0.170947     0.017355     1.329600
	   15 R(13,17)        =      0.997337     0.111582     0.014969     1.012306
	   16 R(13,18)        =      0.998656     0.115188     0.015384     1.014040
	   17 R(14,15)        =      0.998656     0.115188     0.015384     1.014040
	   18 R(14,16)        =      0.997337     0.111582     0.014969     1.012306
	   19 B(1,2,3)        =    119.590997    -0.000015    -0.054051   119.536945
	   20 B(1,2,8)        =    120.706715    -0.000025    -0.124873   120.581842
	   21 B(1,6,5)        =    119.590997    -0.000015    -0.054048   119.536949
	   22 B(1,6,12)       =    120.706715    -0.000025    -0.124873   120.581842
	   23 B(1,7,13)       =    119.842706    -0.000106    -0.315521   119.527185
	   24 B(1,7,14)       =    119.842706    -0.000106    -0.315523   119.527183
	   25 B(2,1,6)        =    120.398940    -0.000002     0.004190   120.403130
	   26 B(2,1,7)        =    119.800530     0.000001    -0.002090   119.798440
	   27 B(2,3,4)        =    119.931413     0.000034     0.109323   120.040737
	   28 B(2,3,9)        =    119.869715    -0.000029    -0.112474   119.757241
	   29 B(3,2,8)        =    119.663270     0.000040     0.166184   119.829454
	   30 B(3,4,5)        =    120.551211    -0.000036    -0.113811   120.437399
	   31 B(3,4,10)       =    119.724395     0.000018     0.056906   119.781300
	   32 B(4,3,9)        =    120.197979    -0.000005     0.001825   120.199805
	   33 B(4,5,6)        =    119.931413     0.000034     0.109324   120.040737
	   34 B(4,5,11)       =    120.197979    -0.000005     0.001826   120.199805
	   35 B(5,4,10)       =    119.724395     0.000018     0.056906   119.781300
	   36 B(5,6,12)       =    119.663270     0.000040     0.166181   119.829452
	   37 B(6,1,7)        =    119.800530     0.000001    -0.002100   119.798430
	   38 B(6,5,11)       =    119.869715    -0.000029    -0.112475   119.757240
	   39 B(7,13,17)      =    120.236644    -0.000060    -0.243494   119.993150
	   40 B(7,13,18)      =    122.630005     0.000092     0.429630   123.059635
	   41 B(7,14,15)      =    122.630005     0.000092     0.429630   123.059635
	   42 B(7,14,16)      =    120.236644    -0.000060    -0.243494   119.993149
	   43 B(13,7,14)      =    120.314587     0.000212     0.631044   120.945632
	   44 B(15,14,16)     =    116.994691    -0.000030    -0.148233   116.846457
	   45 B(17,13,18)     =    116.994691    -0.000030    -0.148233   116.846457
	   46 D(1,2,3,4)      =      0.662908    -0.000000    -0.063910     0.598998
	   47 D(1,2,3,9)      =   -178.994101     0.000001     0.133771  -178.860330
	   48 D(1,6,5,4)      =      0.662908    -0.000000    -0.063910     0.598998
	   49 D(1,6,5,11)     =   -178.994101     0.000001     0.133769  -178.860332
	   50 D(1,7,13,17)    =      9.131566    -0.000000    -0.009326     9.122240
	   51 D(1,7,13,18)    =   -175.279378     0.000006     0.634542  -174.644836
	   52 D(1,7,14,15)    =   -175.279378     0.000006     0.634550  -174.644829
	   53 D(1,7,14,16)    =      9.131566    -0.000000    -0.009324     9.122242
	   54 D(2,1,6,5)      =     -0.332590     0.000000     0.032602    -0.299988
	   55 D(2,1,6,12)     =   -178.053087     0.000003     0.373920  -177.679167
	   56 D(2,1,7,13)     =   -139.713785    -0.000010    -2.305308  -142.019093
	   57 D(2,1,7,14)     =     40.286215    -0.000010    -2.305312    37.980902
	   58 D(2,3,4,5)      =     -0.335113     0.000000     0.032038    -0.303074
	   59 D(2,3,4,10)     =    179.664887     0.000000     0.032039   179.696927
	   60 D(3,2,1,6)      =     -0.332590     0.000000     0.032602    -0.299988
	   61 D(3,2,1,7)      =    179.667410     0.000000     0.032598   179.700008
	   62 D(3,4,5,6)      =     -0.335113     0.000000     0.032038    -0.303074
	   63 D(3,4,5,11)     =    179.320758    -0.000001    -0.166917   179.153841
	   64 D(4,3,2,8)      =    178.407437    -0.000003    -0.409289   177.998147
	   65 D(4,5,6,12)     =    178.407437    -0.000003    -0.409287   177.998150
	   66 D(5,4,3,9)      =    179.320758    -0.000001    -0.166918   179.153840
	   67 D(5,6,1,7)      =    179.667410     0.000000     0.032606   179.700016
	   68 D(6,1,2,8)      =   -178.053087     0.000003     0.373922  -177.679165
	   69 D(6,1,7,13)     =     40.286215    -0.000010    -2.305312    37.980903
	   70 D(6,1,7,14)     =   -139.713785    -0.000010    -2.305316  -142.019101
	   71 D(6,5,4,10)     =    179.664887     0.000000     0.032038   179.696925
	   72 D(7,1,2,8)      =      1.946913     0.000003     0.373918     2.320832
	   73 D(7,1,6,12)     =      1.946913     0.000003     0.373924     2.320837
	   74 D(8,2,3,9)      =     -1.249572    -0.000002    -0.211609    -1.461181
	   75 D(9,3,4,10)     =     -0.679242    -0.000001    -0.166918    -0.846160
	   76 D(10,4,5,11)    =     -0.679242    -0.000001    -0.166918    -0.846159
	   77 D(11,5,6,12)    =     -1.249572    -0.000002    -0.211608    -1.461180
	   78 D(13,7,14,15)   =      4.720622     0.000006     0.634545     5.355167
	   79 D(13,7,14,16)   =   -170.868434    -0.000000    -0.009328  -170.877762
	   80 D(14,7,13,17)   =   -170.868434    -0.000000    -0.009322  -170.877756
	   81 D(14,7,13,18)   =      4.720622     0.000006     0.634546     5.355168
	 ---------------------------------------------------------------------------
	Successfully symmetrized geometry.

  ==> Convergence Check <==

  Measures of convergence in internal coordinates in au.
  Criteria marked as inactive (o), active & met (*), and active & unmet ( ).
  --------------------------------------------------------------------------------------------- ~
   Step     Total Energy     Delta E     MAX Force     RMS Force      MAX Disp      RMS Disp    ~
  --------------------------------------------------------------------------------------------- ~
    Convergence Criteria    1.00e-06 *    3.00e-04 *             o    1.20e-03 *             o  ~
  --------------------------------------------------------------------------------------------- ~
      1    -381.46781943   -3.81e+02      2.07e-02      5.80e-03 o    4.02e-02      1.53e-02 o  ~
  ---------------------------------------------------------------------------------------------

	Writing optimization data to binary file.
	Structure for next step:
	Cartesian Geometry (in Angstrom)
	    C     0.0000000738   0.0000000741  -0.1783690219
	    C     0.0262923450   1.2206957379   0.5208478547
	    C     0.0198102595   1.2144834799   1.9140845496
	    C    -0.0000000371  -0.0000000342   2.6091919218
	    C    -0.0198102751  -1.2144834649   1.9140844578
	    C    -0.0262922481  -1.2206956076   0.5208478177
	    C     0.0000000455  -0.0000000286  -1.6508658727
	    H     0.0087469444   2.1658161572  -0.0156970558
	    H     0.0212858700   2.1545096365   2.4571045987
	    H    -0.0000000922  -0.0000000810   3.6953287860
	    H    -0.0212859521  -2.1545096398   2.4571043927
	    H    -0.0087468360  -2.1658160170  -0.0156971290
	    N    -0.7314349371  -0.8963552731  -2.3061410110
	    N     0.7314349433   0.8963551893  -2.3061411116
	    H     0.7106377780   0.9963260784  -3.3150265895
	    H     1.3872406765   1.4801717476  -1.8023151343
	    H    -1.3872406897  -1.4801717664  -1.8023149564
	    H    -0.7106378684  -0.9963261882  -3.3150264969
			--------------------------
			 OPTKING Finished Execution 
			--------------------------

    Structure for next step:
    Molecular point group: c1
    Full point group: C1

    Geometry (in Angstrom), charge = 1, multiplicity = 1:

    C            0.000000073802     0.000000074145    -0.178369021868
    C            0.026292344988     1.220695737869     0.520847854747
    C            0.019810259508     1.214483479880     1.914084549646
    C           -0.000000037113    -0.000000034230     2.609191921784
    C           -0.019810275149    -1.214483464937     1.914084457807
    C           -0.026292248140    -1.220695607636     0.520847817666
    C            0.000000045455    -0.000000028639    -1.650865872691
    H            0.008746944437     2.165816157205    -0.015697055763
    H            0.021285870004     2.154509636474     2.457104598671
    H           -0.000000092218    -0.000000081050     3.695328786040
    H           -0.021285952102    -2.154509639794     2.457104392700
    H           -0.008746836045    -2.165816016977    -0.015697129022
    N           -0.731434937099    -0.896355273062    -2.306141011010
    N            0.731434943275     0.896355189323    -2.306141111613
    H            0.710637778004     0.996326078432    -3.315026589482
    H            1.387240676483     1.480171747589    -1.802315134318
    H           -1.387240689664    -1.480171766356    -1.802314956352
    H           -0.710637868426    -0.996326188236    -3.315026496943

gradient() will perform analytic gradient computation.

*** tstart() called on arancio.prib.upf.edu
*** at Sat Sep 29 20:20:41 2018

   => Loading Basis Set <=

    Name: 6-31G*
    Role: ORBITAL
    Keyword: BASIS
    atoms 1-7         entry C          line   111 file /shared/joao/test_parameterize/miniconda3/share/psi4/basis/6-31gs.gbs 
    atoms 8-12, 15-18 entry H          line    44 file /shared/joao/test_parameterize/miniconda3/share/psi4/basis/6-31gs.gbs 
    atoms 13-14       entry N          line   128 file /shared/joao/test_parameterize/miniconda3/share/psi4/basis/6-31gs.gbs 


         ---------------------------------------------------------
                                   SCF
            by Justin Turney, Rob Parrish, Andy Simmonett
                             and Daniel Smith
                              RKS Reference
                        4 Threads,   2861 MiB Core
         ---------------------------------------------------------

  ==> Geometry <==

    Molecular point group: c1
    Full point group: C1

    Geometry (in Angstrom), charge = 1, multiplicity = 1:

       Center              X                  Y                   Z               Mass       
    ------------   -----------------  -----------------  -----------------  -----------------
         C            0.000000073802     0.000000074145    -0.178369021868    12.000000000000
         C            0.026292344988     1.220695737869     0.520847854747    12.000000000000
         C            0.019810259508     1.214483479880     1.914084549646    12.000000000000
         C           -0.000000037113    -0.000000034230     2.609191921784    12.000000000000
         C           -0.019810275149    -1.214483464937     1.914084457807    12.000000000000
         C           -0.026292248140    -1.220695607636     0.520847817666    12.000000000000
         C            0.000000045455    -0.000000028639    -1.650865872691    12.000000000000
         H            0.008746944437     2.165816157205    -0.015697055763     1.007825032070
         H            0.021285870004     2.154509636474     2.457104598671     1.007825032070
         H           -0.000000092218    -0.000000081050     3.695328786040     1.007825032070
         H           -0.021285952102    -2.154509639794     2.457104392700     1.007825032070
         H           -0.008746836045    -2.165816016977    -0.015697129022     1.007825032070
         N           -0.731434937099    -0.896355273062    -2.306141011010    14.003074004780
         N            0.731434943275     0.896355189323    -2.306141111613    14.003074004780
         H            0.710637778004     0.996326078432    -3.315026589482     1.007825032070
         H            1.387240676483     1.480171747589    -1.802315134318     1.007825032070
         H           -1.387240689664    -1.480171766356    -1.802314956352     1.007825032070
         H           -0.710637868426    -0.996326188236    -3.315026496943     1.007825032070

  Running in c1 symmetry.

  Rotational constants: A =      0.12145  B =      0.03952  C =      0.03134 [cm^-1]
  Rotational constants: A =   3641.09035  B =   1184.76987  C =    939.66779 [MHz]
  Nuclear repulsion =  416.670950815475408

  Charge       = 1
  Multiplicity = 1
  Electrons    = 64
  Nalpha       = 32
  Nbeta        = 32

  ==> Algorithm <==

  SCF Algorithm Type is DF.
  DIIS enabled.
  MOM disabled.
  Fractional occupation disabled.
  Guess Type is READ.
  Energy threshold   = 1.00e-08
  Density threshold  = 1.00e-08
  Integral threshold = 0.00e+00

  ==> Primary Basis <==

  Basis Set: 6-31G*
    Blend: 6-31G*
    Number of shells: 72
    Number of basis function: 153
    Number of Cartesian functions: 153
    Spherical Harmonics?: false
    Max angular momentum: 2

  ==> DFT Potential <==

   => Composite Functional: B3LYP-D3ZERO <= 

    B3LYP-d3zero Hyb-GGA Exchange-Correlation Functional

    P. J. Stephens, F. J. Devlin, C. F. Chabalowski, and M. J. Frisch, J. Phys. Chem. 98, 11623 (1994)

    Deriv               =              1
    GGA                 =           TRUE
    Meta                =          FALSE

    Exchange Hybrid     =           TRUE
    MP2 Hybrid          =          FALSE

   => Exchange Functionals <=

    0.0800   Slater exchange
    0.7200         Becke 88

   => Exact (HF) Exchange <=

    0.2000               HF 

   => Correlation Functionals <=

    0.1900   Vosko, Wilk & Nusair (VWN5_RPA)
    0.8100   Lee, Yang & Parr

   => Molecular Quadrature <=

    Radial Scheme       =       TREUTLER
    Pruning Scheme      =           FLAT
    Nuclear Scheme      =       TREUTLER

    BS radius alpha     =              1
    Pruning alpha       =              1
    Radial Points       =             75
    Spherical Points    =            302
    Total Points        =         396964
    Total Blocks        =           3032
    Max Points          =            256
    Max Functions       =            149

   => -D3ZERO: Empirical Dispersion <=

    Grimme's -D3 (zero-damping) Dispersion Correction
    Grimme S.; Antony J.; Ehrlich S.; Krieg H. (2010), J. Chem. Phys., 132: 154104

        S6 =   1.000000E+00
        S8 =   1.703000E+00
       SR6 =   1.261000E+00
       SR8 =   1.000000E+00
    ALPHA6 =   1.400000E+01

   => Loading Basis Set <=

    Name: (6-31G* AUX)
    Role: JKFIT
    Keyword: DF_BASIS_SCF
    atoms 1-7         entry C          line   121 file /shared/joao/test_parameterize/miniconda3/share/psi4/basis/cc-pvdz-jkfit.gbs 
    atoms 8-12, 15-18 entry H          line    51 file /shared/joao/test_parameterize/miniconda3/share/psi4/basis/cc-pvdz-jkfit.gbs 
    atoms 13-14       entry N          line   171 file /shared/joao/test_parameterize/miniconda3/share/psi4/basis/cc-pvdz-jkfit.gbs 

  Reading orbitals from file 180, no projection.

  ==> Pre-Iterations <==

   -------------------------------------------------------
    Irrep   Nso     Nmo     Nalpha   Nbeta   Ndocc  Nsocc
   -------------------------------------------------------
     A        153     153       0       0       0       0
   -------------------------------------------------------
    Total     153     153      32      32      32       0
   -------------------------------------------------------

  ==> Integral Setup <==

  ==> DiskDFJK: Density-Fitted J/K Matrices <==

    J tasked:                  Yes
    K tasked:                  Yes
    wK tasked:                  No
    OpenMP threads:              4
    Integrals threads:           4
    Memory (MB):              2002
    Algorithm:                Core
    Integral Cache:           NONE
    Schwarz Cutoff:          1E-12
    Fitting Condition:       1E-12

   => Auxiliary Basis Set <=

  Basis Set: (6-31G* AUX)
    Blend: CC-PVDZ-JKFIT
    Number of shells: 297
    Number of basis function: 954
    Number of Cartesian functions: 954
    Spherical Harmonics?: false
    Max angular momentum: 3

  Minimum eigenvalue in the overlap matrix is 4.9024468226E-04.
  Using Symmetric Orthogonalization.

  SCF Guess: Orbitals guess was supplied from a previous computation.

  ==> Iterations <==

                           Total Energy        Delta E     RMS |[F,P]|

   @DF-RKS iter   0:  -381.34896458062872   -3.81349e+02   1.36224e-03 
   @DF-RKS iter   1:  -381.46994090981934   -1.20976e-01   3.56781e-04 
   @DF-RKS iter   2:  -381.46965583973042    2.85070e-04   4.74680e-04 DIIS
   @DF-RKS iter   3:  -381.47037290134159   -7.17062e-04   1.15540e-04 DIIS
   @DF-RKS iter   4:  -381.47041364523659   -4.07439e-05   1.71893e-05 DIIS
   @DF-RKS iter   5:  -381.47041467703076   -1.03179e-06   5.28097e-06 DIIS
   @DF-RKS iter   6:  -381.47041476075896   -8.37282e-08   1.52236e-06 DIIS
   @DF-RKS iter   7:  -381.47041476739025   -6.63130e-09   2.16226e-07 DIIS
   @DF-RKS iter   8:  -381.47041476749462   -1.04365e-10   1.25749e-07 DIIS
   @DF-RKS iter   9:  -381.47041476753679   -4.21778e-11   1.44069e-08 DIIS
   @DF-RKS iter  10:  -381.47041476753759   -7.95808e-13   6.13366e-09 DIIS

  ==> Post-Iterations <==

    Orbital Energies [Eh]
    ---------------------

    Doubly Occupied:                                                      

       1A    -14.569026     2A    -14.569019     3A    -10.497992  
       4A    -10.373200     5A    -10.355825     6A    -10.355816  
       7A    -10.342457     8A    -10.340338     9A    -10.340271  
      10A     -1.183725    11A     -1.093069    12A     -1.013229  
      13A     -0.925450    14A     -0.901328    15A     -0.845550  
      16A     -0.785318    17A     -0.773240    18A     -0.742344  
      19A     -0.732148    20A     -0.689421    21A     -0.668022  
      22A     -0.624487    23A     -0.617661    24A     -0.586693  
      25A     -0.578111    26A     -0.572536    27A     -0.517656  
      28A     -0.504695    29A     -0.497872    30A     -0.473535  
      31A     -0.410845    32A     -0.404935  

    Virtual:                                                              

      33A     -0.215167    34A     -0.157524    35A     -0.130126  
      36A     -0.107979    37A     -0.067810    38A     -0.062171  
      39A     -0.038860    40A     -0.035478    41A      0.007385  
      42A      0.019539    43A      0.021037    44A      0.055922  
      45A      0.061944    46A      0.082187    47A      0.126866  
      48A      0.150931    49A      0.155425    50A      0.157471  
      51A      0.199473    52A      0.243049    53A      0.297899  
      54A      0.347494    55A      0.355348    56A      0.380953  
      57A      0.388103    58A      0.397540    59A      0.422342  
      60A      0.422430    61A      0.442765    62A      0.447288  
      63A      0.452903    64A      0.471568    65A      0.472101  
      66A      0.475518    67A      0.485495    68A      0.510993  
      69A      0.528084    70A      0.531671    71A      0.539211  
      72A      0.588174    73A      0.606177    74A      0.655583  
      75A      0.655906    76A      0.682271    77A      0.686884  
      78A      0.704411    79A      0.716543    80A      0.717712  
      81A      0.740407    82A      0.770989    83A      0.775186  
      84A      0.800453    85A      0.810863    86A      0.831094  
      87A      0.849613    88A      0.941814    89A      0.962309  
      90A      0.994650    91A      1.001959    92A      1.027035  
      93A      1.055832    94A      1.073318    95A      1.144484  
      96A      1.170955    97A      1.222569    98A      1.273642  
      99A      1.286085   100A      1.306333   101A      1.320309  
     102A      1.342675   103A      1.360596   104A      1.374654  
     105A      1.442928   106A      1.454215   107A      1.470258  
     108A      1.602759   109A      1.620446   110A      1.655400  
     111A      1.667753   112A      1.736005   113A      1.754858  
     114A      1.792955   115A      1.825044   116A      1.858386  
     117A      1.901753   118A      1.906364   119A      1.957438  
     120A      1.974776   121A      1.996714   122A      2.015650  
     123A      2.043613   124A      2.065512   125A      2.120979  
     126A      2.131624   127A      2.149922   128A      2.217725  
     129A      2.222135   130A      2.264782   131A      2.349133  
     132A      2.367541   133A      2.442311   134A      2.452573  
     135A      2.488055   136A      2.517304   137A      2.549925  
     138A      2.587250   139A      2.601987   140A      2.630062  
     141A      2.736295   142A      2.884612   143A      2.978952  
     144A      3.256287   145A      3.636749   146A      3.658923  
     147A      3.912262   148A      3.947928   149A      3.963876  
     150A      4.055824   151A      4.174832   152A      4.257111  
     153A      4.544960  

    Final Occupation by Irrep:
              A 
    DOCC [    32 ]

  Energy converged.

  @DF-RKS Final Energy:  -381.47041476753759

   => Energetics <=

    Nuclear Repulsion Energy =            416.6709508154754076
    One-Electron Energy =               -1328.5674497543391226
    Two-Electron Energy =                 574.8377839150942918
    DFT Exchange-Correlation Energy =     -44.3997550337681588
    Empirical Dispersion Energy =          -0.0119447100000000
    VV10 Nonlocal Energy =                  0.0000000000000000
    Total Energy =                       -381.4704147675375907



Properties will be evaluated at   0.000000,   0.000000,   0.000000 [a0]

Properties computed using the SCF density matrix

  Nuclear Dipole Moment: [e a0]
     X:     0.0000      Y:     0.0000      Z:    -0.0824

  Electronic Dipole Moment: [e a0]
     X:    -0.0000      Y:    -0.0000      Z:    -2.1988

  Dipole Moment: [e a0]
     X:    -0.0000      Y:     0.0000      Z:    -2.2812     Total:     2.2812

  Dipole Moment: [D]
     X:    -0.0000      Y:     0.0000      Z:    -5.7982     Total:     5.7982


*** tstop() called on arancio.prib.upf.edu at Sat Sep 29 20:20:57 2018
Module time:
	user time   =      56.30 seconds =       0.94 minutes
	system time =       0.24 seconds =       0.00 minutes
	total time  =         16 seconds =       0.27 minutes
Total time:
	user time   =     150.29 seconds =       2.50 minutes
	system time =       0.86 seconds =       0.01 minutes
	total time  =         45 seconds =       0.75 minutes

*** tstart() called on arancio.prib.upf.edu
*** at Sat Sep 29 20:20:57 2018


         ------------------------------------------------------------
                                   SCF GRAD                          
                          Rob Parrish, Justin Turney,                
                       Andy Simmonett, and Alex Sokolov              
         ------------------------------------------------------------

  ==> Geometry <==

    Molecular point group: c1
    Full point group: C1

    Geometry (in Angstrom), charge = 1, multiplicity = 1:

       Center              X                  Y                   Z               Mass       
    ------------   -----------------  -----------------  -----------------  -----------------
         C            0.000000073802     0.000000074145    -0.178369021868    12.000000000000
         C            0.026292344988     1.220695737869     0.520847854747    12.000000000000
         C            0.019810259508     1.214483479880     1.914084549646    12.000000000000
         C           -0.000000037113    -0.000000034230     2.609191921784    12.000000000000
         C           -0.019810275149    -1.214483464937     1.914084457807    12.000000000000
         C           -0.026292248140    -1.220695607636     0.520847817666    12.000000000000
         C            0.000000045455    -0.000000028639    -1.650865872691    12.000000000000
         H            0.008746944437     2.165816157205    -0.015697055763     1.007825032070
         H            0.021285870004     2.154509636474     2.457104598671     1.007825032070
         H           -0.000000092218    -0.000000081050     3.695328786040     1.007825032070
         H           -0.021285952102    -2.154509639794     2.457104392700     1.007825032070
         H           -0.008746836045    -2.165816016977    -0.015697129022     1.007825032070
         N           -0.731434937099    -0.896355273062    -2.306141011010    14.003074004780
         N            0.731434943275     0.896355189323    -2.306141111613    14.003074004780
         H            0.710637778004     0.996326078432    -3.315026589482     1.007825032070
         H            1.387240676483     1.480171747589    -1.802315134318     1.007825032070
         H           -1.387240689664    -1.480171766356    -1.802314956352     1.007825032070
         H           -0.710637868426    -0.996326188236    -3.315026496943     1.007825032070

  Nuclear repulsion =  416.670950815475408

  ==> Basis Set <==

  Basis Set: 6-31G*
    Blend: 6-31G*
    Number of shells: 72
    Number of basis function: 153
    Number of Cartesian functions: 153
    Spherical Harmonics?: false
    Max angular momentum: 2

  ==> DFJKGrad: Density-Fitted SCF Gradients <==

    Gradient:                    1
    J tasked:                  Yes
    K tasked:                  Yes
    wK tasked:                  No
    OpenMP threads:              4
    Integrals threads:           4
    Memory (MB):              2002
    Schwarz Cutoff:          0E+00
    Fitting Condition:       1E-12

   => Auxiliary Basis Set <=

  Basis Set: (6-31G* AUX)
    Blend: CC-PVDZ-JKFIT
    Number of shells: 297
    Number of basis function: 954
    Number of Cartesian functions: 954
    Spherical Harmonics?: false
    Max angular momentum: 3

  ==> DFT Potential <==

   => Composite Functional: B3LYP-D3ZERO <= 

    B3LYP-d3zero Hyb-GGA Exchange-Correlation Functional

    P. J. Stephens, F. J. Devlin, C. F. Chabalowski, and M. J. Frisch, J. Phys. Chem. 98, 11623 (1994)

    Deriv               =              1
    GGA                 =           TRUE
    Meta                =          FALSE

    Exchange Hybrid     =           TRUE
    MP2 Hybrid          =          FALSE

   => Exchange Functionals <=

    0.0800   Slater exchange
    0.7200         Becke 88

   => Exact (HF) Exchange <=

    0.2000               HF 

   => Correlation Functionals <=

    0.1900   Vosko, Wilk & Nusair (VWN5_RPA)
    0.8100   Lee, Yang & Parr

   => Molecular Quadrature <=

    Radial Scheme       =       TREUTLER
    Pruning Scheme      =           FLAT
    Nuclear Scheme      =       TREUTLER

    BS radius alpha     =              1
    Pruning alpha       =              1
    Radial Points       =             75
    Spherical Points    =            302
    Total Points        =         396964
    Total Blocks        =           3032
    Max Points          =            256
    Max Functions       =            149


  -Total Gradient:
     Atom            X                  Y                   Z
    ------   -----------------  -----------------  -----------------
       1       -0.000000002945     0.000000155038     0.002615091711
       2       -0.000587196112     0.000219315698    -0.001604225342
       3       -0.000029140165     0.000711122231     0.000729683306
       4       -0.000000000198    -0.000000019344     0.000882099589
       5        0.000029139805    -0.000711110617     0.000729707282
       6        0.000587195758    -0.000219312208    -0.001604195567
       7        0.000000020109    -0.000000083974    -0.004519172914
       8        0.000366577106     0.000335483871    -0.000254812013
       9       -0.000037748846     0.000261649107     0.000195846340
      10       -0.000000000257    -0.000000002022     0.000361431445
      11        0.000037748147    -0.000261648063     0.000195844477
      12       -0.000366577097    -0.000335540320    -0.000254842304
      13       -0.000767406931    -0.000241896572     0.001821725954
      14        0.000767408906     0.000241898764     0.001821736448
      15        0.000394912176     0.000165962743    -0.000438527300
      16        0.000319326341     0.000864710245    -0.000131053967
      17       -0.000319341562    -0.000864722823    -0.000131044548
      18       -0.000394914253    -0.000165961768    -0.000438538224


*** tstop() called on arancio.prib.upf.edu at Sat Sep 29 20:21:03 2018
Module time:
	user time   =      21.59 seconds =       0.36 minutes
	system time =       0.16 seconds =       0.00 minutes
	total time  =          6 seconds =       0.10 minutes
Total time:
	user time   =     171.94 seconds =       2.87 minutes
	system time =       1.03 seconds =       0.02 minutes
	total time  =         51 seconds =       0.85 minutes

			-----------------------------------------
			 OPTKING 2.0: for geometry optimizations 
			  - R.A. King,  Bethel University        
			-----------------------------------------
	At level 1: Red. Int., RFO, no backsteps, dynamic trust

	Previous internal coordinate definitions found.
	---Fragment 1 Geometry and Gradient---
	 C           0.0000001395        0.0000001401       -0.3370686019
	 C           0.0496853314        2.3067806362        0.9842598024
	 C           0.0374359651        2.2950411699        3.6170955940
	 C          -0.0000000701       -0.0000000647        4.9306581603
	 C          -0.0374359946       -2.2950411416        3.6170954205
	 C          -0.0496851484       -2.3067803900        0.9842597323
	 C           0.0000000859       -0.0000000541       -3.1196843815
	 H           0.0165293295        4.0927993913       -0.0296631365
	 H           0.0402244648        4.0714331636        4.6432547713
	 H          -0.0000001743       -0.0000001532        6.9831593766
	 H          -0.0402246200       -4.0714331699        4.6432543821
	 H          -0.0165291247       -4.0927991263       -0.0296632749
	 N          -1.3822117151       -1.6938659839       -4.3579749346
	 N           1.3822117268        1.6938658256       -4.3579751247
	 H           1.3429107801        1.8827834273       -6.2644923774
	 H           2.6215049590        2.7971192326       -3.4058820090
	 H          -2.6215049839       -2.7971192680       -3.4058816727
	 H          -1.3429109510       -1.8827836348       -6.2644922025
	            -0.0000000029        0.0000001550        0.0026150917
	            -0.0005871961        0.0002193157       -0.0016042253
	            -0.0000291402        0.0007111222        0.0007296833
	            -0.0000000002       -0.0000000193        0.0008820996
	             0.0000291398       -0.0007111106        0.0007297073
	             0.0005871958       -0.0002193122       -0.0016041956
	             0.0000000201       -0.0000000840       -0.0045191729
	             0.0003665771        0.0003354839       -0.0002548120
	            -0.0000377488        0.0002616491        0.0001958463
	            -0.0000000003       -0.0000000020        0.0003614314
	             0.0000377481       -0.0002616481        0.0001958445
	            -0.0003665771       -0.0003355403       -0.0002548423
	            -0.0007674069       -0.0002418966        0.0018217260
	             0.0007674089        0.0002418988        0.0018217364
	             0.0003949122        0.0001659627       -0.0004385273
	             0.0003193263        0.0008647102       -0.0001310540
	            -0.0003193416       -0.0008647228       -0.0001310445
	            -0.0003949143       -0.0001659618       -0.0004385382

	---Fragment 1 Intrafragment Coordinates---
	 - Coordinate -           - BOHR/RAD -       - ANG/DEG -
	 R(1,2)           =         2.658875	       1.407016
	 R(1,6)           =         2.658875	       1.407016
	 R(1,7)           =         2.782616	       1.472497
	 R(2,3)           =         2.632890	       1.393266
	 R(2,8)           =         2.054021	       1.086941
	 R(3,4)           =         2.644629	       1.399477
	 R(3,9)           =         2.051482	       1.085598
	 R(4,5)           =         2.644629	       1.399477
	 R(4,10)          =         2.052501	       1.086137
	 R(5,6)           =         2.632890	       1.393266
	 R(5,11)          =         2.051482	       1.085598
	 R(6,12)          =         2.054021	       1.086941
	 R(7,13)          =         2.512579	       1.329600
	 R(7,14)          =         2.512579	       1.329600
	 R(13,17)         =         1.912981	       1.012306
	 R(13,18)         =         1.916257	       1.014040
	 R(14,15)         =         1.916257	       1.014040
	 R(14,16)         =         1.912981	       1.012306
	 B(1,2,3)         =         2.086313	     119.536945
	 B(1,2,8)         =         2.104550	     120.581842
	 B(1,6,5)         =         2.086313	     119.536949
	 B(1,6,12)        =         2.104550	     120.581842
	 B(1,7,13)        =         2.086143	     119.527185
	 B(1,7,14)        =         2.086143	     119.527183
	 B(2,1,6)         =         2.101431	     120.403130
	 B(2,1,7)         =         2.090877	     119.798440
	 B(2,3,4)         =         2.095106	     120.040737
	 B(2,3,9)         =         2.090158	     119.757241
	 B(3,2,8)         =         2.091419	     119.829454
	 B(3,4,5)         =         2.102029	     120.437399
	 B(3,4,10)        =         2.090578	     119.781300
	 B(4,3,9)         =         2.097882	     120.199805
	 B(4,5,6)         =         2.095106	     120.040737
	 B(4,5,11)        =         2.097882	     120.199805
	 B(5,4,10)        =         2.090578	     119.781300
	 B(5,6,12)        =         2.091418	     119.829452
	 B(6,1,7)         =         2.090877	     119.798430
	 B(6,5,11)        =         2.090158	     119.757240
	 B(7,13,17)       =         2.094276	     119.993150
	 B(7,13,18)       =         2.147796	     123.059635
	 B(7,14,15)       =         2.147796	     123.059635
	 B(7,14,16)       =         2.094276	     119.993149
	 B(13,7,14)       =         2.110899	     120.945632
	 B(15,14,16)      =         2.039355	     116.846457
	 B(17,13,18)      =         2.039355	     116.846457
	 D(1,2,3,4)       =         0.010454	       0.598998
	 D(1,2,3,9)       =        -3.121702	    -178.860330
	 D(1,6,5,4)       =         0.010454	       0.598998
	 D(1,6,5,11)      =        -3.121702	    -178.860332
	 D(1,7,13,17)     =         0.159213	       9.122240
	 D(1,7,13,18)     =        -3.048127	    -174.644836
	 D(1,7,14,15)     =        -3.048127	    -174.644829
	 D(1,7,14,16)     =         0.159213	       9.122242
	 D(2,1,6,5)       =        -0.005236	      -0.299988
	 D(2,1,6,12)      =        -3.101086	    -177.679167
	 D(2,1,7,13)      =        -2.478701	    -142.019093
	 D(2,1,7,14)      =         0.662892	      37.980902
	 D(2,3,4,5)       =        -0.005290	      -0.303074
	 D(2,3,4,10)      =         3.136303	     179.696927
	 D(3,2,1,6)       =        -0.005236	      -0.299988
	 D(3,2,1,7)       =         3.136357	     179.700008
	 D(3,4,5,6)       =        -0.005290	      -0.303074
	 D(3,4,5,11)      =         3.126824	     179.153841
	 D(4,3,2,8)       =         3.106654	     177.998147
	 D(4,5,6,12)      =         3.106654	     177.998150
	 D(5,4,3,9)       =         3.126824	     179.153840
	 D(5,6,1,7)       =         3.136357	     179.700016
	 D(6,1,2,8)       =        -3.101086	    -177.679165
	 D(6,1,7,13)      =         0.662892	      37.980903
	 D(6,1,7,14)      =        -2.478701	    -142.019101
	 D(6,5,4,10)      =         3.136303	     179.696925
	 D(7,1,2,8)       =         0.040506	       2.320832
	 D(7,1,6,12)      =         0.040506	       2.320837
	 D(8,2,3,9)       =        -0.025502	      -1.461181
	 D(9,3,4,10)      =        -0.014768	      -0.846160
	 D(10,4,5,11)     =        -0.014768	      -0.846159
	 D(11,5,6,12)     =        -0.025502	      -1.461180
	 D(13,7,14,15)    =         0.093465	       5.355167
	 D(13,7,14,16)    =        -2.982380	    -170.877762
	 D(14,7,13,17)    =        -2.982379	    -170.877756
	 D(14,7,13,18)    =         0.093465	       5.355168

	Current energy   :      -381.4704147675

	Energy change for the previous step:
		Projected    :        -0.0054638886
		Actual       :        -0.0025953329

	Performing BFGS update.
	Previous computed or guess Hessian on step 1.
	Steps to be used in Hessian update: 1
	Taking RFO optimization step.
	Going to follow RFO solution 1.
	Using RFO vector 1.
	Norm of target step-size    0.04401
	Projected energy change by RFO approximation:         0.0000261090

	Back-transformation to cartesian coordinates...
	Could not converge backtransformation.
	Using first guess instead.

	--- Internal Coordinate Step in ANG or DEG, aJ/ANG or AJ/DEG ---
	 ---------------------------------------------------------------------------
	   Coordinate                Previous        Force       Change         New 
	   ----------                --------       ------       ------       ------
	    1 R(1,2)          =      1.407016    -0.002067    -0.000003     1.407013
	    2 R(1,6)          =      1.407016    -0.002068    -0.000003     1.407013
	    3 R(1,7)          =      1.472497    -0.016526    -0.002837     1.469660
	    4 R(2,3)          =      1.393266    -0.012782    -0.001370     1.391895
	    5 R(2,8)          =      1.086941    -0.003385    -0.000351     1.086591
	    6 R(3,4)          =      1.399477    -0.010113    -0.001124     1.398353
	    7 R(3,9)          =      1.085598    -0.002679    -0.000232     1.085365
	    8 R(4,5)          =      1.399477    -0.010113    -0.001124     1.398353
	    9 R(4,10)         =      1.086137    -0.002988    -0.000279     1.085857
	   10 R(5,6)          =      1.393266    -0.012782    -0.001370     1.391895
	   11 R(5,11)         =      1.085598    -0.002679    -0.000232     1.085365
	   12 R(6,12)         =      1.086941    -0.003386    -0.000351     1.086590
	   13 R(7,13)         =      1.329600    -0.008683    -0.000505     1.329094
	   14 R(7,14)         =      1.329600    -0.008683    -0.000505     1.329094
	   15 R(13,17)        =      1.012306    -0.005282    -0.000392     1.011914
	   16 R(13,18)        =      1.014040    -0.003652    -0.000161     1.013879
	   17 R(14,15)        =      1.014040    -0.003652    -0.000161     1.013879
	   18 R(14,16)        =      1.012306    -0.005281    -0.000392     1.011914
	   19 B(1,2,3)        =    119.536945     0.000017     0.058434   119.595379
	   20 B(1,2,8)        =    120.581842    -0.000005    -0.024386   120.557456
	   21 B(1,6,5)        =    119.536949     0.000017     0.058429   119.595377
	   22 B(1,6,12)       =    120.581842    -0.000005    -0.024383   120.557459
	   23 B(1,7,13)       =    119.527185     0.000121     0.336544   119.863729
	   24 B(1,7,14)       =    119.527183     0.000121     0.336551   119.863734
	   25 B(2,1,6)        =    120.403130    -0.000053    -0.132715   120.270415
	   26 B(2,1,7)        =    119.798440     0.000027     0.066338   119.864778
	   27 B(2,3,4)        =    120.040737     0.000007     0.010524   120.051261
	   28 B(2,3,9)        =    119.757241    -0.000006    -0.020513   119.736727
	   29 B(3,2,8)        =    119.829454    -0.000013    -0.053404   119.776050
	   30 B(3,4,5)        =    120.437399     0.000006    -0.004540   120.432860
	   31 B(3,4,10)       =    119.781300    -0.000003     0.002268   119.783569
	   32 B(4,3,9)        =    120.199805    -0.000000     0.008992   120.208796
	   33 B(4,5,6)        =    120.040737     0.000007     0.010529   120.051265
	   34 B(4,5,11)       =    120.199805    -0.000000     0.008987   120.208793
	   35 B(5,4,10)       =    119.781300    -0.000003     0.002271   119.783572
	   36 B(5,6,12)       =    119.829452    -0.000013    -0.053402   119.776050
	   37 B(6,1,7)        =    119.798430     0.000027     0.066377   119.864807
	   38 B(6,5,11)       =    119.757240    -0.000006    -0.020514   119.736726
	   39 B(7,13,17)      =    119.993150    -0.000039    -0.185860   119.807290
	   40 B(7,13,18)      =    123.059635    -0.000007    -0.028215   123.031420
	   41 B(7,14,15)      =    123.059635    -0.000007    -0.028217   123.031418
	   42 B(7,14,16)      =    119.993149    -0.000039    -0.185859   119.807290
	   43 B(13,7,14)      =    120.945632    -0.000241    -0.673095   120.272537
	   44 B(15,14,16)     =    116.846457     0.000046     0.196665   117.043122
	   45 B(17,13,18)     =    116.846457     0.000046     0.196665   117.043122
	   46 D(1,2,3,4)      =      0.598998    -0.000000    -0.050050     0.548948
	   47 D(1,2,3,9)      =   -178.860330     0.000000     0.060236  -178.800094
	   48 D(1,6,5,4)      =      0.598998    -0.000000    -0.050049     0.548949
	   49 D(1,6,5,11)     =   -178.860332     0.000000     0.060235  -178.800097
	   50 D(1,7,13,17)    =      9.122240     0.000005     0.699413     9.821652
	   51 D(1,7,13,18)    =   -174.644836     0.000003     0.394959  -174.249877
	   52 D(1,7,14,15)    =   -174.644829     0.000003     0.394925  -174.249903
	   53 D(1,7,14,16)    =      9.122242     0.000005     0.699398     9.821640
	   54 D(2,1,6,5)      =     -0.299988     0.000000     0.025087    -0.274901
	   55 D(2,1,6,12)     =   -177.679167     0.000003     0.477582  -177.201585
	   56 D(2,1,7,13)     =   -142.019093    -0.000001    -0.495839  -142.514932
	   57 D(2,1,7,14)     =     37.980902    -0.000001    -0.495818    37.485084
	   58 D(2,3,4,5)      =     -0.303074     0.000000     0.025432    -0.277642
	   59 D(2,3,4,10)     =    179.696927     0.000000     0.025432   179.722359
	   60 D(3,2,1,6)      =     -0.299988     0.000000     0.025086    -0.274902
	   61 D(3,2,1,7)      =    179.700008     0.000000     0.025080   179.725088
	   62 D(3,4,5,6)      =     -0.303074     0.000000     0.025430    -0.277644
	   63 D(3,4,5,11)     =    179.153841    -0.000000    -0.085540   179.068301
	   64 D(4,3,2,8)      =    177.998147    -0.000003    -0.498230   177.499918
	   65 D(4,5,6,12)     =    177.998150    -0.000003    -0.498227   177.499922
	   66 D(5,4,3,9)      =    179.153840    -0.000000    -0.085540   179.068300
	   67 D(5,6,1,7)      =    179.700016     0.000000     0.025093   179.725109
	   68 D(6,1,2,8)      =   -177.679165     0.000003     0.477583  -177.201582
	   69 D(6,1,7,13)     =     37.980903    -0.000001    -0.495845    37.485058
	   70 D(6,1,7,14)     =   -142.019101    -0.000001    -0.495824  -142.514925
	   71 D(6,5,4,10)     =    179.696925     0.000000     0.025430   179.722355
	   72 D(7,1,2,8)      =      2.320832     0.000003     0.477577     2.798408
	   73 D(7,1,6,12)     =      2.320837     0.000003     0.477588     2.798425
	   74 D(8,2,3,9)      =     -1.461181    -0.000002    -0.387943    -1.849124
	   75 D(9,3,4,10)     =     -0.846160    -0.000000    -0.085540    -0.931700
	   76 D(10,4,5,11)    =     -0.846159    -0.000000    -0.085540    -0.931700
	   77 D(11,5,6,12)    =     -1.461180    -0.000002    -0.387943    -1.849123
	   78 D(13,7,14,15)   =      5.355167     0.000003     0.394946     5.750113
	   79 D(13,7,14,16)   =   -170.877762     0.000005     0.699419  -170.178343
	   80 D(14,7,13,17)   =   -170.877756     0.000005     0.699392  -170.178364
	   81 D(14,7,13,18)   =      5.355168     0.000003     0.394939     5.750107
	 ---------------------------------------------------------------------------
	Successfully symmetrized geometry.

  ==> Convergence Check <==

  Measures of convergence in internal coordinates in au.
  Criteria marked as inactive (o), active & met (*), and active & unmet ( ).
  ---------------------------------------------------------------------------------------------
   Step     Total Energy     Delta E     MAX Force     RMS Force      MAX Disp      RMS Disp   
  ---------------------------------------------------------------------------------------------
    Convergence Criteria    1.00e-06 *    3.00e-04 *             o    1.20e-03 *             o
  ---------------------------------------------------------------------------------------------
      2    -381.47041477   -2.60e-03      3.17e-03      6.48e-04 o    1.22e-02      4.90e-03 o  ~
  ---------------------------------------------------------------------------------------------

	Writing optimization data to binary file.
	Structure for next step:
	Cartesian Geometry (in Angstrom)
	    C     0.0000000812  -0.0000001918  -0.1772294881
	    C     0.0302568664   1.2197906502   0.5233996673
	    C     0.0242895532   1.2133987982   1.9152676354
	    C    -0.0000000168   0.0000000182   2.6098648552
	    C    -0.0242895180  -1.2133988248   1.9152677164
	    C    -0.0302567393  -1.2197908961   0.5233997884
	    C    -0.0000000864   0.0000000980  -1.6468891083
	    H     0.0080082470   2.1650706868  -0.0119784038
	    H     0.0278500286   2.1533357884   2.4579678226
	    H    -0.0000000808   0.0000000895   3.6957222777
	    H    -0.0278500689  -2.1533357058   2.4579680090
	    H    -0.0080081433  -2.1650709545  -0.0119780826
	    N    -0.7238884573  -0.8969325260  -2.3086969923
	    N     0.7238883494   0.8969327265  -2.3086969076
	    H     0.6941409706   0.9956733184  -3.3173175364
	    H     1.3849663381   1.4775575547  -1.8088767613
	    H    -1.3849662602  -1.4775575699  -1.8088768672
	    H    -0.6941410635  -0.9956730600  -3.3173176242
			--------------------------
			 OPTKING Finished Execution 
			--------------------------

    Structure for next step:
    Molecular point group: c1
    Full point group: C1

    Geometry (in Angstrom), charge = 1, multiplicity = 1:

    C            0.000000081184    -0.000000191848    -0.177229488070
    C            0.030256866393     1.219790650213     0.523399667252
    C            0.024289553191     1.213398798158     1.915267635395
    C           -0.000000016786     0.000000018184     2.609864855213
    C           -0.024289518014    -1.213398824780     1.915267716436
    C           -0.030256739308    -1.219790896073     0.523399788363
    C           -0.000000086447     0.000000098035    -1.646889108340
    H            0.008008247023     2.165070686768    -0.011978403803
    H            0.027850028639     2.153335788393     2.457967822623
    H           -0.000000080790     0.000000089457     3.695722277652
    H           -0.027850068941    -2.153335705778     2.457968009000
    H           -0.008008143257    -2.165070954506    -0.011978082626
    N           -0.723888457315    -0.896932525982    -2.308696992331
    N            0.723888349404     0.896932726527    -2.308696907650
    H            0.694140970643     0.995673318440    -3.317317536436
    H            1.384966338090     1.477557554727    -1.808876761292
    H           -1.384966260182    -1.477557569885    -1.808876867234
    H           -0.694141063525    -0.995673060048    -3.317317624151

gradient() will perform analytic gradient computation.

*** tstart() called on arancio.prib.upf.edu
*** at Sat Sep 29 20:21:03 2018

   => Loading Basis Set <=

    Name: 6-31G*
    Role: ORBITAL
    Keyword: BASIS
    atoms 1-7         entry C          line   111 file /shared/joao/test_parameterize/miniconda3/share/psi4/basis/6-31gs.gbs 
    atoms 8-12, 15-18 entry H          line    44 file /shared/joao/test_parameterize/miniconda3/share/psi4/basis/6-31gs.gbs 
    atoms 13-14       entry N          line   128 file /shared/joao/test_parameterize/miniconda3/share/psi4/basis/6-31gs.gbs 


         ---------------------------------------------------------
                                   SCF
            by Justin Turney, Rob Parrish, Andy Simmonett
                             and Daniel Smith
                              RKS Reference
                        4 Threads,   2861 MiB Core
         ---------------------------------------------------------

  ==> Geometry <==

    Molecular point group: c1
    Full point group: C1

    Geometry (in Angstrom), charge = 1, multiplicity = 1:

       Center              X                  Y                   Z               Mass       
    ------------   -----------------  -----------------  -----------------  -----------------
         C            0.000000081184    -0.000000191848    -0.177229488070    12.000000000000
         C            0.030256866393     1.219790650213     0.523399667252    12.000000000000
         C            0.024289553191     1.213398798158     1.915267635395    12.000000000000
         C           -0.000000016786     0.000000018184     2.609864855213    12.000000000000
[...]
	            -0.0000083274        0.0000088162        0.0000026259
	            -0.0000000001       -0.0000000044        0.0000103340
	             0.0000083301       -0.0000088081        0.0000026317
	            -0.0000077639       -0.0000017835        0.0000141611
	             0.0000000038       -0.0000000229        0.0000441927
	            -0.0000042424       -0.0000011814        0.0000017976
	             0.0000036239       -0.0000031439       -0.0000043432
	            -0.0000000001        0.0000000019       -0.0000038964
	            -0.0000036240        0.0000031438       -0.0000043372
	             0.0000042463        0.0000011728        0.0000017962
	            -0.0000408633       -0.0000035287       -0.0000380170
	             0.0000408623        0.0000035327       -0.0000380233
	            -0.0000103400       -0.0000025035        0.0000174917
	            -0.0000170706       -0.0000002094       -0.0000012230
	             0.0000170713        0.0000002143       -0.0000012263
	             0.0000103421        0.0000025019        0.0000174968

	---Fragment 1 Intrafragment Coordinates---
	 - Coordinate -           - BOHR/RAD -       - ANG/DEG -
	 R(1,2)           =         2.659795	       1.407503
	 R(1,6)           =         2.659795	       1.407503
	 R(1,7)           =         2.771981	       1.466869
	 R(2,3)           =         2.629180	       1.391302
	 R(2,8)           =         2.052974	       1.086387
	 R(3,4)           =         2.642391	       1.398293
	 R(3,9)           =         2.050622	       1.085142
	 R(4,5)           =         2.642391	       1.398293
	 R(4,10)          =         2.051580	       1.085649
	 R(5,6)           =         2.629180	       1.391302
	 R(5,11)          =         2.050622	       1.085142
	 R(6,12)          =         2.052974	       1.086387
	 R(7,13)          =         2.513452	       1.330061
	 R(7,14)          =         2.513452	       1.330061
	 R(13,17)         =         1.911599	       1.011575
	 R(13,18)         =         1.914850	       1.013295
	 R(14,15)         =         1.914850	       1.013295
	 R(14,16)         =         1.911599	       1.011575
	 B(1,2,3)         =         2.088380	     119.655336
	 B(1,2,8)         =         2.103396	     120.515711
	 B(1,6,5)         =         2.088380	     119.655335
	 B(1,6,12)        =         2.103396	     120.515712
	 B(1,7,13)        =         2.093264	     119.935173
	 B(1,7,14)        =         2.093264	     119.935179
	 B(2,1,6)         =         2.097220	     120.161839
	 B(2,1,7)         =         2.092983	     119.919066
	 B(2,3,4)         =         2.095279	     120.050664
	 B(2,3,9)         =         2.089718	     119.732039
	 B(3,2,8)         =         2.090149	     119.756742
	 B(3,4,5)         =         2.101793	     120.423877
	 B(3,4,10)        =         2.090696	     119.788060
	 B(4,3,9)         =         2.098136	     120.214337
	 B(4,5,6)         =         2.095279	     120.050670
	 B(4,5,11)        =         2.098136	     120.214332
	 B(5,4,10)        =         2.090696	     119.788063
	 B(5,6,12)        =         2.090149	     119.756742
	 B(6,1,7)         =         2.092983	     119.919096
	 B(6,5,11)        =         2.089718	     119.732038
	 B(7,13,17)       =         2.092411	     119.886340
	 B(7,13,18)       =         2.144860	     122.891434
	 B(7,14,15)       =         2.144860	     122.891432
	 B(7,14,16)       =         2.092411	     119.886341
	 B(13,7,14)       =         2.096658	     120.129649
	 B(15,14,16)      =         2.043399	     117.078167
	 B(17,13,18)      =         2.043399	     117.078166
	 D(1,2,3,4)       =         0.007799	       0.446839
	 D(1,2,3,9)       =        -3.122896	    -178.928775
	 D(1,6,5,4)       =         0.007799	       0.446839
	 D(1,6,5,11)      =        -3.122896	    -178.928775
	 D(1,7,13,17)     =         0.187845	      10.762706
	 D(1,7,13,18)     =        -3.032165	    -173.730254
	 D(1,7,14,15)     =        -3.032165	    -173.730262
	 D(1,7,14,16)     =         0.187845	      10.762704
	 D(2,1,6,5)       =        -0.003906	      -0.223811
	 D(2,1,6,12)      =        -3.091438	    -177.126335
	 D(2,1,7,13)      =        -2.505167	    -143.535491
	 D(2,1,7,14)      =         0.636426	      36.464510
	 D(2,3,4,5)       =        -0.003942	      -0.225882
	 D(2,3,4,10)      =         3.137650	     179.774117
	 D(3,2,1,6)       =        -0.003906	      -0.223812
	 D(3,2,1,7)       =         3.137686	     179.776189
	 D(3,4,5,6)       =        -0.003942	      -0.225883
	 D(3,4,5,11)      =         3.126700	     179.146692
	 D(4,3,2,8)       =         3.095745	     177.373116
	 D(4,5,6,12)      =         3.095745	     177.373115
	 D(5,4,3,9)       =         3.126700	     179.146693
	 D(5,6,1,7)       =         3.137686	     179.776187
	 D(6,1,2,8)       =        -3.091438	    -177.126338
	 D(6,1,7,13)      =         0.636426	      36.464511
	 D(6,1,7,14)      =        -2.505167	    -143.535488
	 D(6,5,4,10)      =         3.137650	     179.774117
	 D(7,1,2,8)       =         0.050155	       2.873664
	 D(7,1,6,12)      =         0.050155	       2.873663
	 D(8,2,3,9)       =        -0.034950	      -2.002498
	 D(9,3,4,10)      =        -0.014893	      -0.853307
	 D(10,4,5,11)     =        -0.014893	      -0.853308
	 D(11,5,6,12)     =        -0.034950	      -2.002499
	 D(13,7,14,15)    =         0.109428	       6.269739
	 D(13,7,14,16)    =        -2.953748	    -169.237295
	 D(14,7,13,17)    =        -2.953748	    -169.237296
	 D(14,7,13,18)    =         0.109428	       6.269745

	Current energy   :      -381.4705094606

	Energy change for the previous step:
		Projected    :        -0.0000003359
		Actual       :        -0.0000003572
	Energy ratio indicates good step: Trust radius increased to 3.750e-01.


	Performing BFGS update.
	Previous computed or guess Hessian on step 1.
	Steps to be used in Hessian update: 5 4
	Taking RFO optimization step.
	Going to follow RFO solution 1.
	Using RFO vector 1.
	Norm of target step-size    0.00165
	Projected energy change by RFO approximation:        -0.0000000102

	Back-transformation to cartesian coordinates...
	Successfully converged to displaced geometry.

	--- Internal Coordinate Step in ANG or DEG, aJ/ANG or AJ/DEG ---
	 ---------------------------------------------------------------------------
	   Coordinate                Previous        Force       Change         New 
	   ----------                --------       ------       ------       ------
	    1 R(1,2)          =      1.407503    -0.000135    -0.000020     1.407483
	    2 R(1,6)          =      1.407503    -0.000136    -0.000020     1.407483
	    3 R(1,7)          =      1.466869     0.000073     0.000026     1.466896
	    4 R(2,3)          =      1.391302    -0.000041    -0.000006     1.391296
	    5 R(2,8)          =      1.086387     0.000020     0.000002     1.086389
	    6 R(3,4)          =      1.398293    -0.000023     0.000002     1.398295
	    7 R(3,9)          =      1.085142     0.000035     0.000003     1.085145
	    8 R(4,5)          =      1.398293    -0.000023     0.000002     1.398295
	    9 R(4,10)         =      1.085649     0.000023     0.000002     1.085652
	   10 R(5,6)          =      1.391302    -0.000041    -0.000006     1.391296
	   11 R(5,11)         =      1.085142     0.000035     0.000003     1.085145
	   12 R(6,12)         =      1.086387     0.000020     0.000002     1.086389
	   13 R(7,13)         =      1.330061    -0.000139    -0.000022     1.330039
	   14 R(7,14)         =      1.330061    -0.000139    -0.000022     1.330039
	   15 R(13,17)        =      1.011575     0.000094     0.000009     1.011584
	   16 R(13,18)        =      1.013295     0.000152     0.000021     1.013316
	   17 R(14,15)        =      1.013295     0.000152     0.000021     1.013316
	   18 R(14,16)        =      1.011575     0.000093     0.000009     1.011584
	   19 B(1,2,3)        =    119.655336    -0.000001    -0.002554   119.652782
	   20 B(1,2,8)        =    120.515711     0.000000     0.000539   120.516251
	   21 B(1,6,5)        =    119.655335    -0.000001    -0.002554   119.652780
	   22 B(1,6,12)       =    120.515712     0.000000     0.000539   120.516252
	   23 B(1,7,13)       =    119.935173    -0.000001    -0.002370   119.932803
	   24 B(1,7,14)       =    119.935179    -0.000001    -0.002365   119.932813
	   25 B(2,1,6)        =    120.161839     0.000002     0.004957   120.166795
	   26 B(2,1,7)        =    119.919066    -0.000001    -0.002480   119.916586
	   27 B(2,3,4)        =    120.050664    -0.000000    -0.000710   120.049955
	   28 B(2,3,9)        =    119.732039     0.000000     0.001207   119.733246
	   29 B(3,2,8)        =    119.756742     0.000001     0.002393   119.759136
	   30 B(3,4,5)        =    120.423877     0.000000     0.001599   120.425476
	   31 B(3,4,10)       =    119.788060    -0.000000    -0.000800   119.787260
	   32 B(4,3,9)        =    120.214337    -0.000000    -0.000565   120.213772
	   33 B(4,5,6)        =    120.050670    -0.000000    -0.000708   120.049962
	   34 B(4,5,11)       =    120.214332    -0.000000    -0.000565   120.213767
	   35 B(5,4,10)       =    119.788063    -0.000000    -0.000799   119.787264
	   36 B(5,6,12)       =    119.756742     0.000001     0.002394   119.759136
	   37 B(6,1,7)        =    119.919096    -0.000001    -0.002477   119.916619
	   38 B(6,5,11)       =    119.732038     0.000000     0.001206   119.733244
	   39 B(7,13,17)      =    119.886340     0.000000     0.001101   119.887441
	   40 B(7,13,18)      =    122.891434     0.000001     0.000573   122.892007
	   41 B(7,14,15)      =    122.891432     0.000001     0.000571   122.892003
	   42 B(7,14,16)      =    119.886341     0.000000     0.001102   119.887443
	   43 B(13,7,14)      =    120.129649     0.000002     0.004735   120.134383
	   44 B(15,14,16)     =    117.078167    -0.000001    -0.005319   117.072848
	   45 B(17,13,18)     =    117.078166    -0.000001    -0.005319   117.072847
	   46 D(1,2,3,4)      =      0.446839    -0.000000    -0.002995     0.443844
	   47 D(1,2,3,9)      =   -178.928775     0.000000     0.004061  -178.924714
	   48 D(1,6,5,4)      =      0.446839    -0.000000    -0.002993     0.443847
	   49 D(1,6,5,11)     =   -178.928775     0.000000     0.004059  -178.924716
	   50 D(1,7,13,17)    =     10.762706     0.000000     0.041099    10.803804
	   51 D(1,7,13,18)    =   -173.730254    -0.000000    -0.015529  -173.745783
	   52 D(1,7,14,15)    =   -173.730262    -0.000000    -0.015542  -173.745804
	   53 D(1,7,14,16)    =     10.762704     0.000000     0.041099    10.803803
	   54 D(2,1,6,5)      =     -0.223811     0.000000     0.001492    -0.222318
	   55 D(2,1,6,12)     =   -177.126335    -0.000000    -0.006715  -177.133050
	   56 D(2,1,7,13)     =   -143.535491    -0.000000    -0.008757  -143.544248
	   57 D(2,1,7,14)     =     36.464510    -0.000000    -0.008745    36.455766
	   58 D(2,3,4,5)      =     -0.225882     0.000000     0.001504    -0.224378
	   59 D(2,3,4,10)     =    179.774117     0.000000     0.001507   179.775624
	   60 D(3,2,1,6)      =     -0.223812     0.000000     0.001500    -0.222312
	   61 D(3,2,1,7)      =    179.776189     0.000000     0.001483   179.777672
	   62 D(3,4,5,6)      =     -0.225883     0.000000     0.001507    -0.224376
	   63 D(3,4,5,11)     =    179.146692    -0.000000    -0.005567   179.141125
	   64 D(4,3,2,8)      =    177.373116     0.000000     0.005083   177.378200
	   65 D(4,5,6,12)     =    177.373115     0.000000     0.005096   177.378210
	   66 D(5,4,3,9)      =    179.146693    -0.000000    -0.005575   179.141118
	   67 D(5,6,1,7)      =    179.776187     0.000000     0.001510   179.777698
	   68 D(6,1,2,8)      =   -177.126338    -0.000000    -0.006697  -177.133035
	   69 D(6,1,7,13)     =     36.464511    -0.000000    -0.008775    36.455736
	   70 D(6,1,7,14)     =   -143.535488    -0.000000    -0.008762  -143.544250
	   71 D(6,5,4,10)     =    179.774117     0.000000     0.001505   179.775621
	   72 D(7,1,2,8)      =      2.873664    -0.000000    -0.006715     2.866949
	   73 D(7,1,6,12)     =      2.873663    -0.000000    -0.006697     2.866966
	   74 D(8,2,3,9)      =     -2.002498     0.000000     0.012139    -1.990359
	   75 D(9,3,4,10)     =     -0.853307    -0.000000    -0.005572    -0.858879
	   76 D(10,4,5,11)    =     -0.853308    -0.000000    -0.005570    -0.858878
	   77 D(11,5,6,12)    =     -2.002499     0.000000     0.012148    -1.990352
	   78 D(13,7,14,15)   =      6.269739    -0.000000    -0.015530     6.254209
	   79 D(13,7,14,16)   =   -169.237295     0.000000     0.041111  -169.196183
	   80 D(14,7,13,17)   =   -169.237296     0.000000     0.041086  -169.196209
	   81 D(14,7,13,18)   =      6.269745    -0.000000    -0.015541     6.254204
	 ---------------------------------------------------------------------------
	Successfully symmetrized geometry.

  ==> Convergence Check <==

  Measures of convergence in internal coordinates in au.
  Criteria marked as inactive (o), active & met (*), and active & unmet ( ).
  ---------------------------------------------------------------------------------------------
   Step     Total Energy     Delta E     MAX Force     RMS Force      MAX Disp      RMS Disp   
  ---------------------------------------------------------------------------------------------
    Convergence Criteria    1.00e-06 *    3.00e-04 *             o    1.20e-03 *             o
  ---------------------------------------------------------------------------------------------
      6    -381.47050946   -3.57e-07 *    2.17e-05 *    7.74e-06 o    7.18e-04 *    1.84e-04 o  ~
  ---------------------------------------------------------------------------------------------


  **** Optimization is complete! (in 6 steps) ****

  ==> Optimization Summary <==

  Measures of convergence in internal coordinates in au.
  --------------------------------------------------------------------------------------------------------------- ~
   Step         Total Energy             Delta E       MAX Force       RMS Force        MAX Disp        RMS Disp  ~
  --------------------------------------------------------------------------------------------------------------- ~
      1    -381.467819434610   -381.467819434610      0.02074921      0.00579612      0.04023535      0.01526024  ~
      2    -381.470414767538     -0.002595332928      0.00316820      0.00064827      0.01220716      0.00489550  ~
      3    -381.470490753104     -0.000075985566      0.00122888      0.00020633      0.01947879      0.00530005  ~
      4    -381.470506998567     -0.000016245463      0.00026607      0.00008765      0.00538624      0.00155119  ~
      5    -381.470509103400     -0.000002104833      0.00018675      0.00003825      0.00187779      0.00049576  ~
      6    -381.470509460599     -0.000000357199      0.00002171      0.00000774      0.00071753      0.00018350  ~
  --------------------------------------------------------------------------------------------------------------- ~

	Writing optimization data to binary file.
	Final energy is   -381.4705094605993
	Final (previous) structure:
	Cartesian Geometry (in Angstrom)
	    C    -0.0000000290  -0.0000002386  -0.1778643051
	    C     0.0366777309   1.2193742897   0.5241648171
	    C     0.0317645759   1.2131194599   1.9154440850
	    C     0.0000000222   0.0000000216   2.6101065904
	    C    -0.0317645430  -1.2131194629   1.9154442183
	    C    -0.0366777459  -1.2193745676   0.5241650013
	    C    -0.0000000203   0.0000000100  -1.6447335167
	    H     0.0181703859   2.1647046477  -0.0108535142
	    H     0.0424020281   2.1528949770   2.4578856431
	    H     0.0000000376   0.0000001049   3.6957560443
	    H    -0.0424019676  -2.1528948298   2.4578859136
	    H    -0.0181703862  -2.1647049954  -0.0108531205
	    N    -0.7125898015  -0.9059499061  -2.3084606373
	    N     0.7125897529   0.9059500868  -2.3084604386
	    H     0.6734319714   1.0064696090  -3.3159967640
	    H     1.3771898154   1.4859696296  -1.8133163685
	    H    -1.3771898303  -1.4859695606  -1.8133166779
	    H    -0.6734319963  -1.0064692751  -3.3159969703
	Saving final (previous) structure.
	Removing binary optimization data file.
			--------------------------
			 OPTKING Finished Execution 
			--------------------------

    Final optimized geometry and variables:
    Molecular point group: c1
    Full point group: C1

    Geometry (in Angstrom), charge = 1, multiplicity = 1:

    C           -0.000000029043    -0.000000238620    -0.177864305076
    C            0.036677730867     1.219374289723     0.524164817078
    C            0.031764575878     1.213119459879     1.915444084977
    C            0.000000022226     0.000000021570     2.610106590391
    C           -0.031764542969    -1.213119462937     1.915444218298
    C           -0.036677745873    -1.219374567600     0.524165001259
    C           -0.000000020334     0.000000009972    -1.644733516697
    H            0.018170385855     2.164704647706    -0.010853514199
    H            0.042402028106     2.152894977018     2.457885643149
    H            0.000000037624     0.000000104926     3.695756044284
    H           -0.042401967650    -2.152894829823     2.457885913613
    H           -0.018170386247    -2.164704995371    -0.010853120450
    N           -0.712589801510    -0.905949906098    -2.308460637299
    N            0.712589752852     0.905950086796    -2.308460438601
    H            0.673431971423     1.006469608967    -3.315996764009
    H            1.377189815406     1.485969629591    -1.813316368483
    H           -1.377189830328    -1.485969560602    -1.813316677934
    H           -0.673431996284    -1.006469275097    -3.315996970301

	Removing binary optimization data file.
	Cleaning optimization helper files.


Properties will be evaluated at   0.000000,   0.000000,   0.000000 [a0]
OEProp: No title given, name of density matrix used for the following properties is 'SCF density'
  Nuclear Dipole Moment: [e a0]
     X:    -0.0000      Y:    -0.0000      Z:     0.0248

  Electronic Dipole Moment: [e a0]
     X:     0.0000      Y:     0.0000      Z:    -2.2805

  Dipole Moment: [e a0]
     X:     0.0000      Y:     0.0000      Z:    -2.2557     Total:     2.2557

  Dipole Moment: [D]
     X:     0.0000      Y:     0.0000      Z:    -5.7334     Total:     5.7334

  Quadrupole Moment: [D A]
    XX:   -49.4115     YY:   -37.9829     ZZ:   -13.2492
    XY:     6.4666     XZ:     0.0000     YZ:    -0.0000

  Traceless Quadrupole Moment: [D A]
    XX:   -15.8636     YY:    -4.4351     ZZ:    20.2987
    XY:     6.4666     XZ:     0.0000     YZ:    -0.0000

  Mulliken Charges: (a.u.)
   Center  Symbol    Alpha    Beta     Spin     Total
       1     C     2.95717  2.95717  0.00000  0.08566
       2     C     3.08208  3.08208  0.00000 -0.16415
       3     C     3.06249  3.06249  0.00000 -0.12497
       4     C     3.05148  3.05148  0.00000 -0.10295
       5     C     3.06249  3.06249  0.00000 -0.12497
       6     C     3.08208  3.08208  0.00000 -0.16415
       7     C     2.72193  2.72193  0.00000  0.55615
       8     H     0.41420  0.41420  0.00000  0.17160
       9     H     0.40544  0.40544  0.00000  0.18911
      10     H     0.40389  0.40389  0.00000  0.19223
      11     H     0.40544  0.40544  0.00000  0.18911
      12     H     0.41420  0.41420  0.00000  0.17160
      13     N     3.86323  3.86323  0.00000 -0.72645
      14     N     3.86323  3.86323  0.00000 -0.72645
      15     H     0.30570  0.30570  0.00000  0.38861
      16     H     0.29964  0.29964  0.00000  0.40071
      17     H     0.29964  0.29964  0.00000  0.40071
      18     H     0.30570  0.30570  0.00000  0.38861

   Total alpha = 32.00000, Total beta = 32.00000, Total charge =  1.00000


    Psi4 stopped on: Saturday, 29 September 2018 08:22PM
    Psi4 wall time for execution: 0:02:10.20

*** Psi4 exiting successfully. Buy a developer a beer!
