
    -----------------------------------------------------------------------
          Psi4: An Open-Source Ab Initio Electronic Structure Package
                               Psi4 1.2.1 release

                         Git: Rev {HEAD} 406f4de 


    R. M. Parrish, L. A. Burns, D. G. A. Smith, A. C. Simmonett,
    A. E. DePrince III, E. G. Hohenstein, U. Bozkaya, A. Yu. Sokolov,
    R. Di Remigio, R. M. Richard, J. F. Gonthier, A. M. James,
    H. R. McAlexander, A. Kumar, M. Saitow, X. Wang, B. P. Pritchard,
    P. Verma, H. F. Schaefer III, K. Patkowski, R. A. King, E. F. Valeev,
    F. A. Evangelista, J. M. Turney, T. D. Crawford, and C. D. Sherrill,
    J. Chem. Theory Comput. 13(7) pp 3185--3197 (2017).
    (doi: 10.1021/acs.jctc.7b00174)


                         Additional Contributions by
    P. Kraus, H. Kruse, M. H. Lechner, M. C. Schieber, and R. A. Shaw

    -----------------------------------------------------------------------


    Psi4 started on: Saturday, 29 September 2018 05:09PM

    Process ID: 13190
    Host:       loro.prib.upf.edu
    PSIDATADIR: /shared/joao/test_parameterize/miniconda3/share/psi4
    Memory:     500.0 MiB
    Threads:    1
    
  ==> Input File <==

--------------------------------------------------------------------------
set_num_threads(1)
set_memory('5348 MB')

set { scf_mem_safety_factor 0.7 }

set { reference rks }
set { basis cc-pVDZ }

molecule MOL {
    0 1
    noreorient
    nocom
    symmetry c1
    O    1.050400   0.042900  -0.048100
    C    2.474100   0.047400  -0.029000
    C    3.002600  -1.068900  -0.932000
    N    4.462700  -1.072400  -1.006800
    H    0.760400   0.728400   0.578000
    H    2.809900  -0.097900   1.003200
    H    2.817400   1.026800  -0.378600
    H    2.581000  -0.963300  -1.938400
    H    2.653800  -2.036400  -0.553400
    H    4.753270  -1.431760  -1.915597
    H    4.824894  -1.731281  -0.317639
}

set optking { frozen_dihedral = (" 2 3 4 10 ") }

energy, wfn = energy('B3LYP-D3', return_wfn=True)

import os
os.chdir(os.environ['HTMD_PSI4_WORKDIR'])

oeprop(wfn, 'DIPOLE', 'QUADRUPOLE', 'MULLIKEN_CHARGES')

with open('psi4out.xyz', 'w') as f:
    f.write('11 ' )
    f.write('%.12f\n' % energy)
    f.write(MOL.save_string_xyz())
--------------------------------------------------------------------------
  Threads set to 1 by Python driver.

  Memory set to   4.981 GiB by Python driver.

*** tstart() called on loro.prib.upf.edu
*** at Sat Sep 29 17:09:28 2018

   => Loading Basis Set <=

    Name: CC-PVDZ
    Role: ORBITAL
    Keyword: BASIS
    atoms 1    entry O          line   198 file /shared/joao/test_parameterize/miniconda3/share/psi4/basis/cc-pvdz.gbs 
    atoms 2-3  entry C          line   138 file /shared/joao/test_parameterize/miniconda3/share/psi4/basis/cc-pvdz.gbs 
    atoms 4    entry N          line   168 file /shared/joao/test_parameterize/miniconda3/share/psi4/basis/cc-pvdz.gbs 
    atoms 5-11 entry H          line    22 file /shared/joao/test_parameterize/miniconda3/share/psi4/basis/cc-pvdz.gbs 


         ---------------------------------------------------------
                                   SCF
            by Justin Turney, Rob Parrish, Andy Simmonett
                             and Daniel Smith
                              RKS Reference
                        1 Threads,   5100 MiB Core
         ---------------------------------------------------------

  ==> Geometry <==

    Molecular point group: c1
    Full point group: C1

    Geometry (in Angstrom), charge = 0, multiplicity = 1:

       Center              X                  Y                   Z               Mass       
    ------------   -----------------  -----------------  -----------------  -----------------
         O            1.050400000000     0.042900000000    -0.048100000000    15.994914619560
         C            2.474100000000     0.047400000000    -0.029000000000    12.000000000000
         C            3.002600000000    -1.068900000000    -0.932000000000    12.000000000000
         N            4.462700000000    -1.072400000000    -1.006800000000    14.003074004780
         H            0.760400000000     0.728400000000     0.578000000000     1.007825032070
         H            2.809900000000    -0.097900000000     1.003200000000     1.007825032070
         H            2.817400000000     1.026800000000    -0.378600000000     1.007825032070
         H            2.581000000000    -0.963300000000    -1.938400000000     1.007825032070
         H            2.653800000000    -2.036400000000    -0.553400000000     1.007825032070
         H            4.753270000000    -1.431760000000    -1.915597000000     1.007825032070
         H            4.824894000000    -1.731281000000    -0.317639000000     1.007825032070

  Running in c1 symmetry.

  Rotational constants: A =      0.72113  B =      0.02757  C =      0.02692 [cm^-1]
  Rotational constants: A =  21618.94255  B =    826.55540  C =    807.09239 [MHz]
  Nuclear repulsion =  130.280805849379647

  Charge       = 0
  Multiplicity = 1
  Electrons    = 34
  Nalpha       = 17
  Nbeta        = 17

  ==> Algorithm <==

  SCF Algorithm Type is DF.
  DIIS enabled.
  MOM disabled.
  Fractional occupation disabled.
  Guess Type is SAD.
  Energy threshold   = 1.00e-06
  Density threshold  = 1.00e-06
  Integral threshold = 0.00e+00

  ==> Primary Basis <==

  Basis Set: CC-PVDZ
    Blend: CC-PVDZ
    Number of shells: 45
    Number of basis function: 91
    Number of Cartesian functions: 95
    Spherical Harmonics?: true
    Max angular momentum: 2

  ==> DFT Potential <==

   => Composite Functional: B3LYP-D3ZERO <= 

    B3LYP-d3zero Hyb-GGA Exchange-Correlation Functional

    P. J. Stephens, F. J. Devlin, C. F. Chabalowski, and M. J. Frisch, J. Phys. Chem. 98, 11623 (1994)

    Deriv               =              1
    GGA                 =           TRUE
    Meta                =          FALSE

    Exchange Hybrid     =           TRUE
    MP2 Hybrid          =          FALSE

   => Exchange Functionals <=

    0.0800   Slater exchange
    0.7200         Becke 88

   => Exact (HF) Exchange <=

    0.2000               HF 

   => Correlation Functionals <=

    0.1900   Vosko, Wilk & Nusair (VWN5_RPA)
    0.8100   Lee, Yang & Parr

   => Molecular Quadrature <=

    Radial Scheme       =       TREUTLER
    Pruning Scheme      =           FLAT
    Nuclear Scheme      =       TREUTLER

    BS radius alpha     =              1
    Pruning alpha       =              1
    Radial Points       =             75
    Spherical Points    =            302
    Total Points        =         245098
    Total Blocks        =           1884
    Max Points          =            256
    Max Functions       =             91

   => -D3ZERO: Empirical Dispersion <=

    Grimme's -D3 (zero-damping) Dispersion Correction
    Grimme S.; Antony J.; Ehrlich S.; Krieg H. (2010), J. Chem. Phys., 132: 154104

        S6 =   1.000000E+00
        S8 =   1.703000E+00
       SR6 =   1.261000E+00
       SR8 =   1.000000E+00
    ALPHA6 =   1.400000E+01

   => Loading Basis Set <=

    Name: (CC-PVDZ AUX)
    Role: JKFIT
    Keyword: DF_BASIS_SCF
    atoms 1    entry O          line   221 file /shared/joao/test_parameterize/miniconda3/share/psi4/basis/cc-pvdz-jkfit.gbs 
    atoms 2-3  entry C          line   121 file /shared/joao/test_parameterize/miniconda3/share/psi4/basis/cc-pvdz-jkfit.gbs 
    atoms 4    entry N          line   171 file /shared/joao/test_parameterize/miniconda3/share/psi4/basis/cc-pvdz-jkfit.gbs 
    atoms 5-11 entry H          line    51 file /shared/joao/test_parameterize/miniconda3/share/psi4/basis/cc-pvdz-jkfit.gbs 

  ==> Pre-Iterations <==

   -------------------------------------------------------
    Irrep   Nso     Nmo     Nalpha   Nbeta   Ndocc  Nsocc
   -------------------------------------------------------
     A         91      91       0       0       0       0
   -------------------------------------------------------
    Total      91      91      17      17      17       0
   -------------------------------------------------------

  ==> Integral Setup <==

  DFHelper Memory: AOs need 0.036 [GiB]; user supplied 3.486 [GiB]. Using in-core AOs.

  ==> MemDFJK: Density-Fitted J/K Matrices <==

    J tasked:                   Yes
    K tasked:                   Yes
    wK tasked:                   No
    OpenMP threads:               1
    Memory (MB):               3570
    Algorithm:                 Core
    Schwarz Cutoff:           1E-12
    Mask sparsity (%):       0.5072
    Fitting Condition:        1E-12

   => Auxiliary Basis Set <=

  Basis Set: (CC-PVDZ AUX)
    Blend: CC-PVDZ-JKFIT
    Number of shells: 159
    Number of basis function: 441
    Number of Cartesian functions: 499
    Spherical Harmonics?: true
    Max angular momentum: 3

  Minimum eigenvalue in the overlap matrix is 4.5746274193E-03.
  Using Symmetric Orthogonalization.

  SCF Guess: Superposition of Atomic Densities via on-the-fly atomic UHF.

  ==> Iterations <==

                           Total Energy        Delta E     RMS |[F,P]|

   @DF-RKS iter   0:  -210.84039446260314   -2.10840e+02   3.66425e-02 
   @DF-RKS iter   1:  -210.21567922216934    6.24715e-01   7.02762e-03 
   @DF-RKS iter   2:  -210.07347773274483    1.42201e-01   9.60334e-03 DIIS
   @DF-RKS iter   3:  -210.38946150699323   -3.15984e-01   5.50577e-04 DIIS
   @DF-RKS iter   4:  -210.39007158902203   -6.10082e-04   3.57201e-04 DIIS
   @DF-RKS iter   5:  -210.39052845674425   -4.56868e-04   4.67100e-05 DIIS
   @DF-RKS iter   6:  -210.39053411114872   -5.65440e-06   2.31791e-05 DIIS
   @DF-RKS iter   7:  -210.39053604852796   -1.93738e-06   2.02548e-06 DIIS
   @DF-RKS iter   8:  -210.39053606307772   -1.45498e-08   7.09420e-07 DIIS

  ==> Post-Iterations <==

    Orbital Energies [Eh]
    ---------------------

    Doubly Occupied:                                                      

       1A    -19.123646     2A    -14.305910     3A    -10.218174  
       4A    -10.201739     5A     -1.006059     6A     -0.877012  
       7A     -0.710557     8A     -0.592914     9A     -0.503641  
      10A     -0.492728    11A     -0.444453    12A     -0.418370  
      13A     -0.392957    14A     -0.351265    15A     -0.323180  
      16A     -0.257140    17A     -0.234166  

    Virtual:                                                              

      18A      0.051392    19A      0.058625    20A      0.095712  
      21A      0.122936    22A      0.126532    23A      0.147268  
      24A      0.183538    25A      0.204066    26A      0.248602  
      27A      0.262834    28A      0.430841    29A      0.452640  
      30A      0.495256    31A      0.507839    32A      0.563142  
      33A      0.575538    34A      0.609725    35A      0.614247  
      36A      0.638782    37A      0.655833    38A      0.661513  
      39A      0.679374    40A      0.702997    41A      0.814218  
      42A      0.840401    43A      0.866083    44A      0.910507  
      45A      0.937513    46A      0.985846    47A      0.996167  
      48A      1.066584    49A      1.204404    50A      1.216083  
      51A      1.257296    52A      1.276240    53A      1.289065  
      54A      1.351505    55A      1.377040    56A      1.496304  
      57A      1.533535    58A      1.603137    59A      1.615620  
      60A      1.641463    61A      1.657313    62A      1.681152  
      63A      1.712788    64A      1.735194    65A      1.759091  
      66A      1.767605    67A      1.797967    68A      1.850366  
      69A      1.910383    70A      1.962917    71A      2.014112  
      72A      2.033497    73A      2.064972    74A      2.140109  
      75A      2.152021    76A      2.243759    77A      2.296591  
      78A      2.386429    79A      2.415762    80A      2.433514  
      81A      2.490162    82A      2.527122    83A      2.598465  
      84A      2.665199    85A      2.817102    86A      2.965311  
      87A      2.995565    88A      3.062866    89A      3.113528  
      90A      3.205064    91A      3.698558  

    Final Occupation by Irrep:
              A 
    DOCC [    17 ]

  Energy converged.

  @DF-RKS Final Energy:  -210.39053606307772

   => Energetics <=

    Nuclear Repulsion Energy =            130.2808058493796466
    One-Electron Energy =                -543.5528632639477564
    Two-Electron Energy =                 226.3730846795622540
    DFT Exchange-Correlation Energy =     -23.4868120280718635
    Empirical Dispersion Energy =          -0.0047513000000000
    VV10 Nonlocal Energy =                  0.0000000000000000
    Total Energy =                       -210.3905360630777182



Properties will be evaluated at   0.000000,   0.000000,   0.000000 [a0]

Properties computed using the SCF density matrix

  Nuclear Dipole Moment: [e a0]
     X:   177.0729      Y:   -33.6334      Z:   -31.5978

  Electronic Dipole Moment: [e a0]
     X:  -176.8363      Y:    33.4843      Z:    31.8178

  Dipole Moment: [e a0]
     X:     0.2367      Y:    -0.1491      Z:     0.2200     Total:     0.3559

  Dipole Moment: [D]
     X:     0.6016      Y:    -0.3791      Z:     0.5592     Total:     0.9046


*** tstop() called on loro.prib.upf.edu at Sat Sep 29 17:09:45 2018
Module time:
	user time   =      15.17 seconds =       0.25 minutes
	system time =       0.22 seconds =       0.00 minutes
	total time  =         17 seconds =       0.28 minutes
Total time:
	user time   =      15.17 seconds =       0.25 minutes
	system time =       0.22 seconds =       0.00 minutes
	total time  =         17 seconds =       0.28 minutes


Properties will be evaluated at   0.000000,   0.000000,   0.000000 [a0]
OEProp: No title given, name of density matrix used for the following properties is 'SCF density'
  Nuclear Dipole Moment: [e a0]
     X:   177.0729      Y:   -33.6334      Z:   -31.5978

  Electronic Dipole Moment: [e a0]
     X:  -176.8363      Y:    33.4843      Z:    31.8178

  Dipole Moment: [e a0]
     X:     0.2367      Y:    -0.1491      Z:     0.2200     Total:     0.3559

  Dipole Moment: [D]
     X:     0.6016      Y:    -0.3791      Z:     0.5592     Total:     0.9046

  Quadrupole Moment: [D A]
    XX:   -24.1983     YY:   -22.0180     ZZ:   -22.9208
    XY:    -6.3620     XZ:    -0.9661     YZ:     2.3249

  Traceless Quadrupole Moment: [D A]
    XX:    -1.1526     YY:     1.0277     ZZ:     0.1249
    XY:    -6.3620     XZ:    -0.9661     YZ:     2.3249

  Mulliken Charges: (a.u.)
   Center  Symbol    Alpha    Beta     Spin     Total
       1     O     4.14084  4.14084  0.00000 -0.28168
       2     C     2.92247  2.92247  0.00000  0.15507
       3     C     2.99460  2.99460  0.00000  0.01079
       4     N     3.58930  3.58930  0.00000 -0.17861
       5     H     0.43012  0.43012  0.00000  0.13975
       6     H     0.50487  0.50487  0.00000 -0.00975
       7     H     0.50053  0.50053  0.00000 -0.00106
       8     H     0.49099  0.49099  0.00000  0.01802
       9     H     0.49892  0.49892  0.00000  0.00215
      10     H     0.46305  0.46305  0.00000  0.07390
      11     H     0.46430  0.46430  0.00000  0.07140

   Total alpha = 17.00000, Total beta = 17.00000, Total charge = -0.00000


    Psi4 stopped on: Saturday, 29 September 2018 05:09PM
    Psi4 wall time for execution: 0:00:17.86

*** Psi4 exiting successfully. Buy a developer a beer!
