
    -----------------------------------------------------------------------
          Psi4: An Open-Source Ab Initio Electronic Structure Package
                               Psi4 1.2.1 release

                         Git: Rev {HEAD} 406f4de 


    R. M. Parrish, L. A. Burns, D. G. A. Smith, A. C. Simmonett,
    A. E. DePrince III, E. G. Hohenstein, U. Bozkaya, A. Yu. Sokolov,
    R. Di Remigio, R. M. Richard, J. F. Gonthier, A. M. James,
    H. R. McAlexander, A. Kumar, M. Saitow, X. Wang, B. P. Pritchard,
    P. Verma, H. F. Schaefer III, K. Patkowski, R. A. King, E. F. Valeev,
    F. A. Evangelista, J. M. Turney, T. D. Crawford, and C. D. Sherrill,
    J. Chem. Theory Comput. 13(7) pp 3185--3197 (2017).
    (doi: 10.1021/acs.jctc.7b00174)


                         Additional Contributions by
    P. Kraus, H. Kruse, M. H. Lechner, M. C. Schieber, and R. A. Shaw

    -----------------------------------------------------------------------


    Psi4 started on: Saturday, 29 September 2018 04:49PM

    Process ID: 4180
    Host:       loro.prib.upf.edu
    PSIDATADIR: /shared/joao/test_parameterize/miniconda3/share/psi4
    Memory:     500.0 MiB
    Threads:    1
    
  ==> Input File <==

--------------------------------------------------------------------------
set_num_threads(1)
set_memory('5348 MB')

set { scf_mem_safety_factor 0.7 }

set { reference rks }
set { basis cc-pVDZ }

molecule MOL {
    0 1
    noreorient
    nocom
    symmetry c1
    O    1.141000   0.017000   0.083000
    C    2.558000   0.086000  -0.005000
    C    3.192000  -0.789000   1.067000
    O    4.537435  -0.386542   1.293279
    H    0.789000   0.590000  -0.620000
    H    2.874000   1.128000   0.115000
    H    2.871000  -0.243000  -1.001000
    H    3.178480  -1.839566   0.760300
    H    2.632303  -0.709123   2.005743
    H    4.891700  -0.975179   1.982401
}

set optking { frozen_dihedral = (" 1 2 3 4 ") }

energy, wfn = energy('B3LYP-D3', return_wfn=True)

import os
os.chdir(os.environ['HTMD_PSI4_WORKDIR'])

oeprop(wfn, 'DIPOLE', 'QUADRUPOLE', 'MULLIKEN_CHARGES')

with open('psi4out.xyz', 'w') as f:
    f.write('10 ' )
    f.write('%.12f\n' % energy)
    f.write(MOL.save_string_xyz())
--------------------------------------------------------------------------
  Threads set to 1 by Python driver.

  Memory set to   4.981 GiB by Python driver.

*** tstart() called on loro.prib.upf.edu
*** at Sat Sep 29 16:49:17 2018

   => Loading Basis Set <=

    Name: CC-PVDZ
    Role: ORBITAL
    Keyword: BASIS
    atoms 1, 4 entry O          line   198 file /shared/joao/test_parameterize/miniconda3/share/psi4/basis/cc-pvdz.gbs 
    atoms 2-3  entry C          line   138 file /shared/joao/test_parameterize/miniconda3/share/psi4/basis/cc-pvdz.gbs 
    atoms 5-10 entry H          line    22 file /shared/joao/test_parameterize/miniconda3/share/psi4/basis/cc-pvdz.gbs 


         ---------------------------------------------------------
                                   SCF
            by Justin Turney, Rob Parrish, Andy Simmonett
                             and Daniel Smith
                              RKS Reference
                        1 Threads,   5100 MiB Core
         ---------------------------------------------------------

  ==> Geometry <==

    Molecular point group: c1
    Full point group: C1

    Geometry (in Angstrom), charge = 0, multiplicity = 1:

       Center              X                  Y                   Z               Mass       
    ------------   -----------------  -----------------  -----------------  -----------------
         O            1.141000000000     0.017000000000     0.083000000000    15.994914619560
         C            2.558000000000     0.086000000000    -0.005000000000    12.000000000000
         C            3.192000000000    -0.789000000000     1.067000000000    12.000000000000
         O            4.537435000000    -0.386542000000     1.293279000000    15.994914619560
         H            0.789000000000     0.590000000000    -0.620000000000     1.007825032070
         H            2.874000000000     1.128000000000     0.115000000000     1.007825032070
         H            2.871000000000    -0.243000000000    -1.001000000000     1.007825032070
         H            3.178480000000    -1.839566000000     0.760300000000     1.007825032070
         H            2.632303000000    -0.709123000000     2.005743000000     1.007825032070
         H            4.891700000000    -0.975179000000     1.982401000000     1.007825032070

  Running in c1 symmetry.

  Rotational constants: A =      0.77598  B =      0.02557  C =      0.02508 [cm^-1]
  Rotational constants: A =  23263.25047  B =    766.70163  C =    751.89181 [MHz]
  Nuclear repulsion =  129.521161695723151

  Charge       = 0
  Multiplicity = 1
  Electrons    = 34
  Nalpha       = 17
  Nbeta        = 17

  ==> Algorithm <==

  SCF Algorithm Type is DF.
  DIIS enabled.
  MOM disabled.
  Fractional occupation disabled.
  Guess Type is SAD.
  Energy threshold   = 1.00e-06
  Density threshold  = 1.00e-06
  Integral threshold = 0.00e+00

  ==> Primary Basis <==

  Basis Set: CC-PVDZ
    Blend: CC-PVDZ
    Number of shells: 42
    Number of basis function: 86
    Number of Cartesian functions: 90
    Spherical Harmonics?: true
    Max angular momentum: 2

  ==> DFT Potential <==

   => Composite Functional: B3LYP-D3ZERO <= 

    B3LYP-d3zero Hyb-GGA Exchange-Correlation Functional

    P. J. Stephens, F. J. Devlin, C. F. Chabalowski, and M. J. Frisch, J. Phys. Chem. 98, 11623 (1994)

    Deriv               =              1
    GGA                 =           TRUE
    Meta                =          FALSE

    Exchange Hybrid     =           TRUE
    MP2 Hybrid          =          FALSE

   => Exchange Functionals <=

    0.0800   Slater exchange
    0.7200         Becke 88

   => Exact (HF) Exchange <=

    0.2000               HF 

   => Correlation Functionals <=

    0.1900   Vosko, Wilk & Nusair (VWN5_RPA)
    0.8100   Lee, Yang & Parr

   => Molecular Quadrature <=

    Radial Scheme       =       TREUTLER
    Pruning Scheme      =           FLAT
    Nuclear Scheme      =       TREUTLER

    BS radius alpha     =              1
    Pruning alpha       =              1
    Radial Points       =             75
    Spherical Points    =            302
    Total Points        =         222560
    Total Blocks        =           1744
    Max Points          =            256
    Max Functions       =             86

   => -D3ZERO: Empirical Dispersion <=

    Grimme's -D3 (zero-damping) Dispersion Correction
    Grimme S.; Antony J.; Ehrlich S.; Krieg H. (2010), J. Chem. Phys., 132: 154104

        S6 =   1.000000E+00
        S8 =   1.703000E+00
       SR6 =   1.261000E+00
       SR8 =   1.000000E+00
    ALPHA6 =   1.400000E+01

   => Loading Basis Set <=

    Name: (CC-PVDZ AUX)
    Role: JKFIT
    Keyword: DF_BASIS_SCF
    atoms 1, 4 entry O          line   221 file /shared/joao/test_parameterize/miniconda3/share/psi4/basis/cc-pvdz-jkfit.gbs 
    atoms 2-3  entry C          line   121 file /shared/joao/test_parameterize/miniconda3/share/psi4/basis/cc-pvdz-jkfit.gbs 
    atoms 5-10 entry H          line    51 file /shared/joao/test_parameterize/miniconda3/share/psi4/basis/cc-pvdz-jkfit.gbs 

  ==> Pre-Iterations <==

   -------------------------------------------------------
    Irrep   Nso     Nmo     Nalpha   Nbeta   Ndocc  Nsocc
   -------------------------------------------------------
     A         86      86       0       0       0       0
   -------------------------------------------------------
    Total      86      86      17      17      17       0
   -------------------------------------------------------

  ==> Integral Setup <==

  DFHelper Memory: AOs need 0.030 [GiB]; user supplied 3.486 [GiB]. Using in-core AOs.

  ==> MemDFJK: Density-Fitted J/K Matrices <==

    J tasked:                   Yes
    K tasked:                   Yes
    wK tasked:                   No
    OpenMP threads:               1
    Memory (MB):               3570
    Algorithm:                 Core
    Schwarz Cutoff:           1E-12
    Mask sparsity (%):       0.5408
    Fitting Condition:        1E-12

   => Auxiliary Basis Set <=

  Basis Set: (CC-PVDZ AUX)
    Blend: CC-PVDZ-JKFIT
    Number of shells: 150
    Number of basis function: 418
    Number of Cartesian functions: 474
    Spherical Harmonics?: true
    Max angular momentum: 3

  Minimum eigenvalue in the overlap matrix is 4.9486951530E-03.
  Using Symmetric Orthogonalization.

  SCF Guess: Superposition of Atomic Densities via on-the-fly atomic UHF.

  ==> Iterations <==

                           Total Energy        Delta E     RMS |[F,P]|

   @DF-RKS iter   0:  -231.02876415167427   -2.31029e+02   4.12463e-02 
   @DF-RKS iter   1:  -230.18522905072916    8.43535e-01   4.85112e-03 
   @DF-RKS iter   2:  -230.15569436675298    2.95347e-02   6.11556e-03 DIIS
   @DF-RKS iter   3:  -230.25478070971423   -9.90863e-02   7.01088e-04 DIIS
   @DF-RKS iter   4:  -230.25609529477026   -1.31459e-03   2.13828e-04 DIIS
   @DF-RKS iter   5:  -230.25625275004751   -1.57455e-04   5.02718e-05 DIIS
   @DF-RKS iter   6:  -230.25626170126171   -8.95121e-06   4.90279e-06 DIIS
   @DF-RKS iter   7:  -230.25626176739092   -6.61292e-08   2.41209e-06 DIIS
   @DF-RKS iter   8:  -230.25626178180482   -1.44139e-08   8.16404e-07 DIIS

  ==> Post-Iterations <==

    Orbital Energies [Eh]
    ---------------------

    Doubly Occupied:                                                      

       1A    -19.131260     2A    -19.131218     3A    -10.226057  
       4A    -10.225863     5A     -1.018629     6A     -1.008141  
       7A     -0.732379     8A     -0.603543     9A     -0.525432  
      10A     -0.488387    11A     -0.464094    12A     -0.412070  
      13A     -0.396429    14A     -0.349712    15A     -0.319534  
      16A     -0.264299    17A     -0.262219  

    Virtual:                                                              

      18A      0.043644    19A      0.058061    20A      0.105606  
      21A      0.122257    22A      0.125037    23A      0.160869  
      24A      0.193418    25A      0.241833    26A      0.244673  
      27A      0.447534    28A      0.449974    29A      0.493503  
      30A      0.535470    31A      0.540775    32A      0.595832  
      33A      0.617540    34A      0.627058    35A      0.638952  
      36A      0.647300    37A      0.656992    38A      0.688367  
      39A      0.870799    40A      0.872296    41A      0.924062  
      42A      0.965131    43A      1.008475    44A      1.050068  
      45A      1.057774    46A      1.188743    47A      1.209997  
      48A      1.219842    49A      1.271008    50A      1.308207  
      51A      1.335384    52A      1.354402    53A      1.487440  
      54A      1.558658    55A      1.594134    56A      1.597645  
      57A      1.613659    58A      1.634358    59A      1.659848  
      60A      1.720771    61A      1.760437    62A      1.777855  
      63A      1.793026    64A      1.906807    65A      1.933547  
      66A      1.970315    67A      2.040381    68A      2.052897  
      69A      2.113498    70A      2.162282    71A      2.250339  
      72A      2.267594    73A      2.407291    74A      2.418516  
      75A      2.496792    76A      2.509133    77A      2.906925  
      78A      2.968541    79A      2.997154    80A      3.035892  
      81A      3.049023    82A      3.140486    83A      3.179229  
      84A      3.206972    85A      3.675402    86A      3.702054  

    Final Occupation by Irrep:
              A 
    DOCC [    17 ]

  Energy converged.

  @DF-RKS Final Energy:  -230.25626178180482

   => Energetics <=

    Nuclear Repulsion Energy =            129.5211616957231513
    One-Electron Energy =                -570.8031062749467992
    Two-Electron Energy =                 235.5696144857099057
    DFT Exchange-Correlation Energy =     -24.5395605382910915
    Empirical Dispersion Energy =          -0.0043711500000000
    VV10 Nonlocal Energy =                  0.0000000000000000
    Total Energy =                       -230.2562617818048238



Properties will be evaluated at   0.000000,   0.000000,   0.000000 [a0]

Properties computed using the SCF density matrix

  Nuclear Dipole Moment: [e a0]
     X:   183.6133      Y:   -17.4293      Z:    38.9750

  Electronic Dipole Moment: [e a0]
     X:  -183.5899      Y:    17.3141      Z:   -39.0836

  Dipole Moment: [e a0]
     X:     0.0234      Y:    -0.1152      Z:    -0.1087     Total:     0.1601

  Dipole Moment: [D]
     X:     0.0594      Y:    -0.2928      Z:    -0.2762     Total:     0.4069


*** tstop() called on loro.prib.upf.edu at Sat Sep 29 16:49:34 2018
Module time:
	user time   =      12.68 seconds =       0.21 minutes
	system time =       0.20 seconds =       0.00 minutes
	total time  =         17 seconds =       0.28 minutes
Total time:
	user time   =      12.68 seconds =       0.21 minutes
	system time =       0.20 seconds =       0.00 minutes
	total time  =         17 seconds =       0.28 minutes


Properties will be evaluated at   0.000000,   0.000000,   0.000000 [a0]
OEProp: No title given, name of density matrix used for the following properties is 'SCF density'
  Nuclear Dipole Moment: [e a0]
     X:   183.6133      Y:   -17.4293      Z:    38.9750

  Electronic Dipole Moment: [e a0]
     X:  -183.5899      Y:    17.3141      Z:   -39.0836

  Dipole Moment: [e a0]
     X:     0.0234      Y:    -0.1152      Z:    -0.1087     Total:     0.1601

  Dipole Moment: [D]
     X:     0.0594      Y:    -0.2928      Z:    -0.2762     Total:     0.4069

  Quadrupole Moment: [D A]
    XX:   -25.9752     YY:   -22.6416     ZZ:   -20.8725
    XY:    -5.0630     XZ:     3.4250     YZ:    -3.5139

  Traceless Quadrupole Moment: [D A]
    XX:    -2.8121     YY:     0.5215     ZZ:     2.2906
    XY:    -5.0630     XZ:     3.4250     YZ:    -3.5139

  Mulliken Charges: (a.u.)
   Center  Symbol    Alpha    Beta     Spin     Total
       1     O     4.14048  4.14048  0.00000 -0.28097
       2     C     2.93582  2.93582  0.00000  0.12835
       3     C     2.93599  2.93599  0.00000  0.12802
       4     O     4.14071  4.14071  0.00000 -0.28142
       5     H     0.42785  0.42785  0.00000  0.14430
       6     H     0.49689  0.49689  0.00000  0.00622
       7     H     0.49889  0.49889  0.00000  0.00222
       8     H     0.49876  0.49876  0.00000  0.00248
       9     H     0.49680  0.49680  0.00000  0.00639
      10     H     0.42780  0.42780  0.00000  0.14441

   Total alpha = 17.00000, Total beta = 17.00000, Total charge =  0.00000


    Psi4 stopped on: Saturday, 29 September 2018 04:49PM
    Psi4 wall time for execution: 0:00:16.22

*** Psi4 exiting successfully. Buy a developer a beer!
