
    -----------------------------------------------------------------------
          Psi4: An Open-Source Ab Initio Electronic Structure Package
                               Psi4 1.2.1 release

                         Git: Rev {HEAD} 406f4de 


    R. M. Parrish, L. A. Burns, D. G. A. Smith, A. C. Simmonett,
    A. E. DePrince III, E. G. Hohenstein, U. Bozkaya, A. Yu. Sokolov,
    R. Di Remigio, R. M. Richard, J. F. Gonthier, A. M. James,
    H. R. McAlexander, A. Kumar, M. Saitow, X. Wang, B. P. Pritchard,
    P. Verma, H. F. Schaefer III, K. Patkowski, R. A. King, E. F. Valeev,
    F. A. Evangelista, J. M. Turney, T. D. Crawford, and C. D. Sherrill,
    J. Chem. Theory Comput. 13(7) pp 3185--3197 (2017).
    (doi: 10.1021/acs.jctc.7b00174)


                         Additional Contributions by
    P. Kraus, H. Kruse, M. H. Lechner, M. C. Schieber, and R. A. Shaw

    -----------------------------------------------------------------------


    Psi4 started on: Saturday, 29 September 2018 05:08PM

    Process ID: 12257
    Host:       loro.prib.upf.edu
    PSIDATADIR: /shared/joao/test_parameterize/miniconda3/share/psi4
    Memory:     500.0 MiB
    Threads:    1
    
  ==> Input File <==

--------------------------------------------------------------------------
set_num_threads(1)
set_memory('5348 MB')

set { scf_mem_safety_factor 0.7 }

set { reference rks }
set { basis cc-pVDZ }

molecule MOL {
    0 1
    noreorient
    nocom
    symmetry c1
    O    1.050400   0.042900  -0.048100
    C    2.474100   0.047400  -0.029000
    C    3.002600  -1.068900  -0.932000
    N    4.463734  -1.114925  -0.953624
    H    0.760400   0.728400   0.578000
    H    2.809900  -0.097900   1.003200
    H    2.817400   1.026800  -0.378600
    H    2.621741  -0.933792  -1.951034
    H    2.611808  -2.031736  -0.583742
    H    4.821780  -0.265723  -1.389675
    H    4.758852  -1.883356  -1.555845
}

set optking { frozen_dihedral = (" 1 2 3 4 ") }

energy, wfn = energy('B3LYP-D3', return_wfn=True)

import os
os.chdir(os.environ['HTMD_PSI4_WORKDIR'])

oeprop(wfn, 'DIPOLE', 'QUADRUPOLE', 'MULLIKEN_CHARGES')

with open('psi4out.xyz', 'w') as f:
    f.write('11 ' )
    f.write('%.12f\n' % energy)
    f.write(MOL.save_string_xyz())
--------------------------------------------------------------------------
  Threads set to 1 by Python driver.

  Memory set to   4.981 GiB by Python driver.

*** tstart() called on loro.prib.upf.edu
*** at Sat Sep 29 17:08:29 2018

   => Loading Basis Set <=

    Name: CC-PVDZ
    Role: ORBITAL
    Keyword: BASIS
    atoms 1    entry O          line   198 file /shared/joao/test_parameterize/miniconda3/share/psi4/basis/cc-pvdz.gbs 
    atoms 2-3  entry C          line   138 file /shared/joao/test_parameterize/miniconda3/share/psi4/basis/cc-pvdz.gbs 
    atoms 4    entry N          line   168 file /shared/joao/test_parameterize/miniconda3/share/psi4/basis/cc-pvdz.gbs 
    atoms 5-11 entry H          line    22 file /shared/joao/test_parameterize/miniconda3/share/psi4/basis/cc-pvdz.gbs 


         ---------------------------------------------------------
                                   SCF
            by Justin Turney, Rob Parrish, Andy Simmonett
                             and Daniel Smith
                              RKS Reference
                        1 Threads,   5100 MiB Core
         ---------------------------------------------------------

  ==> Geometry <==

    Molecular point group: c1
    Full point group: C1

    Geometry (in Angstrom), charge = 0, multiplicity = 1:

       Center              X                  Y                   Z               Mass       
    ------------   -----------------  -----------------  -----------------  -----------------
         O            1.050400000000     0.042900000000    -0.048100000000    15.994914619560
         C            2.474100000000     0.047400000000    -0.029000000000    12.000000000000
         C            3.002600000000    -1.068900000000    -0.932000000000    12.000000000000
         N            4.463734000000    -1.114925000000    -0.953624000000    14.003074004780
         H            0.760400000000     0.728400000000     0.578000000000     1.007825032070
         H            2.809900000000    -0.097900000000     1.003200000000     1.007825032070
         H            2.817400000000     1.026800000000    -0.378600000000     1.007825032070
         H            2.621741000000    -0.933792000000    -1.951034000000     1.007825032070
         H            2.611808000000    -2.031736000000    -0.583742000000     1.007825032070
         H            4.821780000000    -0.265723000000    -1.389675000000     1.007825032070
         H            4.758852000000    -1.883356000000    -1.555845000000     1.007825032070

  Running in c1 symmetry.

  Rotational constants: A =      0.72294  B =      0.02763  C =      0.02694 [cm^-1]
  Rotational constants: A =  21673.26740  B =    828.26809  C =    807.60476 [MHz]
  Nuclear repulsion =  130.406119062215794

  Charge       = 0
  Multiplicity = 1
  Electrons    = 34
  Nalpha       = 17
  Nbeta        = 17

  ==> Algorithm <==

  SCF Algorithm Type is DF.
  DIIS enabled.
  MOM disabled.
  Fractional occupation disabled.
  Guess Type is SAD.
  Energy threshold   = 1.00e-06
  Density threshold  = 1.00e-06
  Integral threshold = 0.00e+00

  ==> Primary Basis <==

  Basis Set: CC-PVDZ
    Blend: CC-PVDZ
    Number of shells: 45
    Number of basis function: 91
    Number of Cartesian functions: 95
    Spherical Harmonics?: true
    Max angular momentum: 2

  ==> DFT Potential <==

   => Composite Functional: B3LYP-D3ZERO <= 

    B3LYP-d3zero Hyb-GGA Exchange-Correlation Functional

    P. J. Stephens, F. J. Devlin, C. F. Chabalowski, and M. J. Frisch, J. Phys. Chem. 98, 11623 (1994)

    Deriv               =              1
    GGA                 =           TRUE
    Meta                =          FALSE

    Exchange Hybrid     =           TRUE
    MP2 Hybrid          =          FALSE

   => Exchange Functionals <=

    0.0800   Slater exchange
    0.7200         Becke 88

   => Exact (HF) Exchange <=

    0.2000               HF 

   => Correlation Functionals <=

    0.1900   Vosko, Wilk & Nusair (VWN5_RPA)
    0.8100   Lee, Yang & Parr

   => Molecular Quadrature <=

    Radial Scheme       =       TREUTLER
    Pruning Scheme      =           FLAT
    Nuclear Scheme      =       TREUTLER

    BS radius alpha     =              1
    Pruning alpha       =              1
    Radial Points       =             75
    Spherical Points    =            302
    Total Points        =         245081
    Total Blocks        =           1889
    Max Points          =            256
    Max Functions       =             91

   => -D3ZERO: Empirical Dispersion <=

    Grimme's -D3 (zero-damping) Dispersion Correction
    Grimme S.; Antony J.; Ehrlich S.; Krieg H. (2010), J. Chem. Phys., 132: 154104

        S6 =   1.000000E+00
        S8 =   1.703000E+00
       SR6 =   1.261000E+00
       SR8 =   1.000000E+00
    ALPHA6 =   1.400000E+01

   => Loading Basis Set <=

    Name: (CC-PVDZ AUX)
    Role: JKFIT
    Keyword: DF_BASIS_SCF
    atoms 1    entry O          line   221 file /shared/joao/test_parameterize/miniconda3/share/psi4/basis/cc-pvdz-jkfit.gbs 
    atoms 2-3  entry C          line   121 file /shared/joao/test_parameterize/miniconda3/share/psi4/basis/cc-pvdz-jkfit.gbs 
    atoms 4    entry N          line   171 file /shared/joao/test_parameterize/miniconda3/share/psi4/basis/cc-pvdz-jkfit.gbs 
    atoms 5-11 entry H          line    51 file /shared/joao/test_parameterize/miniconda3/share/psi4/basis/cc-pvdz-jkfit.gbs 

  ==> Pre-Iterations <==

   -------------------------------------------------------
    Irrep   Nso     Nmo     Nalpha   Nbeta   Ndocc  Nsocc
   -------------------------------------------------------
     A         91      91       0       0       0       0
   -------------------------------------------------------
    Total      91      91      17      17      17       0
   -------------------------------------------------------

  ==> Integral Setup <==

  DFHelper Memory: AOs need 0.036 [GiB]; user supplied 3.486 [GiB]. Using in-core AOs.

  ==> MemDFJK: Density-Fitted J/K Matrices <==

    J tasked:                   Yes
    K tasked:                   Yes
    wK tasked:                   No
    OpenMP threads:               1
    Memory (MB):               3570
    Algorithm:                 Core
    Schwarz Cutoff:           1E-12
    Mask sparsity (%):       0.5072
    Fitting Condition:        1E-12

   => Auxiliary Basis Set <=

  Basis Set: (CC-PVDZ AUX)
    Blend: CC-PVDZ-JKFIT
    Number of shells: 159
    Number of basis function: 441
    Number of Cartesian functions: 499
    Spherical Harmonics?: true
    Max angular momentum: 3

  Minimum eigenvalue in the overlap matrix is 4.4994014134E-03.
  Using Symmetric Orthogonalization.

  SCF Guess: Superposition of Atomic Densities via on-the-fly atomic UHF.

  ==> Iterations <==

                           Total Energy        Delta E     RMS |[F,P]|

   @DF-RKS iter   0:  -210.84148753530943   -2.10841e+02   3.66762e-02 
   @DF-RKS iter   1:  -210.21266477680911    6.28823e-01   7.10166e-03 
   @DF-RKS iter   2:  -210.06898874873184    1.43676e-01   9.67888e-03 DIIS
   @DF-RKS iter   3:  -210.39019908162248   -3.21210e-01   5.72137e-04 DIIS
   @DF-RKS iter   4:  -210.39085904726460   -6.59966e-04   3.67040e-04 DIIS
   @DF-RKS iter   5:  -210.39133609560503   -4.77048e-04   4.85551e-05 DIIS
   @DF-RKS iter   6:  -210.39134230701575   -6.21141e-06   2.32879e-05 DIIS
   @DF-RKS iter   7:  -210.39134428623063   -1.97921e-06   2.09636e-06 DIIS
   @DF-RKS iter   8:  -210.39134430212039   -1.58898e-08   6.50246e-07 DIIS

  ==> Post-Iterations <==

    Orbital Energies [Eh]
    ---------------------

    Doubly Occupied:                                                      

       1A    -19.126946     2A    -14.304946     3A    -10.223716  
       4A    -10.201769     5A     -1.009323     6A     -0.876789  
       7A     -0.712099     8A     -0.597007     9A     -0.505911  
      10A     -0.485249    11A     -0.455604    12A     -0.415239  
      13A     -0.388360    14A     -0.363471    15A     -0.323216  
      16A     -0.260601    17A     -0.231104  

    Virtual:                                                              

      18A      0.050927    19A      0.058521    20A      0.101607  
      21A      0.119164    22A      0.124726    23A      0.153765  
      24A      0.169617    25A      0.204205    26A      0.242993  
      27A      0.256046    28A      0.440078    29A      0.452550  
      30A      0.483290    31A      0.498094    32A      0.563779  
      33A      0.580684    34A      0.610321    35A      0.615694  
      36A      0.639684    37A      0.652772    38A      0.658064  
      39A      0.680120    40A      0.701912    41A      0.818579  
      42A      0.833126    43A      0.846700    44A      0.912476  
      45A      0.965438    46A      0.993867    47A      1.017554  
      48A      1.063654    49A      1.182055    50A      1.213839  
      51A      1.231546    52A      1.246894    53A      1.337089  
      54A      1.353804    55A      1.420419    56A      1.483132  
      57A      1.516650    58A      1.600951    59A      1.612340  
      60A      1.634945    61A      1.657189    62A      1.664222  
      63A      1.712892    64A      1.739045    65A      1.759295  
      66A      1.769496    67A      1.808869    68A      1.859046  
      69A      1.917383    70A      1.948634    71A      1.985101  
      72A      2.016385    73A      2.052327    74A      2.144857  
      75A      2.156609    76A      2.246602    77A      2.301168  
      78A      2.370412    79A      2.393545    80A      2.444754  
      81A      2.471677    82A      2.534242    83A      2.610338  
      84A      2.681159    85A      2.822067    86A      2.959302  
      87A      3.021651    88A      3.034538    89A      3.124499  
      90A      3.203714    91A      3.696520  

    Final Occupation by Irrep:
              A 
    DOCC [    17 ]

  Energy converged.

  @DF-RKS Final Energy:  -210.39134430212039

   => Energetics <=

    Nuclear Repulsion Energy =            130.4061190622157937
    One-Electron Energy =                -543.7501800153071372
    Two-Electron Energy =                 226.4439989947506149
    DFT Exchange-Correlation Energy =     -23.4863662137796645
    Empirical Dispersion Energy =          -0.0049161300000000
    VV10 Nonlocal Energy =                  0.0000000000000000
    Total Energy =                       -210.3913443021203875



Properties will be evaluated at   0.000000,   0.000000,   0.000000 [a0]

Properties computed using the SCF density matrix

  Nuclear Dipole Moment: [e a0]
     X:   177.0889      Y:   -32.2153      Z:   -32.3216

  Electronic Dipole Moment: [e a0]
     X:  -176.8881      Y:    32.6091      Z:    32.1779

  Dipole Moment: [e a0]
     X:     0.2008      Y:     0.3939      Z:    -0.1438     Total:     0.4649

  Dipole Moment: [D]
     X:     0.5103      Y:     1.0011      Z:    -0.3654     Total:     1.1816


*** tstop() called on loro.prib.upf.edu at Sat Sep 29 17:08:49 2018
Module time:
	user time   =      15.45 seconds =       0.26 minutes
	system time =       0.26 seconds =       0.00 minutes
	total time  =         20 seconds =       0.33 minutes
Total time:
	user time   =      15.45 seconds =       0.26 minutes
	system time =       0.26 seconds =       0.00 minutes
	total time  =         20 seconds =       0.33 minutes


Properties will be evaluated at   0.000000,   0.000000,   0.000000 [a0]
OEProp: No title given, name of density matrix used for the following properties is 'SCF density'
  Nuclear Dipole Moment: [e a0]
     X:   177.0889      Y:   -32.2153      Z:   -32.3216

  Electronic Dipole Moment: [e a0]
     X:  -176.8881      Y:    32.6091      Z:    32.1779

  Dipole Moment: [e a0]
     X:     0.2008      Y:     0.3939      Z:    -0.1438     Total:     0.4649

  Dipole Moment: [D]
     X:     0.5103      Y:     1.0011      Z:    -0.3654     Total:     1.1816

  Quadrupole Moment: [D A]
    XX:   -24.6951     YY:   -23.4027     ZZ:   -22.7380
    XY:     1.0273     XZ:    -6.2350     YZ:     2.4989

  Traceless Quadrupole Moment: [D A]
    XX:    -1.0832     YY:     0.2092     ZZ:     0.8739
    XY:     1.0273     XZ:    -6.2350     YZ:     2.4989

  Mulliken Charges: (a.u.)
   Center  Symbol    Alpha    Beta     Spin     Total
       1     O     4.13939  4.13939  0.00000 -0.27879
       2     C     2.92973  2.92973  0.00000  0.14055
       3     C     2.98476  2.98476  0.00000  0.03048
       4     N     3.59327  3.59327  0.00000 -0.18653
       5     H     0.42978  0.42978  0.00000  0.14044
       6     H     0.49823  0.49823  0.00000  0.00355
       7     H     0.50463  0.50463  0.00000 -0.00926
       8     H     0.50103  0.50103  0.00000 -0.00206
       9     H     0.48989  0.48989  0.00000  0.02022
      10     H     0.46596  0.46596  0.00000  0.06808
      11     H     0.46334  0.46334  0.00000  0.07332

   Total alpha = 17.00000, Total beta = 17.00000, Total charge =  0.00000


    Psi4 stopped on: Saturday, 29 September 2018 05:08PM
    Psi4 wall time for execution: 0:00:19.32

*** Psi4 exiting successfully. Buy a developer a beer!
