
    -----------------------------------------------------------------------
          Psi4: An Open-Source Ab Initio Electronic Structure Package
                               Psi4 1.2.1 release

                         Git: Rev {HEAD} 406f4de 


    R. M. Parrish, L. A. Burns, D. G. A. Smith, A. C. Simmonett,
    A. E. DePrince III, E. G. Hohenstein, U. Bozkaya, A. Yu. Sokolov,
    R. Di Remigio, R. M. Richard, J. F. Gonthier, A. M. James,
    H. R. McAlexander, A. Kumar, M. Saitow, X. Wang, B. P. Pritchard,
    P. Verma, H. F. Schaefer III, K. Patkowski, R. A. King, E. F. Valeev,
    F. A. Evangelista, J. M. Turney, T. D. Crawford, and C. D. Sherrill,
    J. Chem. Theory Comput. 13(7) pp 3185--3197 (2017).
    (doi: 10.1021/acs.jctc.7b00174)


                         Additional Contributions by
    P. Kraus, H. Kruse, M. H. Lechner, M. C. Schieber, and R. A. Shaw

    -----------------------------------------------------------------------


    Psi4 started on: Saturday, 29 September 2018 05:11PM

    Process ID: 14387
    Host:       loro.prib.upf.edu
    PSIDATADIR: /shared/joao/test_parameterize/miniconda3/share/psi4
    Memory:     500.0 MiB
    Threads:    1
    
  ==> Input File <==

--------------------------------------------------------------------------
set_num_threads(1)
set_memory('5348 MB')

set { scf_mem_safety_factor 0.7 }

set { reference rks }
set { basis cc-pVDZ }

molecule MOL {
    0 1
    noreorient
    nocom
    symmetry c1
    O    1.050400   0.042900  -0.048100
    C    2.474100   0.047400  -0.029000
    C    3.002600  -1.068900  -0.932000
    N    4.462700  -1.072400  -1.006800
    H    0.759641   0.651426   0.652732
    H    2.809900  -0.097900   1.003200
    H    2.817400   1.026800  -0.378600
    H    2.581000  -0.963300  -1.938400
    H    2.653800  -2.036400  -0.553400
    H    4.779000  -0.221000  -1.470000
    H    4.758600  -1.842500  -1.606500
}

set optking { frozen_dihedral = (" 3 2 1 5 ") }

energy, wfn = energy('B3LYP-D3', return_wfn=True)

import os
os.chdir(os.environ['HTMD_PSI4_WORKDIR'])

oeprop(wfn, 'DIPOLE', 'QUADRUPOLE', 'MULLIKEN_CHARGES')

with open('psi4out.xyz', 'w') as f:
    f.write('11 ' )
    f.write('%.12f\n' % energy)
    f.write(MOL.save_string_xyz())
--------------------------------------------------------------------------
  Threads set to 1 by Python driver.

  Memory set to   4.981 GiB by Python driver.

*** tstart() called on loro.prib.upf.edu
*** at Sat Sep 29 17:11:02 2018

   => Loading Basis Set <=

    Name: CC-PVDZ
    Role: ORBITAL
    Keyword: BASIS
    atoms 1    entry O          line   198 file /shared/joao/test_parameterize/miniconda3/share/psi4/basis/cc-pvdz.gbs 
    atoms 2-3  entry C          line   138 file /shared/joao/test_parameterize/miniconda3/share/psi4/basis/cc-pvdz.gbs 
    atoms 4    entry N          line   168 file /shared/joao/test_parameterize/miniconda3/share/psi4/basis/cc-pvdz.gbs 
    atoms 5-11 entry H          line    22 file /shared/joao/test_parameterize/miniconda3/share/psi4/basis/cc-pvdz.gbs 


         ---------------------------------------------------------
                                   SCF
            by Justin Turney, Rob Parrish, Andy Simmonett
                             and Daniel Smith
                              RKS Reference
                        1 Threads,   5100 MiB Core
         ---------------------------------------------------------

  ==> Geometry <==

    Molecular point group: c1
    Full point group: C1

    Geometry (in Angstrom), charge = 0, multiplicity = 1:

       Center              X                  Y                   Z               Mass       
    ------------   -----------------  -----------------  -----------------  -----------------
         O            1.050400000000     0.042900000000    -0.048100000000    15.994914619560
         C            2.474100000000     0.047400000000    -0.029000000000    12.000000000000
         C            3.002600000000    -1.068900000000    -0.932000000000    12.000000000000
         N            4.462700000000    -1.072400000000    -1.006800000000    14.003074004780
         H            0.759641000000     0.651426000000     0.652732000000     1.007825032070
         H            2.809900000000    -0.097900000000     1.003200000000     1.007825032070
         H            2.817400000000     1.026800000000    -0.378600000000     1.007825032070
         H            2.581000000000    -0.963300000000    -1.938400000000     1.007825032070
         H            2.653800000000    -2.036400000000    -0.553400000000     1.007825032070
         H            4.779000000000    -0.221000000000    -1.470000000000     1.007825032070
         H            4.758600000000    -1.842500000000    -1.606500000000     1.007825032070

  Running in c1 symmetry.

  Rotational constants: A =      0.72195  B =      0.02763  C =      0.02695 [cm^-1]
  Rotational constants: A =  21643.51908  B =    828.42774  C =    807.97406 [MHz]
  Nuclear repulsion =  130.413864412390041

  Charge       = 0
  Multiplicity = 1
  Electrons    = 34
  Nalpha       = 17
  Nbeta        = 17

  ==> Algorithm <==

  SCF Algorithm Type is DF.
  DIIS enabled.
  MOM disabled.
  Fractional occupation disabled.
  Guess Type is SAD.
  Energy threshold   = 1.00e-06
  Density threshold  = 1.00e-06
  Integral threshold = 0.00e+00

  ==> Primary Basis <==

  Basis Set: CC-PVDZ
    Blend: CC-PVDZ
    Number of shells: 45
    Number of basis function: 91
    Number of Cartesian functions: 95
    Spherical Harmonics?: true
    Max angular momentum: 2

  ==> DFT Potential <==

   => Composite Functional: B3LYP-D3ZERO <= 

    B3LYP-d3zero Hyb-GGA Exchange-Correlation Functional

    P. J. Stephens, F. J. Devlin, C. F. Chabalowski, and M. J. Frisch, J. Phys. Chem. 98, 11623 (1994)

    Deriv               =              1
    GGA                 =           TRUE
    Meta                =          FALSE

    Exchange Hybrid     =           TRUE
    MP2 Hybrid          =          FALSE

   => Exchange Functionals <=

    0.0800   Slater exchange
    0.7200         Becke 88

   => Exact (HF) Exchange <=

    0.2000               HF 

   => Correlation Functionals <=

    0.1900   Vosko, Wilk & Nusair (VWN5_RPA)
    0.8100   Lee, Yang & Parr

   => Molecular Quadrature <=

    Radial Scheme       =       TREUTLER
    Pruning Scheme      =           FLAT
    Nuclear Scheme      =       TREUTLER

    BS radius alpha     =              1
    Pruning alpha       =              1
    Radial Points       =             75
    Spherical Points    =            302
    Total Points        =         245081
    Total Blocks        =           1887
    Max Points          =            256
    Max Functions       =             91

   => -D3ZERO: Empirical Dispersion <=

    Grimme's -D3 (zero-damping) Dispersion Correction
    Grimme S.; Antony J.; Ehrlich S.; Krieg H. (2010), J. Chem. Phys., 132: 154104

        S6 =   1.000000E+00
        S8 =   1.703000E+00
       SR6 =   1.261000E+00
       SR8 =   1.000000E+00
    ALPHA6 =   1.400000E+01

   => Loading Basis Set <=

    Name: (CC-PVDZ AUX)
    Role: JKFIT
    Keyword: DF_BASIS_SCF
    atoms 1    entry O          line   221 file /shared/joao/test_parameterize/miniconda3/share/psi4/basis/cc-pvdz-jkfit.gbs 
    atoms 2-3  entry C          line   121 file /shared/joao/test_parameterize/miniconda3/share/psi4/basis/cc-pvdz-jkfit.gbs 
    atoms 4    entry N          line   171 file /shared/joao/test_parameterize/miniconda3/share/psi4/basis/cc-pvdz-jkfit.gbs 
    atoms 5-11 entry H          line    51 file /shared/joao/test_parameterize/miniconda3/share/psi4/basis/cc-pvdz-jkfit.gbs 

  ==> Pre-Iterations <==

   -------------------------------------------------------
    Irrep   Nso     Nmo     Nalpha   Nbeta   Ndocc  Nsocc
   -------------------------------------------------------
     A         91      91       0       0       0       0
   -------------------------------------------------------
    Total      91      91      17      17      17       0
   -------------------------------------------------------

  ==> Integral Setup <==

  DFHelper Memory: AOs need 0.036 [GiB]; user supplied 3.486 [GiB]. Using in-core AOs.

  ==> MemDFJK: Density-Fitted J/K Matrices <==

    J tasked:                   Yes
    K tasked:                   Yes
    wK tasked:                   No
    OpenMP threads:               1
    Memory (MB):               3570
    Algorithm:                 Core
    Schwarz Cutoff:           1E-12
    Mask sparsity (%):       0.5072
    Fitting Condition:        1E-12

   => Auxiliary Basis Set <=

  Basis Set: (CC-PVDZ AUX)
    Blend: CC-PVDZ-JKFIT
    Number of shells: 159
    Number of basis function: 441
    Number of Cartesian functions: 499
    Spherical Harmonics?: true
    Max angular momentum: 3

  Minimum eigenvalue in the overlap matrix is 4.5070792086E-03.
  Using Symmetric Orthogonalization.

  SCF Guess: Superposition of Atomic Densities via on-the-fly atomic UHF.

  ==> Iterations <==

                           Total Energy        Delta E     RMS |[F,P]|

   @DF-RKS iter   0:  -210.85642752411977   -2.10856e+02   3.67225e-02 
   @DF-RKS iter   1:  -210.21186271216163    6.44565e-01   7.11573e-03 
   @DF-RKS iter   2:  -210.06878189870619    1.43081e-01   9.69127e-03 DIIS
   @DF-RKS iter   3:  -210.39012269690346   -3.21341e-01   5.82918e-04 DIIS
   @DF-RKS iter   4:  -210.39081235019376   -6.89653e-04   3.71437e-04 DIIS
   @DF-RKS iter   5:  -210.39130009778134   -4.87748e-04   4.94619e-05 DIIS
   @DF-RKS iter   6:  -210.39130660436263   -6.50658e-06   2.33475e-05 DIIS
   @DF-RKS iter   7:  -210.39130859518863   -1.99083e-06   2.20140e-06 DIIS
   @DF-RKS iter   8:  -210.39130861281990   -1.76313e-08   6.61415e-07 DIIS

  ==> Post-Iterations <==

    Orbital Energies [Eh]
    ---------------------

    Doubly Occupied:                                                      

       1A    -19.127033     2A    -14.304777     3A    -10.223823  
       4A    -10.201660     5A     -1.009417     6A     -0.876650  
       7A     -0.712053     8A     -0.597069     9A     -0.506161  
      10A     -0.485941    11A     -0.452996    12A     -0.417603  
      13A     -0.388092    14A     -0.362641    15A     -0.323531  
      16A     -0.260833    17A     -0.230918  

    Virtual:                                                              

      18A      0.050946    19A      0.058736    20A      0.100922  
      21A      0.119126    22A      0.125519    23A      0.153256  
      24A      0.169875    25A      0.204338    26A      0.243476  
      27A      0.257016    28A      0.439685    29A      0.452165  
      30A      0.483627    31A      0.498388    32A      0.562793  
      33A      0.581683    34A      0.611095    35A      0.614949  
      36A      0.639995    37A      0.652245    38A      0.658194  
      39A      0.679971    40A      0.701557    41A      0.816897  
      42A      0.834641    43A      0.845844    44A      0.914358  
      45A      0.965366    46A      0.993663    47A      1.017473  
      48A      1.063301    49A      1.181206    50A      1.212096  
      51A      1.231190    52A      1.249586    53A      1.325285  
      54A      1.362929    55A      1.421902    56A      1.484513  
      57A      1.515279    58A      1.603081    59A      1.612639  
      60A      1.632834    61A      1.656325    62A      1.666109  
      63A      1.711425    64A      1.740067    65A      1.759102  
      66A      1.771651    67A      1.805347    68A      1.862034  
      69A      1.913062    70A      1.951604    71A      1.985333  
      72A      2.015319    73A      2.050020    74A      2.142458  
      75A      2.160057    76A      2.245611    77A      2.296476  
      78A      2.369584    79A      2.393832    80A      2.445475  
      81A      2.471482    82A      2.536856    83A      2.609804  
      84A      2.681896    85A      2.822631    86A      2.956939  
      87A      3.023890    88A      3.033686    89A      3.124236  
      90A      3.203988    91A      3.695481  

    Final Occupation by Irrep:
              A 
    DOCC [    17 ]

  Energy converged.

  @DF-RKS Final Energy:  -210.39130861281990

   => Energetics <=

    Nuclear Repulsion Energy =            130.4138644123900406
    One-Electron Energy =                -543.7658513407060354
    Two-Electron Energy =                 226.4520158242035563
    DFT Exchange-Correlation Energy =     -23.4864210487074487
    Empirical Dispersion Energy =          -0.0049164600000000
    VV10 Nonlocal Energy =                  0.0000000000000000
    Total Energy =                       -210.3913086128199268



Properties will be evaluated at   0.000000,   0.000000,   0.000000 [a0]

Properties computed using the SCF density matrix

  Nuclear Dipole Moment: [e a0]
     X:   176.9949      Y:   -31.7011      Z:   -33.0501

  Electronic Dipole Moment: [e a0]
     X:  -176.8146      Y:    32.0378      Z:    32.9574

  Dipole Moment: [e a0]
     X:     0.1803      Y:     0.3367      Z:    -0.0927     Total:     0.3930

  Dipole Moment: [D]
     X:     0.4583      Y:     0.8558      Z:    -0.2357     Total:     0.9990


*** tstop() called on loro.prib.upf.edu at Sat Sep 29 17:11:19 2018
Module time:
	user time   =      14.41 seconds =       0.24 minutes
	system time =       0.22 seconds =       0.00 minutes
	total time  =         17 seconds =       0.28 minutes
Total time:
	user time   =      14.41 seconds =       0.24 minutes
	system time =       0.22 seconds =       0.00 minutes
	total time  =         17 seconds =       0.28 minutes


Properties will be evaluated at   0.000000,   0.000000,   0.000000 [a0]
OEProp: No title given, name of density matrix used for the following properties is 'SCF density'
  Nuclear Dipole Moment: [e a0]
     X:   176.9949      Y:   -31.7011      Z:   -33.0501

  Electronic Dipole Moment: [e a0]
     X:  -176.8146      Y:    32.0378      Z:    32.9574

  Dipole Moment: [e a0]
     X:     0.1803      Y:     0.3367      Z:    -0.0927     Total:     0.3930

  Dipole Moment: [D]
     X:     0.4583      Y:     0.8558      Z:    -0.2357     Total:     0.9990

  Quadrupole Moment: [D A]
    XX:   -25.2373     YY:   -23.5659     ZZ:   -22.3228
    XY:     0.8401     XZ:    -6.0801     YZ:     2.3966

  Traceless Quadrupole Moment: [D A]
    XX:    -1.5286     YY:     0.1427     ZZ:     1.3859
    XY:     0.8401     XZ:    -6.0801     YZ:     2.3966

  Mulliken Charges: (a.u.)
   Center  Symbol    Alpha    Beta     Spin     Total
       1     O     4.13942  4.13942  0.00000 -0.27884
       2     C     2.92966  2.92966  0.00000  0.14068
       3     C     2.98470  2.98470  0.00000  0.03059
       4     N     3.59362  3.59362  0.00000 -0.18724
       5     H     0.42970  0.42970  0.00000  0.14060
       6     H     0.49822  0.49822  0.00000  0.00356
       7     H     0.50439  0.50439  0.00000 -0.00878
       8     H     0.50066  0.50066  0.00000 -0.00132
       9     H     0.49043  0.49043  0.00000  0.01914
      10     H     0.46581  0.46581  0.00000  0.06839
      11     H     0.46339  0.46339  0.00000  0.07322

   Total alpha = 17.00000, Total beta = 17.00000, Total charge = -0.00000


    Psi4 stopped on: Saturday, 29 September 2018 05:11PM
    Psi4 wall time for execution: 0:00:16.54

*** Psi4 exiting successfully. Buy a developer a beer!
