
    -----------------------------------------------------------------------
          Psi4: An Open-Source Ab Initio Electronic Structure Package
                               Psi4 1.2.1 release

                         Git: Rev {HEAD} 406f4de 


    R. M. Parrish, L. A. Burns, D. G. A. Smith, A. C. Simmonett,
    A. E. DePrince III, E. G. Hohenstein, U. Bozkaya, A. Yu. Sokolov,
    R. Di Remigio, R. M. Richard, J. F. Gonthier, A. M. James,
    H. R. McAlexander, A. Kumar, M. Saitow, X. Wang, B. P. Pritchard,
    P. Verma, H. F. Schaefer III, K. Patkowski, R. A. King, E. F. Valeev,
    F. A. Evangelista, J. M. Turney, T. D. Crawford, and C. D. Sherrill,
    J. Chem. Theory Comput. 13(7) pp 3185--3197 (2017).
    (doi: 10.1021/acs.jctc.7b00174)


                         Additional Contributions by
    P. Kraus, H. Kruse, M. H. Lechner, M. C. Schieber, and R. A. Shaw

    -----------------------------------------------------------------------


    Psi4 started on: Saturday, 29 September 2018 04:37PM

    Process ID: 30426
    Host:       loro.prib.upf.edu
    PSIDATADIR: /shared/joao/test_parameterize/miniconda3/share/psi4
    Memory:     500.0 MiB
    Threads:    1
    
  ==> Input File <==

--------------------------------------------------------------------------
set_num_threads(1)
set_memory('5348 MB')

set { scf_mem_safety_factor 0.7 }

set { reference rks }
set { basis cc-pVDZ }

molecule MOL {
    0 1
    noreorient
    nocom
    symmetry c1
    O    1.014300  -0.002300   0.060500
    O    2.462400  -0.107500  -0.002400
    H    0.821200  -0.823600  -0.430600
    H    2.502885  -0.584961  -0.852828
}

set optking { frozen_dihedral = (" 3 1 2 4 ") }

set optking { dynamic_level = 1 
 geom_maxiter = 250
 print_trajectory_xyz_file = True }

energy, wfn = optimize('B3LYP-D3', return_wfn=True)

import os
os.chdir(os.environ['HTMD_PSI4_WORKDIR'])

oeprop(wfn, 'DIPOLE', 'QUADRUPOLE', 'MULLIKEN_CHARGES')

with open('psi4out.xyz', 'w') as f:
    f.write('4 ' )
    f.write('%.12f\n' % energy)
    f.write(MOL.save_string_xyz())
--------------------------------------------------------------------------
  Threads set to 1 by Python driver.

  Memory set to   4.981 GiB by Python driver.
gradient() will perform analytic gradient computation.

*** tstart() called on loro.prib.upf.edu
*** at Sat Sep 29 16:37:43 2018

   => Loading Basis Set <=

    Name: CC-PVDZ
    Role: ORBITAL
    Keyword: BASIS
    atoms 1-2 entry O          line   198 file /shared/joao/test_parameterize/miniconda3/share/psi4/basis/cc-pvdz.gbs 
    atoms 3-4 entry H          line    22 file /shared/joao/test_parameterize/miniconda3/share/psi4/basis/cc-pvdz.gbs 


         ---------------------------------------------------------
                                   SCF
            by Justin Turney, Rob Parrish, Andy Simmonett
                             and Daniel Smith
                              RKS Reference
                        1 Threads,   5100 MiB Core
         ---------------------------------------------------------

  ==> Geometry <==

    Molecular point group: c1
    Full point group: C1

    Geometry (in Angstrom), charge = 0, multiplicity = 1:

       Center              X                  Y                   Z               Mass       
    ------------   -----------------  -----------------  -----------------  -----------------
         O            1.014300000000    -0.002300000000     0.060500000000    15.994914619560
         O            2.462400000000    -0.107500000000    -0.002400000000    15.994914619560
         H            0.821200000000    -0.823600000000    -0.430600000000     1.007825032070
         H            2.502885000000    -0.584961000000    -0.852828000000     1.007825032070

  Running in c1 symmetry.

  Rotational constants: A =      9.24636  B =      0.13939  C =      0.13763 [cm^-1]
  Rotational constants: A = 277198.94059  B =   4178.83222  C =   4125.95149 [MHz]
  Nuclear repulsion =   36.878741567726166

  Charge       = 0
  Multiplicity = 1
  Electrons    = 18
  Nalpha       = 9
  Nbeta        = 9

  ==> Algorithm <==

  SCF Algorithm Type is DF.
  DIIS enabled.
  MOM disabled.
  Fractional occupation disabled.
  Guess Type is SAD.
  Energy threshold   = 1.00e-08
  Density threshold  = 1.00e-08
  Integral threshold = 0.00e+00

  ==> Primary Basis <==

  Basis Set: CC-PVDZ
    Blend: CC-PVDZ
    Number of shells: 18
    Number of basis function: 38
    Number of Cartesian functions: 40
    Spherical Harmonics?: true
    Max angular momentum: 2

  ==> DFT Potential <==

   => Composite Functional: B3LYP-D3ZERO <= 

    B3LYP-d3zero Hyb-GGA Exchange-Correlation Functional

    P. J. Stephens, F. J. Devlin, C. F. Chabalowski, and M. J. Frisch, J. Phys. Chem. 98, 11623 (1994)

    Deriv               =              1
    GGA                 =           TRUE
    Meta                =          FALSE

    Exchange Hybrid     =           TRUE
    MP2 Hybrid          =          FALSE

   => Exchange Functionals <=

    0.0800   Slater exchange
    0.7200         Becke 88

   => Exact (HF) Exchange <=

    0.2000               HF 

   => Correlation Functionals <=

    0.1900   Vosko, Wilk & Nusair (VWN5_RPA)
    0.8100   Lee, Yang & Parr

   => Molecular Quadrature <=

    Radial Scheme       =       TREUTLER
    Pruning Scheme      =           FLAT
    Nuclear Scheme      =       TREUTLER

    BS radius alpha     =              1
    Pruning alpha       =              1
    Radial Points       =             75
    Spherical Points    =            302
    Total Points        =          88270
    Total Blocks        =            712
    Max Points          =            256
    Max Functions       =             38

   => -D3ZERO: Empirical Dispersion <=

    Grimme's -D3 (zero-damping) Dispersion Correction
    Grimme S.; Antony J.; Ehrlich S.; Krieg H. (2010), J. Chem. Phys., 132: 154104

        S6 =   1.000000E+00
        S8 =   1.703000E+00
       SR6 =   1.261000E+00
       SR8 =   1.000000E+00
    ALPHA6 =   1.400000E+01

   => Loading Basis Set <=

    Name: (CC-PVDZ AUX)
    Role: JKFIT
    Keyword: DF_BASIS_SCF
    atoms 1-2 entry O          line   221 file /shared/joao/test_parameterize/miniconda3/share/psi4/basis/cc-pvdz-jkfit.gbs 
    atoms 3-4 entry H          line    51 file /shared/joao/test_parameterize/miniconda3/share/psi4/basis/cc-pvdz-jkfit.gbs 

  ==> Pre-Iterations <==

   -------------------------------------------------------
    Irrep   Nso     Nmo     Nalpha   Nbeta   Ndocc  Nsocc
   -------------------------------------------------------
     A         38      38       0       0       0       0
   -------------------------------------------------------
    Total      38      38       9       9       9       0
   -------------------------------------------------------

  ==> Integral Setup <==

  DFHelper Memory: AOs need 0.003 [GiB]; user supplied 3.486 [GiB]. Using in-core AOs.

  ==> MemDFJK: Density-Fitted J/K Matrices <==

    J tasked:                   Yes
    K tasked:                   Yes
    wK tasked:                   No
    OpenMP threads:               1
    Memory (MB):               3570
    Algorithm:                 Core
    Schwarz Cutoff:           1E-12
    Mask sparsity (%):       0.0000
    Fitting Condition:        1E-12

   => Auxiliary Basis Set <=

  Basis Set: (CC-PVDZ AUX)
    Blend: CC-PVDZ-JKFIT
    Number of shells: 66
    Number of basis function: 186
    Number of Cartesian functions: 212
    Spherical Harmonics?: true
    Max angular momentum: 3

  Minimum eigenvalue in the overlap matrix is 2.4360932621E-02.
  Using Symmetric Orthogonalization.

  SCF Guess: Superposition of Atomic Densities via on-the-fly atomic UHF.

  ==> Iterations <==

                           Total Energy        Delta E     RMS |[F,P]|

   @DF-RKS iter   0:  -151.64495491895076   -1.51645e+02   4.94036e-02 
   @DF-RKS iter   1:  -151.49477781082322    1.50177e-01   8.36493e-03 
   @DF-RKS iter   2:  -151.49288135683182    1.89645e-03   8.98264e-03 DIIS
   @DF-RKS iter   3:  -151.53644871057753   -4.35674e-02   1.01454e-03 DIIS
   @DF-RKS iter   4:  -151.53689147718941   -4.42767e-04   3.97881e-04 DIIS
   @DF-RKS iter   5:  -151.53695614949609   -6.46723e-05   1.92387e-04 DIIS
   @DF-RKS iter   6:  -151.53697567661396   -1.95271e-05   5.43742e-06 DIIS
   @DF-RKS iter   7:  -151.53697570855888   -3.19449e-08   1.34809e-06 DIIS
   @DF-RKS iter   8:  -151.53697571003192   -1.47304e-09   2.05116e-07 DIIS
   @DF-RKS iter   9:  -151.53697571007163   -3.97051e-11   3.55273e-08 DIIS
   @DF-RKS iter  10:  -151.53697571007331   -1.67688e-12   5.25187e-09 DIIS

  ==> Post-Iterations <==

    Orbital Energies [Eh]
    ---------------------

    Doubly Occupied:                                                      

       1A    -19.191949     2A    -19.191918     3A     -1.121267  
       4A     -0.887470     5A     -0.557549     6A     -0.427760  
       7A     -0.421391     8A     -0.354517     9A     -0.252372  

    Virtual:                                                              

      10A      0.014134    11A      0.020732    12A      0.128361  
      13A      0.554917    14A      0.572789    15A      0.863229  
      16A      0.865071    17A      0.914853    18A      0.925469  
      19A      1.002967    20A      1.044907    21A      1.173656  
      22A      1.277166    23A      1.299106    24A      1.562258  
      25A      1.582913    26A      1.780542    27A      2.023300  
      28A      2.092190    29A      2.335203    30A      2.379367  
      31A      2.628758    32A      2.880172    33A      2.902853  
      34A      3.002908    35A      3.165151    36A      3.473393  
      37A      3.559016    38A      3.821176  

    Final Occupation by Irrep:
              A 
    DOCC [     9 ]

  Energy converged.

  @DF-RKS Final Energy:  -151.53697571007331

   => Energetics <=

    Nuclear Repulsion Energy =             36.8787415677261663
    One-Electron Energy =                -281.6346070834431430
    Two-Electron Energy =                 107.6817337729338249
    DFT Exchange-Correlation Energy =     -14.4626608272901613
    Empirical Dispersion Energy =          -0.0001831400000000
    VV10 Nonlocal Energy =                  0.0000000000000000
    Total Energy =                       -151.5369757100733068



Properties will be evaluated at   0.000000,   0.000000,   0.000000 [a0]

Properties computed using the SCF density matrix

  Nuclear Dipole Moment: [e a0]
     X:    58.8417      Y:    -4.3217      Z:    -1.5470

  Electronic Dipole Moment: [e a0]
     X:   -58.9393      Y:     3.4914      Z:     0.6893

  Dipole Moment: [e a0]
     X:    -0.0976      Y:    -0.8303      Z:    -0.8577     Total:     1.1977

  Dipole Moment: [D]
     X:    -0.2480      Y:    -2.1104      Z:    -2.1799     Total:     3.0443


*** tstop() called on loro.prib.upf.edu at Sat Sep 29 16:37:48 2018
Module time:
	user time   =       3.28 seconds =       0.05 minutes
	system time =       0.09 seconds =       0.00 minutes
	total time  =          5 seconds =       0.08 minutes
Total time:
	user time   =       3.28 seconds =       0.05 minutes
	system time =       0.09 seconds =       0.00 minutes
	total time  =          5 seconds =       0.08 minutes

*** tstart() called on loro.prib.upf.edu
*** at Sat Sep 29 16:37:48 2018


         ------------------------------------------------------------
                                   SCF GRAD                          
                          Rob Parrish, Justin Turney,                
                       Andy Simmonett, and Alex Sokolov              
         ------------------------------------------------------------

  ==> Geometry <==

    Molecular point group: c1
    Full point group: C1

    Geometry (in Angstrom), charge = 0, multiplicity = 1:

       Center              X                  Y                   Z               Mass       
    ------------   -----------------  -----------------  -----------------  -----------------
         O            1.014300000000    -0.002300000000     0.060500000000    15.994914619560
         O            2.462400000000    -0.107500000000    -0.002400000000    15.994914619560
         H            0.821200000000    -0.823600000000    -0.430600000000     1.007825032070
         H            2.502885000000    -0.584961000000    -0.852828000000     1.007825032070

  Nuclear repulsion =   36.878741567726166

  ==> Basis Set <==

  Basis Set: CC-PVDZ
    Blend: CC-PVDZ
    Number of shells: 18
    Number of basis function: 38
    Number of Cartesian functions: 40
    Spherical Harmonics?: true
    Max angular momentum: 2

  ==> DFJKGrad: Density-Fitted SCF Gradients <==

    Gradient:                    1
    J tasked:                  Yes
    K tasked:                  Yes
    wK tasked:                  No
    OpenMP threads:              1
    Integrals threads:           1
    Memory (MB):              3570
    Schwarz Cutoff:          0E+00
    Fitting Condition:       1E-12

   => Auxiliary Basis Set <=

  Basis Set: (CC-PVDZ AUX)
    Blend: CC-PVDZ-JKFIT
    Number of shells: 66
    Number of basis function: 186
    Number of Cartesian functions: 212
    Spherical Harmonics?: true
    Max angular momentum: 3

  ==> DFT Potential <==

   => Composite Functional: B3LYP-D3ZERO <= 

    B3LYP-d3zero Hyb-GGA Exchange-Correlation Functional

    P. J. Stephens, F. J. Devlin, C. F. Chabalowski, and M. J. Frisch, J. Phys. Chem. 98, 11623 (1994)

    Deriv               =              1
    GGA                 =           TRUE
    Meta                =          FALSE

    Exchange Hybrid     =           TRUE
    MP2 Hybrid          =          FALSE

   => Exchange Functionals <=

    0.0800   Slater exchange
    0.7200         Becke 88

   => Exact (HF) Exchange <=

    0.2000               HF 

   => Correlation Functionals <=

    0.1900   Vosko, Wilk & Nusair (VWN5_RPA)
    0.8100   Lee, Yang & Parr

   => Molecular Quadrature <=

    Radial Scheme       =       TREUTLER
    Pruning Scheme      =           FLAT
    Nuclear Scheme      =       TREUTLER

    BS radius alpha     =              1
    Pruning alpha       =              1
    Radial Points       =             75
    Spherical Points    =            302
    Total Points        =          88270
    Total Blocks        =            712
    Max Points          =            256
    Max Functions       =             38


  -Total Gradient:
     Atom            X                  Y                   Z
    ------   -----------------  -----------------  -----------------
       1        0.005628327971     0.005332653766     0.005123632932
       2       -0.004352438798     0.005476536358     0.006013319654
       3        0.015995412947    -0.003301251592    -0.009557309587
       4       -0.017272459037    -0.007517754943    -0.001589783416


*** tstop() called on loro.prib.upf.edu at Sat Sep 29 16:37:49 2018
Module time:
	user time   =       0.64 seconds =       0.01 minutes
	system time =       0.02 seconds =       0.00 minutes
	total time  =          1 seconds =       0.02 minutes
Total time:
	user time   =       3.92 seconds =       0.07 minutes
	system time =       0.12 seconds =       0.00 minutes
	total time  =          6 seconds =       0.10 minutes

			-----------------------------------------
			 OPTKING 2.0: for geometry optimizations 
			  - R.A. King,  Bethel University        
			-----------------------------------------
	At level 1: Red. Int., RFO, no backsteps, dynamic trust

	Internal coordinates to be generated automatically.
	Detected frag 1 with atoms:  1 2 3 4
	---Fragment 1 Bond Connectivity---
	 1 : 2 3
	 2 : 1 4
	 3 : 1
	 4 : 2

	Assuming in current code that numbering for constraints corresponds to unified fragment.
	Frozen dihedral atom list: 
	     3     1     2     4
	---Fragment 1 Geometry and Gradient---
	 O           1.9167492166       -0.0043463701        0.1143284310
	 O           4.6532616296       -0.2031455593       -0.0045353427
	 H           1.5518431003       -1.5563784430       -0.8137160728
	 H           4.7297671921       -1.1054160884       -1.6116113585
	             0.0056283280        0.0053326538        0.0051236329
	            -0.0043524388        0.0054765364        0.0060133197
	             0.0159954129       -0.0033012516       -0.0095573096
	            -0.0172724590       -0.0075177549       -0.0015897834

	Previous optimization step data not found.  Starting new optimization.

	---Fragment 1 Intrafragment Coordinates---
	 - Coordinate -           - BOHR/RAD -       - ANG/DEG -
	 R(1,2)           =         2.746297	       1.453278
	 R(1,3)           =         1.844784	       0.976217
	 R(2,4)           =         1.844624	       0.976133
	 B(1,2,4)         =         1.685490	      96.571464
	 B(2,1,3)         =         1.685473	      96.570488
	*D(3,1,2,4)       =         0.523598	      29.999967

	Current energy   :      -151.5369757101

	Generating empirical Hessian (Schlegel '84) for each fragment.
	Taking RFO optimization step.
	Going to follow RFO solution 1.
	Using RFO vector 1.
	Norm of target step-size    0.26568
	Projected energy change by RFO approximation:        -0.0169346639

	Back-transformation to cartesian coordinates...
	Successfully converged to displaced geometry.

	Back-transformation to cartesian coordinates to adjust frozen coordinates...
	Successfully converged to displaced geometry.

	--- Internal Coordinate Step in ANG or DEG, aJ/ANG or AJ/DEG ---
	 ---------------------------------------------------------------------------
	   Coordinate                Previous        Force       Change         New 
	   ----------                --------       ------       ------       ------
	    1 R(1,2)          =      1.453278     0.177887     0.029214     1.482492
	    2 R(1,3)          =      0.976217    -0.036399    -0.004377     0.971841
	    3 R(2,4)          =      0.976133    -0.035777    -0.004300     0.971833
	    4 B(1,2,4)        =     96.571464     0.002415    10.491979   107.063443
	    5 B(2,1,3)        =     96.570488     0.002416    10.493936   107.064423
	    6 *D(3,1,2,4)     =     29.999967     0.000000     0.000000    29.999967
	 ---------------------------------------------------------------------------
	Successfully symmetrized geometry.

  ==> Convergence Check <==

  Measures of convergence in internal coordinates in au.
  Criteria marked as inactive (o), active & met (*), and active & unmet ( ).
  --------------------------------------------------------------------------------------------- ~
   Step     Total Energy     Delta E     MAX Force     RMS Force      MAX Disp      RMS Disp    ~
  --------------------------------------------------------------------------------------------- ~
    Convergence Criteria    1.00e-06 *    3.00e-04 *             o    1.20e-03 *             o  ~
  --------------------------------------------------------------------------------------------- ~
      1    -151.53697571   -1.52e+02      3.17e-02      2.05e-02 o    1.83e-01      1.08e-01 o  ~
  ---------------------------------------------------------------------------------------------

	Writing optimization data to binary file.
	Structure for next step:
	Cartesian Geometry (in Angstrom)
	    O     0.9980582598  -0.0352719798   0.0667855649
	    O     2.4754275946  -0.1017935146  -0.0368353351
	    H     0.6447008374  -0.8175536025  -0.3888992657
	    H     2.6825983082  -0.5637419032  -0.8663789641
			--------------------------
			 OPTKING Finished Execution 
			--------------------------

    Structure for next step:
    Molecular point group: c1
    Full point group: C1

    Geometry (in Angstrom), charge = 0, multiplicity = 1:

    O            0.998058259849    -0.035271979752     0.066785564864
    O            2.475427594565    -0.101793514556    -0.036835335113
    H            0.644700837400    -0.817553602528    -0.388899265697
    H            2.682598308187    -0.563741903165    -0.866378964054

gradient() will perform analytic gradient computation.

*** tstart() called on loro.prib.upf.edu
*** at Sat Sep 29 16:37:49 2018

   => Loading Basis Set <=

    Name: CC-PVDZ
    Role: ORBITAL
    Keyword: BASIS
    atoms 1-2 entry O          line   198 file /shared/joao/test_parameterize/miniconda3/share/psi4/basis/cc-pvdz.gbs 
    atoms 3-4 entry H          line    22 file /shared/joao/test_parameterize/miniconda3/share/psi4/basis/cc-pvdz.gbs 


         ---------------------------------------------------------
                                   SCF
            by Justin Turney, Rob Parrish, Andy Simmonett
                             and Daniel Smith
                              RKS Reference
                        1 Threads,   5100 MiB Core
         ---------------------------------------------------------

  ==> Geometry <==

    Molecular point group: c1
    Full point group: C1

    Geometry (in Angstrom), charge = 0, multiplicity = 1:

       Center              X                  Y                   Z               Mass       
    ------------   -----------------  -----------------  -----------------  -----------------
         O            0.998058259849    -0.035271979752     0.066785564864    15.994914619560
         O            2.475427594565    -0.101793514556    -0.036835335113    15.994914619560
         H            0.644700837400    -0.817553602528    -0.388899265697     1.007825032070
         H            2.682598308187    -0.563741903165    -0.866378964054     1.007825032070

  Running in c1 symmetry.

  Rotational constants: A =      9.68946  B =      0.13789  C =      0.13639 [cm^-1]
  Rotational constants: A = 290482.58705  B =   4133.74189  C =   4088.81352 [MHz]
  Nuclear repulsion =   36.047950314892766

  Charge       = 0
  Multiplicity = 1
  Electrons    = 18
  Nalpha       = 9
  Nbeta        = 9

  ==> Algorithm <==

  SCF Algorithm Type is DF.
  DIIS enabled.
  MOM disabled.
  Fractional occupation disabled.
  Guess Type is READ.
  Energy threshold   = 1.00e-08
  Density threshold  = 1.00e-08
  Integral threshold = 0.00e+00

  ==> Primary Basis <==

  Basis Set: CC-PVDZ
    Blend: CC-PVDZ
    Number of shells: 18
    Number of basis function: 38
    Number of Cartesian functions: 40
    Spherical Harmonics?: true
    Max angular momentum: 2

  ==> DFT Potential <==

   => Composite Functional: B3LYP-D3ZERO <= 

    B3LYP-d3zero Hyb-GGA Exchange-Correlation Functional

    P. J. Stephens, F. J. Devlin, C. F. Chabalowski, and M. J. Frisch, J. Phys. Chem. 98, 11623 (1994)

    Deriv               =              1
    GGA                 =           TRUE
    Meta                =          FALSE

    Exchange Hybrid     =           TRUE
    MP2 Hybrid          =          FALSE

   => Exchange Functionals <=

    0.0800   Slater exchange
    0.7200         Becke 88

   => Exact (HF) Exchange <=

    0.2000               HF 

   => Correlation Functionals <=

    0.1900   Vosko, Wilk & Nusair (VWN5_RPA)
    0.8100   Lee, Yang & Parr

   => Molecular Quadrature <=

    Radial Scheme       =       TREUTLER
    Pruning Scheme      =           FLAT
    Nuclear Scheme      =       TREUTLER

    BS radius alpha     =              1
    Pruning alpha       =              1
    Radial Points       =             75
    Spherical Points    =            302
    Total Points        =          88310
    Total Blocks        =            715
    Max Points          =            256
    Max Functions       =             38

   => -D3ZERO: Empirical Dispersion <=

    Grimme's -D3 (zero-damping) Dispersion Correction
    Grimme S.; Antony J.; Ehrlich S.; Krieg H. (2010), J. Chem. Phys., 132: 154104

        S6 =   1.000000E+00
        S8 =   1.703000E+00
       SR6 =   1.261000E+00
       SR8 =   1.000000E+00
    ALPHA6 =   1.400000E+01

   => Loading Basis Set <=

    Name: (CC-PVDZ AUX)
    Role: JKFIT
    Keyword: DF_BASIS_SCF
    atoms 1-2 entry O          line   221 file /shared/joao/test_parameterize/miniconda3/share/psi4/basis/cc-pvdz-jkfit.gbs 
    atoms 3-4 entry H          line    51 file /shared/joao/test_parameterize/miniconda3/share/psi4/basis/cc-pvdz-jkfit.gbs 

  Reading orbitals from file 180, no projection.

  ==> Pre-Iterations <==

   -------------------------------------------------------
    Irrep   Nso     Nmo     Nalpha   Nbeta   Ndocc  Nsocc
   -------------------------------------------------------
     A         38      38       0       0       0       0
   -------------------------------------------------------
    Total      38      38       9       9       9       0
   -------------------------------------------------------

  ==> Integral Setup <==

  DFHelper Memory: AOs need 0.003 [GiB]; user supplied 3.486 [GiB]. Using in-core AOs.

  ==> MemDFJK: Density-Fitted J/K Matrices <==

    J tasked:                   Yes
    K tasked:                   Yes
    wK tasked:                   No
    OpenMP threads:               1
    Memory (MB):               3570
    Algorithm:                 Core
    Schwarz Cutoff:           1E-12
    Mask sparsity (%):       0.0000
    Fitting Condition:        1E-12

   => Auxiliary Basis Set <=

  Basis Set: (CC-PVDZ AUX)
    Blend: CC-PVDZ-JKFIT
    Number of shells: 66
    Number of basis function: 186
    Number of Cartesian functions: 212
    Spherical Harmonics?: true
    Max angular momentum: 3

  Minimum eigenvalue in the overlap matrix is 2.6821392781E-02.
  Using Symmetric Orthogonalization.

  SCF Guess: Orbitals guess was supplied from a previous computation.

  ==> Iterations <==

                           Total Energy        Delta E     RMS |[F,P]|

   @DF-RKS iter   0:  -151.53223562421113   -1.51532e+02   3.36450e-03 
   @DF-RKS iter   1:  -151.53923575894652   -7.00013e-03   1.02734e-03 
   @DF-RKS iter   2:  -151.53958770246325   -3.51944e-04   6.18309e-04 DIIS
   @DF-RKS iter   3:  -151.53977590419947   -1.88202e-04   1.80401e-04 DIIS
   @DF-RKS iter   4:  -151.53979349033412   -1.75861e-05   2.19027e-05 DIIS
   @DF-RKS iter   5:  -151.53979385665363   -3.66320e-07   2.17474e-06 DIIS
   @DF-RKS iter   6:  -151.53979385554993    1.10370e-09   3.24939e-06 DIIS
   @DF-RKS iter   7:  -151.53979386118272   -5.63278e-09   1.37497e-07 DIIS
   @DF-RKS iter   8:  -151.53979386119752   -1.48077e-11   2.07623e-08 DIIS
   @DF-RKS iter   9:  -151.53979386119781   -2.84217e-13   2.76414e-09 DIIS

  ==> Post-Iterations <==

    Orbital Energies [Eh]
    ---------------------

    Doubly Occupied:                                                      

       1A    -19.190936     2A    -19.190907     3A     -1.095995  
       4A     -0.900062     5A     -0.557949     6A     -0.411900  
       7A     -0.409355     8A     -0.351519     9A     -0.254601  

    Virtual:                                                              

      10A     -0.003836    11A      0.029294    12A      0.121334  
      13A      0.551680    14A      0.582054    15A      0.858106  
      16A      0.867253    17A      0.951631    18A      0.951701  
      19A      0.989751    20A      1.054359    21A      1.273246  
      22A      1.282377    23A      1.341989    24A      1.452051  
      25A      1.553251    26A      1.800131    27A      2.036327  
      28A      2.093814    29A      2.354370    30A      2.369868  
      31A      2.629028    32A      2.877509    33A      2.909820  
      34A      2.969509    35A      3.136637    36A      3.534111  
      37A      3.556294    38A      3.752241  

    Final Occupation by Irrep:
              A 
    DOCC [     9 ]

  Energy converged.

  @DF-RKS Final Energy:  -151.53979386119781

   => Energetics <=

    Nuclear Repulsion Energy =             36.0479503148927662
    One-Electron Energy =                -280.0733534336405910
    Two-Electron Energy =                 106.9345261388013881
    DFT Exchange-Correlation Energy =     -14.4485295912513791
    Empirical Dispersion Energy =          -0.0003872900000000
    VV10 Nonlocal Energy =                  0.0000000000000000
    Total Energy =                       -151.5397938611977793



Properties will be evaluated at   0.000000,   0.000000,   0.000000 [a0]

Properties computed using the SCF density matrix

  Nuclear Dipole Moment: [e a0]
     X:    58.7992      Y:    -4.6824      Z:    -1.9194

  Electronic Dipole Moment: [e a0]
     X:   -58.8972      Y:     3.8483      Z:     1.0577

  Dipole Moment: [e a0]
     X:    -0.0980      Y:    -0.8341      Z:    -0.8616     Total:     1.2032

  Dipole Moment: [D]
     X:    -0.2491      Y:    -2.1202      Z:    -2.1900     Total:     3.0584


*** tstop() called on loro.prib.upf.edu at Sat Sep 29 16:37:52 2018
Module time:
	user time   =       2.52 seconds =       0.04 minutes
	system time =       0.07 seconds =       0.00 minutes
	total time  =          3 seconds =       0.05 minutes
Total time:
	user time   =       6.45 seconds =       0.11 minutes
	system time =       0.19 seconds =       0.00 minutes
	total time  =          9 seconds =       0.15 minutes

*** tstart() called on loro.prib.upf.edu
*** at Sat Sep 29 16:37:52 2018


         ------------------------------------------------------------
                                   SCF GRAD                          
                          Rob Parrish, Justin Turney,                
                       Andy Simmonett, and Alex Sokolov              
         ------------------------------------------------------------

  ==> Geometry <==

    Molecular point group: c1
    Full point group: C1

    Geometry (in Angstrom), charge = 0, multiplicity = 1:

       Center              X                  Y                   Z               Mass       
    ------------   -----------------  -----------------  -----------------  -----------------
         O            0.998058259849    -0.035271979752     0.066785564864    15.994914619560
         O            2.475427594565    -0.101793514556    -0.036835335113    15.994914619560
         H            0.644700837400    -0.817553602528    -0.388899265697     1.007825032070
         H            2.682598308187    -0.563741903165    -0.866378964054     1.007825032070

  Nuclear repulsion =   36.047950314892766

  ==> Basis Set <==

  Basis Set: CC-PVDZ
    Blend: CC-PVDZ
    Number of shells: 18
    Number of basis function: 38
    Number of Cartesian functions: 40
    Spherical Harmonics?: true
    Max angular momentum: 2

  ==> DFJKGrad: Density-Fitted SCF Gradients <==

    Gradient:                    1
    J tasked:                  Yes
    K tasked:                  Yes
    wK tasked:                  No
    OpenMP threads:              1
    Integrals threads:           1
    Memory (MB):              3570
    Schwarz Cutoff:          0E+00
    Fitting Condition:       1E-12

   => Auxiliary Basis Set <=

  Basis Set: (CC-PVDZ AUX)
    Blend: CC-PVDZ-JKFIT
    Number of shells: 66
    Number of basis function: 186
    Number of Cartesian functions: 212
    Spherical Harmonics?: true
    Max angular momentum: 3

  ==> DFT Potential <==

   => Composite Functional: B3LYP-D3ZERO <= 

    B3LYP-d3zero Hyb-GGA Exchange-Correlation Functional

    P. J. Stephens, F. J. Devlin, C. F. Chabalowski, and M. J. Frisch, J. Phys. Chem. 98, 11623 (1994)

    Deriv               =              1
    GGA                 =           TRUE
    Meta                =          FALSE

    Exchange Hybrid     =           TRUE
    MP2 Hybrid          =          FALSE

   => Exchange Functionals <=

    0.0800   Slater exchange
    0.7200         Becke 88

   => Exact (HF) Exchange <=

    0.2000               HF 

   => Correlation Functionals <=

    0.1900   Vosko, Wilk & Nusair (VWN5_RPA)
    0.8100   Lee, Yang & Parr

   => Molecular Quadrature <=

    Radial Scheme       =       TREUTLER
    Pruning Scheme      =           FLAT
    Nuclear Scheme      =       TREUTLER

    BS radius alpha     =              1
    Pruning alpha       =              1
    Radial Points       =             75
    Spherical Points    =            302
    Total Points        =          88310
    Total Blocks        =            715
    Max Points          =            256
    Max Functions       =             38


  -Total Gradient:
     Atom            X                  Y                   Z
    ------   -----------------  -----------------  -----------------
       1       -0.013204326118    -0.009200582337     0.004138350396
       2        0.012476490878     0.002973304425    -0.010573394951
       3       -0.005561529481     0.007202940356    -0.000077244161
       4        0.006288736722    -0.000980987760     0.006506790298


*** tstop() called on loro.prib.upf.edu at Sat Sep 29 16:37:53 2018
Module time:
	user time   =       0.65 seconds =       0.01 minutes
	system time =       0.02 seconds =       0.00 minutes
	total time  =          1 seconds =       0.02 minutes
Total time:
	user time   =       7.10 seconds =       0.12 minutes
	system time =       0.21 seconds =       0.00 minutes
	total time  =         10 seconds =       0.17 minutes

			-----------------------------------------
			 OPTKING 2.0: for geometry optimizations 
			  - R.A. King,  Bethel University        
			-----------------------------------------
	At level 1: Red. Int., RFO, no backsteps, dynamic trust

	Previous internal coordinate definitions found.
	---Fragment 1 Geometry and Gradient---
	 O           1.8860567758       -0.0666543819        0.1262064272
	 O           4.6778802155       -0.1923618646       -0.0696086954
	 H           1.2183080203       -1.5449524077       -0.7349131054
	 H           5.0693761270       -1.0653178066       -1.6372189694
	            -0.0132043261       -0.0092005823        0.0041383504
	             0.0124764909        0.0029733044       -0.0105733950
	            -0.0055615295        0.0072029404       -0.0000772442
	             0.0062887367       -0.0009809878        0.0065067903

	---Fragment 1 Intrafragment Coordinates---
	 - Coordinate -           - BOHR/RAD -       - ANG/DEG -
	 R(1,2)           =         2.801504	       1.482492
	 R(1,3)           =         1.836513	       0.971841
	 R(2,4)           =         1.836498	       0.971833
	 B(1,2,4)         =         1.868610	     107.063443
	 B(2,1,3)         =         1.868627	     107.064423
	*D(3,1,2,4)       =         0.523598	      29.999967

	Current energy   :      -151.5397938612

	Energy change for the previous step:
		Projected    :        -0.0169346639
		Actual       :        -0.0028181511
	Energy ratio indicates iffy step: Trust radius decreased to 1.250e-01.


	Performing BFGS update.
	Previous computed or guess Hessian on step 1.
	Steps to be used in Hessian update: 1
	Taking RFO optimization step.
	Going to follow RFO solution 1.
	Using RFO vector 1.
	Norm of target step-size    0.07881
	Projected energy change by RFO approximation:        -0.0009238928

	Back-transformation to cartesian coordinates...
	Successfully converged to displaced geometry.

	Back-transformation to cartesian coordinates to adjust frozen coordinates...
	Successfully converged to displaced geometry.

	--- Internal Coordinate Step in ANG or DEG, aJ/ANG or AJ/DEG ---
	 ---------------------------------------------------------------------------
	   Coordinate                Previous        Force       Change         New 
	   ----------                --------       ------       ------       ------
	    1 R(1,2)          =      1.482492    -0.155674    -0.017474     1.465018
	    2 R(1,3)          =      0.971841     0.030825     0.002524     0.974365
	    3 R(2,4)          =      0.971833     0.030888     0.002529     0.974362
	    4 B(1,2,4)        =    107.063443    -0.001017    -2.887481   104.175962
	    5 B(2,1,3)        =    107.064423    -0.001017    -2.888274   104.176149
	    6 *D(3,1,2,4)     =     29.999967     0.000000    -0.000000    29.999967
	 ---------------------------------------------------------------------------
	Successfully symmetrized geometry.

  ==> Convergence Check <==

  Measures of convergence in internal coordinates in au.
  Criteria marked as inactive (o), active & met (*), and active & unmet ( ).
  ---------------------------------------------------------------------------------------------
   Step     Total Energy     Delta E     MAX Force     RMS Force      MAX Disp      RMS Disp   
  ---------------------------------------------------------------------------------------------
    Convergence Criteria    1.00e-06 *    3.00e-04 *             o    1.20e-03 *             o
  ---------------------------------------------------------------------------------------------
      2    -151.53979386   -2.82e-03      1.89e-02      1.11e-02 o    5.04e-02      3.22e-02 o  ~
  ---------------------------------------------------------------------------------------------

	Writing optimization data to binary file.
	Structure for next step:
	Cartesian Geometry (in Angstrom)
	    O     1.0072903550  -0.0246793173   0.0660289138
	    O     2.4674197700  -0.1019156153  -0.0252615451
	    H     0.6964767557  -0.8204280519  -0.4025487791
	    H     2.6295981193  -0.5713380155  -0.8635465896
			--------------------------
			 OPTKING Finished Execution 
			--------------------------

    Structure for next step:
    Molecular point group: c1
    Full point group: C1

    Geometry (in Angstrom), charge = 0, multiplicity = 1:

    O            1.007290354967    -0.024679317319     0.066028913848
    O            2.467419769999    -0.101915615284    -0.025261545087
    H            0.696476755744    -0.820428051922    -0.402548779128
    H            2.629598119290    -0.571338015476    -0.863546589633

gradient() will perform analytic gradient computation.

*** tstart() called on loro.prib.upf.edu
*** at Sat Sep 29 16:37:53 2018

   => Loading Basis Set <=

    Name: CC-PVDZ
    Role: ORBITAL
    Keyword: BASIS
    atoms 1-2 entry O          line   198 file /shared/joao/test_parameterize/miniconda3/share/psi4/basis/cc-pvdz.gbs 
    atoms 3-4 entry H          line    22 file /shared/joao/test_parameterize/miniconda3/share/psi4/basis/cc-pvdz.gbs 


         ---------------------------------------------------------
                                   SCF
            by Justin Turney, Rob Parrish, Andy Simmonett
                             and Daniel Smith
                              RKS Reference
                        1 Threads,   5100 MiB Core
         ---------------------------------------------------------

  ==> Geometry <==

    Molecular point group: c1
    Full point group: C1

    Geometry (in Angstrom), charge = 0, multiplicity = 1:

       Center              X                  Y                   Z               Mass       
    ------------   -----------------  -----------------  -----------------  -----------------
         O            1.007290354967    -0.024679317319     0.066028913848    15.994914619560
         O            2.467419769999    -0.101915615284    -0.025261545087    15.994914619560
         H            0.696476755744    -0.820428051922    -0.402548779128     1.007825032070
         H            2.629598119290    -0.571338015476    -0.863546589633     1.007825032070

  Running in c1 symmetry.

  Rotational constants: A =      9.51466  B =      0.13858  C =      0.13698 [cm^-1]
  Rotational constants: A = 285242.29132  B =   4154.43896  C =   4106.46647 [MHz]
  Nuclear repulsion =   36.417523671249484

  Charge       = 0
  Multiplicity = 1
  Electrons    = 18
  Nalpha       = 9
  Nbeta        = 9

  ==> Algorithm <==

  SCF Algorithm Type is DF.
  DIIS enabled.
  MOM disabled.
  Fractional occupation disabled.
  Guess Type is READ.
  Energy threshold   = 1.00e-08
  Density threshold  = 1.00e-08
  Integral threshold = 0.00e+00

  ==> Primary Basis <==

  Basis Set: CC-PVDZ
    Blend: CC-PVDZ
    Number of shells: 18
    Number of basis function: 38
    Number of Cartesian functions: 40
    Spherical Harmonics?: true
    Max angular momentum: 2

  ==> DFT Potential <==

   => Composite Functional: B3LYP-D3ZERO <= 

    B3LYP-d3zero Hyb-GGA Exchange-Correlation Functional

    P. J. Stephens, F. J. Devlin, C. F. Chabalowski, and M. J. Frisch, J. Phys. Chem. 98, 11623 (1994)

    Deriv               =              1
    GGA                 =           TRUE
    Meta                =          FALSE

    Exchange Hybrid     =           TRUE
    MP2 Hybrid          =          FALSE

   => Exchange Functionals <=

    0.0800   Slater exchange
    0.7200         Becke 88

   => Exact (HF) Exchange <=

    0.2000               HF 

   => Correlation Functionals <=

    0.1900   Vosko, Wilk & Nusair (VWN5_RPA)
    0.8100   Lee, Yang & Parr

   => Molecular Quadrature <=

    Radial Scheme       =       TREUTLER
    Pruning Scheme      =           FLAT
    Nuclear Scheme      =       TREUTLER

    BS radius alpha     =              1
    Pruning alpha       =              1
    Radial Points       =             75
    Spherical Points    =            302
    Total Points        =          88300
    Total Blocks        =            715
    Max Points          =            255
    Max Functions       =             38

   => -D3ZERO: Empirical Dispersion <=

    Grimme's -D3 (zero-damping) Dispersion Correction
    Grimme S.; Antony J.; Ehrlich S.; Krieg H. (2010), J. Chem. Phys., 132: 154104

        S6 =   1.000000E+00
        S8 =   1.703000E+00
       SR6 =   1.261000E+00
       SR8 =   1.000000E+00
    ALPHA6 =   1.400000E+01

   => Loading Basis Set <=

    Name: (CC-PVDZ AUX)
    Role: JKFIT
    Keyword: DF_BASIS_SCF
    atoms 1-2 entry O          line   221 file /shared/joao/test_parameterize/miniconda3/share/psi4/basis/cc-pvdz-jkfit.gbs 
    atoms 3-4 entry H          line    51 file /shared/joao/test_parameterize/miniconda3/share/psi4/basis/cc-pvdz-jkfit.gbs 

  Reading orbitals from file 180, no projection.

  ==> Pre-Iterations <==

   -------------------------------------------------------
    Irrep   Nso     Nmo     Nalpha   Nbeta   Ndocc  Nsocc
   -------------------------------------------------------
     A         38      38       0       0       0       0
   -------------------------------------------------------
    Total      38      38       9       9       9       0
   -------------------------------------------------------

  ==> Integral Setup <==

  DFHelper Memory: AOs need 0.003 [GiB]; user supplied 3.486 [GiB]. Using in-core AOs.

  ==> MemDFJK: Density-Fitted J/K Matrices <==

    J tasked:                   Yes
    K tasked:                   Yes
    wK tasked:                   No
    OpenMP threads:               1
    Memory (MB):               3570
    Algorithm:                 Core
    Schwarz Cutoff:           1E-12
    Mask sparsity (%):       0.0000
    Fitting Condition:        1E-12

   => Auxiliary Basis Set <=

  Basis Set: (CC-PVDZ AUX)
    Blend: CC-PVDZ-JKFIT
    Number of shells: 66
    Number of basis function: 186
    Number of Cartesian functions: 212
    Spherical Harmonics?: true
    Max angular momentum: 3

  Minimum eigenvalue in the overlap matrix is 2.5575388641E-02.
  Using Symmetric Orthogonalization.

  SCF Guess: Orbitals guess was supplied from a previous computation.

  ==> Iterations <==

                           Total Energy        Delta E     RMS |[F,P]|

   @DF-RKS iter   0:  -151.54397758779169   -1.51544e+02   1.21218e-03 
   @DF-RKS iter   1:  -151.54089901916106    3.07857e-03   3.99470e-04 
   @DF-RKS iter   2:  -151.54095673093340   -5.77118e-05   1.94522e-04 DIIS
   @DF-RKS iter   3:  -151.54097541773064   -1.86868e-05   3.50844e-05 DIIS
   @DF-RKS iter   4:  -151.54097606555712   -6.47826e-07   7.09333e-06 DIIS
   @DF-RKS iter   5:  -151.54097610164771   -3.60906e-08   4.02170e-07 DIIS
   @DF-RKS iter   6:  -151.54097610174156   -9.38485e-11   4.23823e-07 DIIS
   @DF-RKS iter   7:  -151.54097610183487   -9.33085e-11   6.44250e-08 DIIS
   @DF-RKS iter   8:  -151.54097610183734   -2.47269e-12   5.38503e-09 DIIS

  ==> Post-Iterations <==

    Orbital Energies [Eh]
    ---------------------

    Doubly Occupied:                                                      

       1A    -19.190668     2A    -19.190638     3A     -1.105672  
       4A     -0.894690     5A     -0.559078     6A     -0.417388  
       7A     -0.413272     8A     -0.352163     9A     -0.252502  

    Virtual:                                                              

      10A      0.008401    11A      0.024655    12A      0.124393  
      13A      0.555649    14A      0.577669    15A      0.860618  
      16A      0.867019    17A      0.941189    18A      0.941551  
      19A      0.991896    20A      1.049423    21A      1.259894  
      22A      1.277978    23A      1.326010    24A      1.479877  
      25A      1.561588    26A      1.792838    27A      2.032306  
      28A      2.090993    29A      2.338851    30A      2.376034  
      31A      2.621451    32A      2.876040    33A      2.913939  
      34A      2.985172    35A      3.159521    36A      3.515243  
      37A      3.553438    38A      3.783553  

    Final Occupation by Irrep:
              A 
    DOCC [     9 ]

  Energy converged.

  @DF-RKS Final Energy:  -151.54097610183734

   => Energetics <=

    Nuclear Repulsion Energy =             36.4175236712494836
    One-Electron Energy =                -280.7854084971362454
    Two-Electron Energy =                 107.2818006552542727
    DFT Exchange-Correlation Energy =     -14.4545820912048768
    Empirical Dispersion Energy =          -0.0003098400000000
    VV10 Nonlocal Energy =                  0.0000000000000000
    Total Energy =                       -151.5409761018373729



Properties will be evaluated at   0.000000,   0.000000,   0.000000 [a0]

Properties computed using the SCF density matrix

  Nuclear Dipole Moment: [e a0]
     X:    58.8154      Y:    -4.5439      Z:    -1.7763

  Electronic Dipole Moment: [e a0]
     X:   -58.9137      Y:     3.7070      Z:     0.9118

  Dipole Moment: [e a0]
     X:    -0.0983      Y:    -0.8369      Z:    -0.8644     Total:     1.2072

  Dipole Moment: [D]
     X:    -0.2499      Y:    -2.1271      Z:    -2.1972     Total:     3.0683


*** tstop() called on loro.prib.upf.edu at Sat Sep 29 16:37:57 2018
Module time:
	user time   =       2.46 seconds =       0.04 minutes
	system time =       0.07 seconds =       0.00 minutes
	total time  =          4 seconds =       0.07 minutes
Total time:
	user time   =       9.57 seconds =       0.16 minutes
	system time =       0.29 seconds =       0.00 minutes
	total time  =         14 seconds =       0.23 minutes

*** tstart() called on loro.prib.upf.edu
*** at Sat Sep 29 16:37:57 2018


         ------------------------------------------------------------
                                   SCF GRAD                          
                          Rob Parrish, Justin Turney,                
                       Andy Simmonett, and Alex Sokolov              
         ------------------------------------------------------------

  ==> Geometry <==

    Molecular point group: c1
    Full point group: C1

    Geometry (in Angstrom), charge = 0, multiplicity = 1:

       Center              X                  Y                   Z               Mass       
    ------------   -----------------  -----------------  -----------------  -----------------
         O            1.007290354967    -0.024679317319     0.066028913848    15.994914619560
         O            2.467419769999    -0.101915615284    -0.025261545087    15.994914619560
         H            0.696476755744    -0.820428051922    -0.402548779128     1.007825032070
         H            2.629598119290    -0.571338015476    -0.863546589633     1.007825032070

  Nuclear repulsion =   36.417523671249484

  ==> Basis Set <==

  Basis Set: CC-PVDZ
    Blend: CC-PVDZ
    Number of shells: 18
    Number of basis function: 38
    Number of Cartesian functions: 40
    Spherical Harmonics?: true
    Max angular momentum: 2

  ==> DFJKGrad: Density-Fitted SCF Gradients <==

    Gradient:                    1
    J tasked:                  Yes
    K tasked:                  Yes
    wK tasked:                  No
    OpenMP threads:              1
    Integrals threads:           1
    Memory (MB):              3570
    Schwarz Cutoff:          0E+00
    Fitting Condition:       1E-12

   => Auxiliary Basis Set <=

  Basis Set: (CC-PVDZ AUX)
    Blend: CC-PVDZ-JKFIT
    Number of shells: 66
    Number of basis function: 186
    Number of Cartesian functions: 212
    Spherical Harmonics?: true
    Max angular momentum: 3

  ==> DFT Potential <==

   => Composite Functional: B3LYP-D3ZERO <= 

    B3LYP-d3zero Hyb-GGA Exchange-Correlation Functional

    P. J. Stephens, F. J. Devlin, C. F. Chabalowski, and M. J. Frisch, J. Phys. Chem. 98, 11623 (1994)

    Deriv               =              1
    GGA                 =           TRUE
    Meta                =          FALSE

    Exchange Hybrid     =           TRUE
    MP2 Hybrid          =          FALSE

   => Exchange Functionals <=

    0.0800   Slater exchange
    0.7200         Becke 88

   => Exact (HF) Exchange <=

    0.2000               HF 

   => Correlation Functionals <=

    0.1900   Vosko, Wilk & Nusair (VWN5_RPA)
    0.8100   Lee, Yang & Parr

   => Molecular Quadrature <=

    Radial Scheme       =       TREUTLER
    Pruning Scheme      =           FLAT
    Nuclear Scheme      =       TREUTLER

    BS radius alpha     =              1
    Pruning alpha       =              1
    Radial Points       =             75
    Spherical Points    =            302
    Total Points        =          88300
    Total Blocks        =            715
    Max Points          =            255
    Max Functions       =             38


  -Total Gradient:
     Atom            X                  Y                   Z
    ------   -----------------  -----------------  -----------------
       1       -0.004218441965    -0.003689698795     0.005295654941
       2        0.004364329788     0.004923900342    -0.004021632066
       3       -0.000845075783     0.002714094423    -0.003768154124
       4        0.000700059572    -0.003940881214     0.002501791157


*** tstop() called on loro.prib.upf.edu at Sat Sep 29 16:37:58 2018
Module time:
	user time   =       0.54 seconds =       0.01 minutes
	system time =       0.02 seconds =       0.00 minutes
	total time  =          1 seconds =       0.02 minutes
Total time:
	user time   =      10.11 seconds =       0.17 minutes
	system time =       0.31 seconds =       0.01 minutes
	total time  =         15 seconds =       0.25 minutes

			-----------------------------------------
			 OPTKING 2.0: for geometry optimizations 
			  - R.A. King,  Bethel University        
			-----------------------------------------
	At level 1: Red. Int., RFO, no backsteps, dynamic trust

	Previous internal coordinate definitions found.
	---Fragment 1 Geometry and Gradient---
	 O           1.9035029072       -0.0466371509        0.1247765640
	 O           4.6627476202       -0.1925926016       -0.0477374019
	 H           1.3161503263       -1.5503843299       -0.7607069477
	 H           4.9692202850       -1.0796723786       -1.6318665574
	            -0.0042184420       -0.0036896988        0.0052956549
	             0.0043643298        0.0049239003       -0.0040216321
	            -0.0008450758        0.0027140944       -0.0037681541
	             0.0007000596       -0.0039408812        0.0025017912

	---Fragment 1 Intrafragment Coordinates---
	 - Coordinate -           - BOHR/RAD -       - ANG/DEG -
	 R(1,2)           =         2.768483	       1.465018
	 R(1,3)           =         1.841282	       0.974365
	 R(2,4)           =         1.841277	       0.974362
	 B(1,2,4)         =         1.818214	     104.175962
	 B(2,1,3)         =         1.818217	     104.176149
	*D(3,1,2,4)       =         0.523598	      29.999967

	Current energy   :      -151.5409761018

	Energy change for the previous step:
		Projected    :        -0.0009238928
		Actual       :        -0.0011822406
	Energy ratio indicates good step: Trust radius increased to 3.750e-01.


	Performing BFGS update.
	Previous computed or guess Hessian on step 1.
	Steps to be used in Hessian update: 2 1
	Taking RFO optimization step.
	Going to follow RFO solution 1.
	Using RFO vector 1.
	Norm of target step-size    0.01202
	Projected energy change by RFO approximation:        -0.0000477499

	Back-transformation to cartesian coordinates...
	Successfully converged to displaced geometry.

	Back-transformation to cartesian coordinates to adjust frozen coordinates...
	Successfully converged to displaced geometry.

	--- Internal Coordinate Step in ANG or DEG, aJ/ANG or AJ/DEG ---
	 ---------------------------------------------------------------------------
	   Coordinate                Previous        Force       Change         New 
	   ----------                --------       ------       ------       ------
	    1 R(1,2)          =      1.465018    -0.041933    -0.005899     1.459119
	    2 R(1,3)          =      0.974365     0.001087    -0.000042     0.974322
	    3 R(2,4)          =      0.974362     0.001106    -0.000038     0.974324
	    4 B(1,2,4)        =    104.175962    -0.000113    -0.182090   103.993872
	    5 B(2,1,3)        =    104.176149    -0.000113    -0.182262   103.993887
	    6 *D(3,1,2,4)     =     29.999967     0.000000     0.000000    29.999967
	 ---------------------------------------------------------------------------
	Successfully symmetrized geometry.

  ==> Convergence Check <==

  Measures of convergence in internal coordinates in au.
  Criteria marked as inactive (o), active & met (*), and active & unmet ( ).
  ---------------------------------------------------------------------------------------------
   Step     Total Energy     Delta E     MAX Force     RMS Force      MAX Disp      RMS Disp   
  ---------------------------------------------------------------------------------------------
    Convergence Criteria    1.00e-06 *    3.00e-04 *             o    1.20e-03 *             o
  ---------------------------------------------------------------------------------------------
      3    -151.54097610   -1.18e-03      5.09e-03      2.25e-03 o    1.11e-02      4.91e-03 o  ~
  ---------------------------------------------------------------------------------------------

	Writing optimization data to binary file.
	Structure for next step:
	Cartesian Geometry (in Angstrom)
	    O     1.0102531306  -0.0240349108   0.0655500831
	    O     2.4645111779  -0.1020815787  -0.0242876420
	    H     0.7021289796  -0.8203581479  -0.4037399571
	    H     2.6238917119  -0.5718863625  -0.8628504841
			--------------------------
			 OPTKING Finished Execution 
			--------------------------

    Structure for next step:
    Molecular point group: c1
    Full point group: C1

    Geometry (in Angstrom), charge = 0, multiplicity = 1:

    O            1.010253130629    -0.024034910821     0.065550083133
    O            2.464511177918    -0.102081578714    -0.024287641962
    H            0.702128979558    -0.820358147923    -0.403739957076
    H            2.623891711895    -0.571886362543    -0.862850484096

gradient() will perform analytic gradient computation.

*** tstart() called on loro.prib.upf.edu
*** at Sat Sep 29 16:37:58 2018

   => Loading Basis Set <=

    Name: CC-PVDZ
    Role: ORBITAL
    Keyword: BASIS
    atoms 1-2 entry O          line   198 file /shared/joao/test_parameterize/miniconda3/share/psi4/basis/cc-pvdz.gbs 
    atoms 3-4 entry H          line    22 file /shared/joao/test_parameterize/miniconda3/share/psi4/basis/cc-pvdz.gbs 


         ---------------------------------------------------------
                                   SCF
            by Justin Turney, Rob Parrish, Andy Simmonett
                             and Daniel Smith
                              RKS Reference
                        1 Threads,   5100 MiB Core
         ---------------------------------------------------------

  ==> Geometry <==

    Molecular point group: c1
    Full point group: C1

    Geometry (in Angstrom), charge = 0, multiplicity = 1:

       Center              X                  Y                   Z               Mass       
    ------------   -----------------  -----------------  -----------------  -----------------
         O            1.010253130629    -0.024034910821     0.065550083133    15.994914619560
         O            2.464511177918    -0.102081578714    -0.024287641962    15.994914619560
         H            0.702128979558    -0.820358147923    -0.403739957076     1.007825032070
         H            2.623891711895    -0.571886362543    -0.862850484096     1.007825032070

  Running in c1 symmetry.

  Rotational constants: A =      9.51398  B =      0.13876  C =      0.13715 [cm^-1]
  Rotational constants: A = 285221.97684  B =   4159.90867  C =   4111.65412 [MHz]
  Nuclear repulsion =   36.529528302495486

  Charge       = 0
  Multiplicity = 1
  Electrons    = 18
  Nalpha       = 9
  Nbeta        = 9

  ==> Algorithm <==

  SCF Algorithm Type is DF.
  DIIS enabled.
  MOM disabled.
  Fractional occupation disabled.
  Guess Type is READ.
  Energy threshold   = 1.00e-08
  Density threshold  = 1.00e-08
  Integral threshold = 0.00e+00

  ==> Primary Basis <==

  Basis Set: CC-PVDZ
    Blend: CC-PVDZ
    Number of shells: 18
    Number of basis function: 38
    Number of Cartesian functions: 40
    Spherical Harmonics?: true
    Max angular momentum: 2

  ==> DFT Potential <==

   => Composite Functional: B3LYP-D3ZERO <= 

    B3LYP-d3zero Hyb-GGA Exchange-Correlation Functional

    P. J. Stephens, F. J. Devlin, C. F. Chabalowski, and M. J. Frisch, J. Phys. Chem. 98, 11623 (1994)

    Deriv               =              1
    GGA                 =           TRUE
    Meta                =          FALSE

    Exchange Hybrid     =           TRUE
    MP2 Hybrid          =          FALSE

   => Exchange Functionals <=

    0.0800   Slater exchange
    0.7200         Becke 88

   => Exact (HF) Exchange <=

    0.2000               HF 

   => Correlation Functionals <=

    0.1900   Vosko, Wilk & Nusair (VWN5_RPA)
    0.8100   Lee, Yang & Parr

   => Molecular Quadrature <=

    Radial Scheme       =       TREUTLER
    Pruning Scheme      =           FLAT
    Nuclear Scheme      =       TREUTLER

    BS radius alpha     =              1
    Pruning alpha       =              1
    Radial Points       =             75
    Spherical Points    =            302
    Total Points        =          88298
    Total Blocks        =            717
    Max Points          =            256
    Max Functions       =             38

   => -D3ZERO: Empirical Dispersion <=

    Grimme's -D3 (zero-damping) Dispersion Correction
    Grimme S.; Antony J.; Ehrlich S.; Krieg H. (2010), J. Chem. Phys., 132: 154104

        S6 =   1.000000E+00
        S8 =   1.703000E+00
       SR6 =   1.261000E+00
       SR8 =   1.000000E+00
    ALPHA6 =   1.400000E+01

   => Loading Basis Set <=

    Name: (CC-PVDZ AUX)
    Role: JKFIT
    Keyword: DF_BASIS_SCF
    atoms 1-2 entry O          line   221 file /shared/joao/test_parameterize/miniconda3/share/psi4/basis/cc-pvdz-jkfit.gbs 
    atoms 3-4 entry H          line    51 file /shared/joao/test_parameterize/miniconda3/share/psi4/basis/cc-pvdz-jkfit.gbs 

  Reading orbitals from file 180, no projection.

  ==> Pre-Iterations <==

   -------------------------------------------------------
    Irrep   Nso     Nmo     Nalpha   Nbeta   Ndocc  Nsocc
   -------------------------------------------------------
     A         38      38       0       0       0       0
   -------------------------------------------------------
    Total      38      38       9       9       9       0
   -------------------------------------------------------

  ==> Integral Setup <==

  DFHelper Memory: AOs need 0.003 [GiB]; user supplied 3.486 [GiB]. Using in-core AOs.

  ==> MemDFJK: Density-Fitted J/K Matrices <==

    J tasked:                   Yes
    K tasked:                   Yes
    wK tasked:                   No
    OpenMP threads:               1
    Memory (MB):               3570
    Algorithm:                 Core
    Schwarz Cutoff:           1E-12
    Mask sparsity (%):       0.0000
    Fitting Condition:        1E-12

   => Auxiliary Basis Set <=

  Basis Set: (CC-PVDZ AUX)
    Blend: CC-PVDZ-JKFIT
    Number of shells: 66
    Number of basis function: 186
    Number of Cartesian functions: 212
    Spherical Harmonics?: true
    Max angular momentum: 3

  Minimum eigenvalue in the overlap matrix is 2.5265197210E-02.
  Using Symmetric Orthogonalization.

  SCF Guess: Orbitals guess was supplied from a previous computation.

  ==> Iterations <==

                           Total Energy        Delta E     RMS |[F,P]|

   @DF-RKS iter   0:  -151.54363682790637   -1.51544e+02   3.02690e-04 
   @DF-RKS iter   1:  -151.54101476483552    2.62206e-03   8.73318e-05 
   @DF-RKS iter   2:  -151.54101733123724   -2.56640e-06   4.48704e-05 DIIS
   @DF-RKS iter   3:  -151.54101828459207   -9.53355e-07   8.35682e-06 DIIS
   @DF-RKS iter   4:  -151.54101832185282   -3.72607e-08   6.70867e-07 DIIS
   @DF-RKS iter   5:  -151.54101832221269   -3.59876e-10   1.21494e-07 DIIS
   @DF-RKS iter   6:  -151.54101832221423   -1.53477e-12   1.24361e-07 DIIS
   @DF-RKS iter   7:  -151.54101832222219   -7.95808e-12   2.26392e-08 DIIS
   @DF-RKS iter   8:  -151.54101832222256   -3.69482e-13   9.64791e-10 DIIS

  ==> Post-Iterations <==

    Orbital Energies [Eh]
    ---------------------

    Doubly Occupied:                                                      

       1A    -19.190318     2A    -19.190287     3A     -1.108232  
       4A     -0.893515     5A     -0.560333     6A     -0.418339  
       7A     -0.413899     8A     -0.351974     9A     -0.251639  

    Virtual:                                                              

      10A      0.011731    11A      0.024226    12A      0.125618  
      13A      0.555933    14A      0.577718    15A      0.861507  
      16A      0.867329    17A      0.939308    18A      0.940046  
      19A      0.991821    20A      1.049337    21A      1.257054  
      22A      1.278402    23A      1.324796    24A      1.484095  
      25A      1.563454    26A      1.793100    27A      2.032636  
      28A      2.091763    29A      2.334673    30A      2.379894  
      31A      2.618402    32A      2.875419    33A      2.914483  
      34A      2.992066    35A      3.165681    36A      3.516083  
      37A      3.552401    38A      3.790437  

    Final Occupation by Irrep:
              A 
    DOCC [     9 ]

  Energy converged.

  @DF-RKS Final Energy:  -151.54101832222256

   => Energetics <=

    Nuclear Repulsion Energy =             36.5295283024954855
    One-Electron Energy =                -281.0030643886203165
    Two-Electron Energy =                 107.3897234184051825
    DFT Exchange-Correlation Energy =     -14.4569055445029342
    Empirical Dispersion Energy =          -0.0003001100000000
    VV10 Nonlocal Energy =                  0.0000000000000000
    Total Energy =                       -151.5410183222226124



Properties will be evaluated at   0.000000,   0.000000,   0.000000 [a0]

Properties computed using the SCF density matrix

  Nuclear Dipole Moment: [e a0]
     X:    58.8161      Y:    -4.5376      Z:    -1.7697

  Electronic Dipole Moment: [e a0]
     X:   -58.9144      Y:     3.7008      Z:     0.9053

  Dipole Moment: [e a0]
     X:    -0.0983      Y:    -0.8368      Z:    -0.8644     Total:     1.2071

  Dipole Moment: [D]
     X:    -0.2499      Y:    -2.1269      Z:    -2.1970     Total:     3.0681


*** tstop() called on loro.prib.upf.edu at Sat Sep 29 16:38:01 2018
Module time:
	user time   =       2.27 seconds =       0.04 minutes
	system time =       0.07 seconds =       0.00 minutes
	total time  =          3 seconds =       0.05 minutes
Total time:
	user time   =      12.40 seconds =       0.21 minutes
	system time =       0.38 seconds =       0.01 minutes
	total time  =         18 seconds =       0.30 minutes

*** tstart() called on loro.prib.upf.edu
*** at Sat Sep 29 16:38:01 2018


         ------------------------------------------------------------
                                   SCF GRAD                          
                          Rob Parrish, Justin Turney,                
                       Andy Simmonett, and Alex Sokolov              
         ------------------------------------------------------------

  ==> Geometry <==

    Molecular point group: c1
    Full point group: C1

    Geometry (in Angstrom), charge = 0, multiplicity = 1:

       Center              X                  Y                   Z               Mass       
    ------------   -----------------  -----------------  -----------------  -----------------
         O            1.010253130629    -0.024034910821     0.065550083133    15.994914619560
         O            2.464511177918    -0.102081578714    -0.024287641962    15.994914619560
         H            0.702128979558    -0.820358147923    -0.403739957076     1.007825032070
         H            2.623891711895    -0.571886362543    -0.862850484096     1.007825032070

  Nuclear repulsion =   36.529528302495486

  ==> Basis Set <==

  Basis Set: CC-PVDZ
    Blend: CC-PVDZ
    Number of shells: 18
    Number of basis function: 38
    Number of Cartesian functions: 40
    Spherical Harmonics?: true
    Max angular momentum: 2

  ==> DFJKGrad: Density-Fitted SCF Gradients <==

    Gradient:                    1
    J tasked:                  Yes
    K tasked:                  Yes
    wK tasked:                  No
    OpenMP threads:              1
    Integrals threads:           1
    Memory (MB):              3570
    Schwarz Cutoff:          0E+00
    Fitting Condition:       1E-12

   => Auxiliary Basis Set <=

  Basis Set: (CC-PVDZ AUX)
    Blend: CC-PVDZ-JKFIT
    Number of shells: 66
    Number of basis function: 186
    Number of Cartesian functions: 212
    Spherical Harmonics?: true
    Max angular momentum: 3

  ==> DFT Potential <==

   => Composite Functional: B3LYP-D3ZERO <= 

    B3LYP-d3zero Hyb-GGA Exchange-Correlation Functional

    P. J. Stephens, F. J. Devlin, C. F. Chabalowski, and M. J. Frisch, J. Phys. Chem. 98, 11623 (1994)

    Deriv               =              1
    GGA                 =           TRUE
    Meta                =          FALSE

    Exchange Hybrid     =           TRUE
    MP2 Hybrid          =          FALSE

   => Exchange Functionals <=

    0.0800   Slater exchange
    0.7200         Becke 88

   => Exact (HF) Exchange <=

    0.2000               HF 

   => Correlation Functionals <=

    0.1900   Vosko, Wilk & Nusair (VWN5_RPA)
    0.8100   Lee, Yang & Parr

   => Molecular Quadrature <=

    Radial Scheme       =       TREUTLER
    Pruning Scheme      =           FLAT
    Nuclear Scheme      =       TREUTLER

    BS radius alpha     =              1
    Pruning alpha       =              1
    Radial Points       =             75
    Spherical Points    =            302
    Total Points        =          88298
    Total Blocks        =            717
    Max Points          =            256
    Max Functions       =             38


  -Total Gradient:
     Atom            X                  Y                   Z
    ------   -----------------  -----------------  -----------------
       1       -0.001273938876    -0.003468523489     0.005207221715
       2        0.001472636107     0.005161282905    -0.003458327604
       3       -0.000211771936     0.002467215729    -0.004060709625
       4        0.000014032671    -0.004151820384     0.002320238925


*** tstop() called on loro.prib.upf.edu at Sat Sep 29 16:38:02 2018
Module time:
	user time   =       0.67 seconds =       0.01 minutes
	system time =       0.01 seconds =       0.00 minutes
	total time  =          1 seconds =       0.02 minutes
Total time:
	user time   =      13.08 seconds =       0.22 minutes
	system time =       0.40 seconds =       0.01 minutes
	total time  =         19 seconds =       0.32 minutes

			-----------------------------------------
			 OPTKING 2.0: for geometry optimizations 
			  - R.A. King,  Bethel University        
			-----------------------------------------
	At level 1: Red. Int., RFO, no backsteps, dynamic trust

	Previous internal coordinate definitions found.
	---Fragment 1 Geometry and Gradient---
	 O           1.9091017418       -0.0454193991        0.1238717051
	 O           4.6572511777       -0.1929062270       -0.0458969917
	 H           1.3268314813       -1.5502522305       -0.7629579478
	 H           4.9584367378       -1.0807086043       -1.6305511086
	            -0.0012739389       -0.0034685235        0.0052072217
	             0.0014726361        0.0051612829       -0.0034583276
	            -0.0002117719        0.0024672157       -0.0040607096
	             0.0000140327       -0.0041518204        0.0023202389

	---Fragment 1 Intrafragment Coordinates---
	 - Coordinate -           - BOHR/RAD -       - ANG/DEG -
	 R(1,2)           =         2.757336	       1.459119
	 R(1,3)           =         1.841203	       0.974322
	 R(2,4)           =         1.841205	       0.974324
	 B(1,2,4)         =         1.815035	     103.993872
	 B(2,1,3)         =         1.815036	     103.993887
	*D(3,1,2,4)       =         0.523598	      29.999967

	Current energy   :      -151.5410183222

	Energy change for the previous step:
		Projected    :        -0.0000477499
		Actual       :        -0.0000422204
	Energy ratio indicates good step: Trust radius increased to 1.000e+00.


	Performing BFGS update.
	Previous computed or guess Hessian on step 1.
	Steps to be used in Hessian update: 3 2
	Taking RFO optimization step.
	Going to follow RFO solution 1.
	Using RFO vector 1.
	Norm of target step-size    0.00510
	Projected energy change by RFO approximation:        -0.0000071519

	Back-transformation to cartesian coordinates...
	Successfully converged to displaced geometry.

	Back-transformation to cartesian coordinates to adjust frozen coordinates...
	Successfully converged to displaced geometry.

	--- Internal Coordinate Step in ANG or DEG, aJ/ANG or AJ/DEG ---
	 ---------------------------------------------------------------------------
	   Coordinate                Previous        Force       Change         New 
	   ----------                --------       ------       ------       ------
	    1 R(1,2)          =      1.459119    -0.012334    -0.002697     1.456422
	    2 R(1,3)          =      0.974322    -0.000079    -0.000061     0.974262
	    3 R(2,4)          =      0.974324    -0.000087    -0.000061     0.974263
	    4 B(1,2,4)        =    103.993872    -0.000013     0.007536   104.001407
	    5 B(2,1,3)        =    103.993887    -0.000013     0.007509   104.001395
	    6 *D(3,1,2,4)     =     29.999967     0.000000     0.000000    29.999967
	 ---------------------------------------------------------------------------
	Successfully symmetrized geometry.

  ==> Convergence Check <==

  Measures of convergence in internal coordinates in au.
  Criteria marked as inactive (o), active & met (*), and active & unmet ( ).
  ---------------------------------------------------------------------------------------------
   Step     Total Energy     Delta E     MAX Force     RMS Force      MAX Disp      RMS Disp   
  ---------------------------------------------------------------------------------------------
    Convergence Criteria    1.00e-06 *    3.00e-04 *             o    1.20e-03 *             o
  ---------------------------------------------------------------------------------------------
      4    -151.54101832   -4.22e-05      1.50e-03      6.19e-04 o    5.10e-03      2.08e-03 o  ~
  ---------------------------------------------------------------------------------------------

	Writing optimization data to binary file.
	Structure for next step:
	Cartesian Geometry (in Angstrom)
	    O     1.0115928375  -0.0240404547   0.0653426597
	    O     2.4631643703  -0.1021361588  -0.0241423795
	    H     0.7033214254  -0.8202474630  -0.4039222437
	    H     2.6227063668  -0.5719369235  -0.8626060364
			--------------------------
			 OPTKING Finished Execution 
			--------------------------

    Structure for next step:
    Molecular point group: c1
    Full point group: C1

    Geometry (in Angstrom), charge = 0, multiplicity = 1:

    O            1.011592837490    -0.024040454694     0.065342659667
    O            2.463164370282    -0.102136158845    -0.024142379512
    H            0.703321425398    -0.820247462956    -0.403922243714
    H            2.622706366829    -0.571936923505    -0.862606036441

gradient() will perform analytic gradient computation.

*** tstart() called on loro.prib.upf.edu
*** at Sat Sep 29 16:38:02 2018

   => Loading Basis Set <=

    Name: CC-PVDZ
    Role: ORBITAL
    Keyword: BASIS
    atoms 1-2 entry O          line   198 file /shared/joao/test_parameterize/miniconda3/share/psi4/basis/cc-pvdz.gbs 
    atoms 3-4 entry H          line    22 file /shared/joao/test_parameterize/miniconda3/share/psi4/basis/cc-pvdz.gbs 


         ---------------------------------------------------------
                                   SCF
            by Justin Turney, Rob Parrish, Andy Simmonett
                             and Daniel Smith
                              RKS Reference
                        1 Threads,   5100 MiB Core
         ---------------------------------------------------------

  ==> Geometry <==

    Molecular point group: c1
    Full point group: C1

    Geometry (in Angstrom), charge = 0, multiplicity = 1:

       Center              X                  Y                   Z               Mass       
    ------------   -----------------  -----------------  -----------------  -----------------
         O            1.011592837490    -0.024040454694     0.065342659667    15.994914619560
         O            2.463164370282    -0.102136158845    -0.024142379512    15.994914619560
         H            0.703321425398    -0.820247462956    -0.403922243714     1.007825032070
         H            2.622706366829    -0.571936923505    -0.862606036441     1.007825032070

  Running in c1 symmetry.

  Rotational constants: A =      9.51865  B =      0.13884  C =      0.13723 [cm^-1]
  Rotational constants: A = 285361.90378  B =   4162.23099  C =   4113.91970 [MHz]
  Nuclear repulsion =   36.578551479149375

  Charge       = 0
  Multiplicity = 1
  Electrons    = 18
  Nalpha       = 9
  Nbeta        = 9

  ==> Algorithm <==

  SCF Algorithm Type is DF.
  DIIS enabled.
  MOM disabled.
  Fractional occupation disabled.
  Guess Type is READ.
  Energy threshold   = 1.00e-08
  Density threshold  = 1.00e-08
  Integral threshold = 0.00e+00

  ==> Primary Basis <==

  Basis Set: CC-PVDZ
    Blend: CC-PVDZ
    Number of shells: 18
    Number of basis function: 38
    Number of Cartesian functions: 40
    Spherical Harmonics?: true
    Max angular momentum: 2

  ==> DFT Potential <==

   => Composite Functional: B3LYP-D3ZERO <= 

    B3LYP-d3zero Hyb-GGA Exchange-Correlation Functional

    P. J. Stephens, F. J. Devlin, C. F. Chabalowski, and M. J. Frisch, J. Phys. Chem. 98, 11623 (1994)

    Deriv               =              1
    GGA                 =           TRUE
    Meta                =          FALSE

    Exchange Hybrid     =           TRUE
    MP2 Hybrid          =          FALSE

   => Exchange Functionals <=

    0.0800   Slater exchange
    0.7200         Becke 88

   => Exact (HF) Exchange <=

    0.2000               HF 

   => Correlation Functionals <=

    0.1900   Vosko, Wilk & Nusair (VWN5_RPA)
    0.8100   Lee, Yang & Parr

   => Molecular Quadrature <=

    Radial Scheme       =       TREUTLER
    Pruning Scheme      =           FLAT
    Nuclear Scheme      =       TREUTLER

    BS radius alpha     =              1
    Pruning alpha       =              1
    Radial Points       =             75
    Spherical Points    =            302
    Total Points        =          88298
    Total Blocks        =            717
    Max Points          =            256
    Max Functions       =             38

   => -D3ZERO: Empirical Dispersion <=

    Grimme's -D3 (zero-damping) Dispersion Correction
    Grimme S.; Antony J.; Ehrlich S.; Krieg H. (2010), J. Chem. Phys., 132: 154104

        S6 =   1.000000E+00
        S8 =   1.703000E+00
       SR6 =   1.261000E+00
       SR8 =   1.000000E+00
    ALPHA6 =   1.400000E+01

   => Loading Basis Set <=

    Name: (CC-PVDZ AUX)
    Role: JKFIT
    Keyword: DF_BASIS_SCF
    atoms 1-2 entry O          line   221 file /shared/joao/test_parameterize/miniconda3/share/psi4/basis/cc-pvdz-jkfit.gbs 
    atoms 3-4 entry H          line    51 file /shared/joao/test_parameterize/miniconda3/share/psi4/basis/cc-pvdz-jkfit.gbs 

  Reading orbitals from file 180, no projection.

  ==> Pre-Iterations <==

   -------------------------------------------------------
    Irrep   Nso     Nmo     Nalpha   Nbeta   Ndocc  Nsocc
   -------------------------------------------------------
     A         38      38       0       0       0       0
   -------------------------------------------------------
    Total      38      38       9       9       9       0
   -------------------------------------------------------

  ==> Integral Setup <==

  DFHelper Memory: AOs need 0.003 [GiB]; user supplied 3.486 [GiB]. Using in-core AOs.

  ==> MemDFJK: Density-Fitted J/K Matrices <==

    J tasked:                   Yes
    K tasked:                   Yes
    wK tasked:                   No
    OpenMP threads:               1
    Memory (MB):               3570
    Algorithm:                 Core
    Schwarz Cutoff:           1E-12
    Mask sparsity (%):       0.0000
    Fitting Condition:        1E-12

   => Auxiliary Basis Set <=

  Basis Set: (CC-PVDZ AUX)
    Blend: CC-PVDZ-JKFIT
    Number of shells: 66
    Number of basis function: 186
    Number of Cartesian functions: 212
    Spherical Harmonics?: true
    Max angular momentum: 3

  Minimum eigenvalue in the overlap matrix is 2.5134115179E-02.
  Using Symmetric Orthogonalization.

  SCF Guess: Orbitals guess was supplied from a previous computation.

  ==> Iterations <==

                           Total Energy        Delta E     RMS |[F,P]|

   @DF-RKS iter   0:  -151.54233515049552   -1.51542e+02   1.39557e-04 
   @DF-RKS iter   1:  -151.54102159741453    1.31355e-03   3.53472e-05 
   @DF-RKS iter   2:  -151.54102202343833   -4.26024e-07   1.81129e-05 DIIS
   @DF-RKS iter   3:  -151.54102217697866   -1.53540e-07   3.16403e-06 DIIS
   @DF-RKS iter   4:  -151.54102218231139   -5.33274e-09   2.55000e-07 DIIS
   @DF-RKS iter   5:  -151.54102218235505   -4.36557e-11   3.83569e-08 DIIS
   @DF-RKS iter   6:  -151.54102218235602   -9.66338e-13   8.73524e-09 DIIS

  ==> Post-Iterations <==

    Orbital Energies [Eh]
    ---------------------

    Doubly Occupied:                                                      

       1A    -19.190131     2A    -19.190101     3A     -1.109305  
       4A     -0.893035     5A     -0.560987     6A     -0.418670  
       7A     -0.414109     8A     -0.351835     9A     -0.251221  

    Virtual:                                                              

      10A      0.013162    11A      0.024150    12A      0.126198  
      13A      0.555940    14A      0.577860    15A      0.861913  
      16A      0.867517    17A      0.938623    18A      0.939622  
      19A      0.991675    20A      1.049423    21A      1.256466  
      22A      1.278482    23A      1.324702    24A      1.485225  
      25A      1.564260    26A      1.793489    27A      2.032860  
      28A      2.092176    29A      2.332838    30A      2.381869  
      31A      2.616897    32A      2.875063    33A      2.914731  
      34A      2.995296    35A      3.168378    36A      3.517220  
      37A      3.551841    38A      3.793158  

    Final Occupation by Irrep:
              A 
    DOCC [     9 ]

  Energy converged.

  @DF-RKS Final Energy:  -151.54102218235602

   => Energetics <=

    Nuclear Repulsion Energy =             36.5785514791493753
    One-Electron Energy =                -281.0987198092365134
    Two-Electron Energy =                 107.4373985210355329
    DFT Exchange-Correlation Energy =     -14.4579549933044209
    Empirical Dispersion Energy =          -0.0002973800000000
    VV10 Nonlocal Energy =                  0.0000000000000000
    Total Energy =                       -151.5410221823560164



Properties will be evaluated at   0.000000,   0.000000,   0.000000 [a0]

Properties computed using the SCF density matrix

  Nuclear Dipole Moment: [e a0]
     X:    58.8160      Y:    -4.5384      Z:    -1.7705

  Electronic Dipole Moment: [e a0]
     X:   -58.9143      Y:     3.7016      Z:     0.9062

  Dipole Moment: [e a0]
     X:    -0.0983      Y:    -0.8367      Z:    -0.8643     Total:     1.2070

  Dipole Moment: [D]
     X:    -0.2499      Y:    -2.1268      Z:    -2.1969     Total:     3.0679


*** tstop() called on loro.prib.upf.edu at Sat Sep 29 16:38:05 2018
Module time:
	user time   =       1.82 seconds =       0.03 minutes
	system time =       0.05 seconds =       0.00 minutes
	total time  =          3 seconds =       0.05 minutes
Total time:
	user time   =      14.91 seconds =       0.25 minutes
	system time =       0.46 seconds =       0.01 minutes
	total time  =         22 seconds =       0.37 minutes

*** tstart() called on loro.prib.upf.edu
*** at Sat Sep 29 16:38:05 2018


         ------------------------------------------------------------
                                   SCF GRAD                          
                          Rob Parrish, Justin Turney,                
                       Andy Simmonett, and Alex Sokolov              
         ------------------------------------------------------------

  ==> Geometry <==

    Molecular point group: c1
    Full point group: C1

    Geometry (in Angstrom), charge = 0, multiplicity = 1:

       Center              X                  Y                   Z               Mass       
    ------------   -----------------  -----------------  -----------------  -----------------
         O            1.011592837490    -0.024040454694     0.065342659667    15.994914619560
         O            2.463164370282    -0.102136158845    -0.024142379512    15.994914619560
         H            0.703321425398    -0.820247462956    -0.403922243714     1.007825032070
         H            2.622706366829    -0.571936923505    -0.862606036441     1.007825032070

  Nuclear repulsion =   36.578551479149375

  ==> Basis Set <==

  Basis Set: CC-PVDZ
    Blend: CC-PVDZ
    Number of shells: 18
    Number of basis function: 38
    Number of Cartesian functions: 40
    Spherical Harmonics?: true
    Max angular momentum: 2

  ==> DFJKGrad: Density-Fitted SCF Gradients <==

    Gradient:                    1
    J tasked:                  Yes
    K tasked:                  Yes
    wK tasked:                  No
    OpenMP threads:              1
    Integrals threads:           1
    Memory (MB):              3570
    Schwarz Cutoff:          0E+00
    Fitting Condition:       1E-12

   => Auxiliary Basis Set <=

  Basis Set: (CC-PVDZ AUX)
    Blend: CC-PVDZ-JKFIT
    Number of shells: 66
    Number of basis function: 186
    Number of Cartesian functions: 212
    Spherical Harmonics?: true
    Max angular momentum: 3

  ==> DFT Potential <==

   => Composite Functional: B3LYP-D3ZERO <= 

    B3LYP-d3zero Hyb-GGA Exchange-Correlation Functional

    P. J. Stephens, F. J. Devlin, C. F. Chabalowski, and M. J. Frisch, J. Phys. Chem. 98, 11623 (1994)

    Deriv               =              1
    GGA                 =           TRUE
    Meta                =          FALSE

    Exchange Hybrid     =           TRUE
    MP2 Hybrid          =          FALSE

   => Exchange Functionals <=

    0.0800   Slater exchange
    0.7200         Becke 88

   => Exact (HF) Exchange <=

    0.2000               HF 

   => Correlation Functionals <=

    0.1900   Vosko, Wilk & Nusair (VWN5_RPA)
    0.8100   Lee, Yang & Parr

   => Molecular Quadrature <=

    Radial Scheme       =       TREUTLER
    Pruning Scheme      =           FLAT
    Nuclear Scheme      =       TREUTLER

    BS radius alpha     =              1
    Pruning alpha       =              1
    Radial Points       =             75
    Spherical Points    =            302
    Total Points        =          88298
    Total Blocks        =            717
    Max Points          =            256
    Max Functions       =             38


  -Total Gradient:
     Atom            X                  Y                   Z
    ------   -----------------  -----------------  -----------------
       1        0.000078689103    -0.003504267587     0.005144727481
       2        0.000126592053     0.005253154089    -0.003337971373
       3       -0.000072173242     0.002449078140    -0.004115701270
       4       -0.000132150225    -0.004189812007     0.002317366351


*** tstop() called on loro.prib.upf.edu at Sat Sep 29 16:38:06 2018
Module time:
	user time   =       0.63 seconds =       0.01 minutes
	system time =       0.03 seconds =       0.00 minutes
	total time  =          1 seconds =       0.02 minutes
Total time:
	user time   =      15.54 seconds =       0.26 minutes
	system time =       0.49 seconds =       0.01 minutes
	total time  =         23 seconds =       0.38 minutes

			-----------------------------------------
			 OPTKING 2.0: for geometry optimizations 
			  - R.A. King,  Bethel University        
			-----------------------------------------
	At level 1: Red. Int., RFO, no backsteps, dynamic trust

	Previous internal coordinate definitions found.
	---Fragment 1 Geometry and Gradient---
	 O           1.9116334208       -0.0454298755        0.1234797316
	 O           4.6547060801       -0.1930093685       -0.0456224855
	 H           1.3290848774       -1.5500430662       -0.7633024196
	 H           4.9561967603       -1.0808041507       -1.6300891694
	             0.0000786891       -0.0035042676        0.0051447275
	             0.0001265921        0.0052531541       -0.0033379714
	            -0.0000721732        0.0024490781       -0.0041157013
	            -0.0001321502       -0.0041898120        0.0023173664

	---Fragment 1 Intrafragment Coordinates---
	 - Coordinate -           - BOHR/RAD -       - ANG/DEG -
	 R(1,2)           =         2.752240	       1.456422
	 R(1,3)           =         1.841088	       0.974262
	 R(2,4)           =         1.841090	       0.974263
	 B(1,2,4)         =         1.815167	     104.001407
	 B(2,1,3)         =         1.815167	     104.001395
	*D(3,1,2,4)       =         0.523598	      29.999967

	Current energy   :      -151.5410221824

	Energy change for the previous step:
		Projected    :        -0.0000071519
		Actual       :        -0.0000038601

	Performing BFGS update.
	Previous computed or guess Hessian on step 1.
	Steps to be used in Hessian update: 4 3
	Taking RFO optimization step.
	Going to follow RFO solution 1.
	Using RFO vector 1.
	Norm of target step-size    0.00072
	Projected energy change by RFO approximation:        -0.0000001520

	Back-transformation to cartesian coordinates...
	Successfully converged to displaced geometry.

	Back-transformation to cartesian coordinates to adjust frozen coordinates...
	Successfully converged to displaced geometry.

	--- Internal Coordinate Step in ANG or DEG, aJ/ANG or AJ/DEG ---
	 ---------------------------------------------------------------------------
	   Coordinate                Previous        Force       Change         New 
	   ----------                --------       ------       ------       ------
	    1 R(1,2)          =      1.456422     0.000004    -0.000099     1.456323
	    2 R(1,3)          =      0.974262    -0.000057    -0.000001     0.974261
	    3 R(2,4)          =      0.974263    -0.000063    -0.000002     0.974261
	    4 B(1,2,4)        =    104.001407     0.000007     0.028215   104.029623
	    5 B(2,1,3)        =    104.001395     0.000008     0.028235   104.029630
	    6 *D(3,1,2,4)     =     29.999967    -0.000000     0.000000    29.999967
	 ---------------------------------------------------------------------------
	Successfully symmetrized geometry.

  ==> Convergence Check <==

  Measures of convergence in internal coordinates in au.
  Criteria marked as inactive (o), active & met (*), and active & unmet ( ).
  ---------------------------------------------------------------------------------------------
   Step     Total Energy     Delta E     MAX Force     RMS Force      MAX Disp      RMS Disp   
  ---------------------------------------------------------------------------------------------
    Convergence Criteria    1.00e-06 *    3.00e-04 *             o    1.20e-03 *             o
  ---------------------------------------------------------------------------------------------
      5    -151.54102218   -3.86e-06      9.86e-05 *    5.71e-05 o    4.93e-04 *    2.95e-04 o  ~
  ---------------------------------------------------------------------------------------------


  **** Optimization is complete! (in 5 steps) ****

  ==> Optimization Summary <==

  Measures of convergence in internal coordinates in au.
  --------------------------------------------------------------------------------------------------------------- ~
   Step         Total Energy             Delta E       MAX Force       RMS Force        MAX Disp        RMS Disp  ~
  --------------------------------------------------------------------------------------------------------------- ~
      1    -151.536975710073   -151.536975710073      0.03174813      0.02049427      0.18315373      0.10821295  ~
      2    -151.539793861198     -0.002818151125      0.01889539      0.01112331      0.05040990      0.03218933  ~
      3    -151.540976101837     -0.001182240640      0.00508976      0.00224918      0.01114701      0.00490725  ~
      4    -151.541018322223     -0.000042220385      0.00149713      0.00061913      0.00509590      0.00208282  ~
      5    -151.541022182356     -0.000003860133      0.00009860      0.00005707      0.00049279      0.00029455  ~
  --------------------------------------------------------------------------------------------------------------- ~

	Writing optimization data to binary file.
	Final energy is   -151.5410221823560
	Final (previous) structure:
	Cartesian Geometry (in Angstrom)
	    O     1.0115928375  -0.0240404547   0.0653426597
	    O     2.4631643703  -0.1021361588  -0.0241423795
	    H     0.7033214254  -0.8202474630  -0.4039222437
	    H     2.6227063668  -0.5719369235  -0.8626060364
	Saving final (previous) structure.
	Removing binary optimization data file.
			--------------------------
			 OPTKING Finished Execution 
			--------------------------

    Final optimized geometry and variables:
    Molecular point group: c1
    Full point group: C1

    Geometry (in Angstrom), charge = 0, multiplicity = 1:

    O            1.011592837490    -0.024040454694     0.065342659667
    O            2.463164370282    -0.102136158845    -0.024142379512
    H            0.703321425398    -0.820247462956    -0.403922243714
    H            2.622706366829    -0.571936923505    -0.862606036441

	Removing binary optimization data file.
	Cleaning optimization helper files.


Properties will be evaluated at   0.000000,   0.000000,   0.000000 [a0]
OEProp: No title given, name of density matrix used for the following properties is 'SCF density'
  Nuclear Dipole Moment: [e a0]
     X:    58.8160      Y:    -4.5384      Z:    -1.7705

  Electronic Dipole Moment: [e a0]
     X:   -58.9143      Y:     3.7016      Z:     0.9062

  Dipole Moment: [e a0]
     X:    -0.0983      Y:    -0.8367      Z:    -0.8643     Total:     1.2070

  Dipole Moment: [D]
     X:    -0.2499      Y:    -2.1268      Z:    -2.1969     Total:     3.0679

  Quadrupole Moment: [D A]
    XX:   -11.4072     YY:   -10.1488     ZZ:   -10.2449
    XY:    -2.9092     XZ:    -4.3374     YZ:     1.8479

  Traceless Quadrupole Moment: [D A]
    XX:    -0.8069     YY:     0.4515     ZZ:     0.3554
    XY:    -2.9092     XZ:    -4.3374     YZ:     1.8479

  Mulliken Charges: (a.u.)
   Center  Symbol    Alpha    Beta     Spin     Total
       1     O     4.08150  4.08150  0.00000 -0.16300
       2     O     4.08150  4.08150  0.00000 -0.16300
       3     H     0.41850  0.41850  0.00000  0.16300
       4     H     0.41850  0.41850  0.00000  0.16300

   Total alpha =  9.00000, Total beta =  9.00000, Total charge = -0.00000


    Psi4 stopped on: Saturday, 29 September 2018 04:38PM
    Psi4 wall time for execution: 0:00:22.90

*** Psi4 exiting successfully. Buy a developer a beer!
