
    -----------------------------------------------------------------------
          Psi4: An Open-Source Ab Initio Electronic Structure Package
                               Psi4 1.2.1 release

                         Git: Rev {HEAD} 406f4de 


    R. M. Parrish, L. A. Burns, D. G. A. Smith, A. C. Simmonett,
    A. E. DePrince III, E. G. Hohenstein, U. Bozkaya, A. Yu. Sokolov,
    R. Di Remigio, R. M. Richard, J. F. Gonthier, A. M. James,
    H. R. McAlexander, A. Kumar, M. Saitow, X. Wang, B. P. Pritchard,
    P. Verma, H. F. Schaefer III, K. Patkowski, R. A. King, E. F. Valeev,
    F. A. Evangelista, J. M. Turney, T. D. Crawford, and C. D. Sherrill,
    J. Chem. Theory Comput. 13(7) pp 3185--3197 (2017).
    (doi: 10.1021/acs.jctc.7b00174)


                         Additional Contributions by
    P. Kraus, H. Kruse, M. H. Lechner, M. C. Schieber, and R. A. Shaw

    -----------------------------------------------------------------------


    Psi4 started on: Saturday, 29 September 2018 04:27PM

    Process ID: 26513
    Host:       loro.prib.upf.edu
    PSIDATADIR: /shared/joao/test_parameterize/miniconda3/share/psi4
    Memory:     500.0 MiB
    Threads:    1
    
  ==> Input File <==

--------------------------------------------------------------------------
set_num_threads(1)
set_memory('5348 MB')

set { scf_mem_safety_factor 0.7 }

set { reference rks }
set { basis cc-pVDZ }

molecule MOL {
    0 1
    noreorient
    nocom
    symmetry c1
    O    1.014300  -0.002300   0.060500
    O    2.462400  -0.107500  -0.002400
    H    0.821200  -0.823600  -0.430600
    H    2.545738  -0.866879   0.605246
}

set optking { frozen_dihedral = (" 3 1 2 4 ") }

energy, wfn = energy('B3LYP-D3', return_wfn=True)

import os
os.chdir(os.environ['HTMD_PSI4_WORKDIR'])

oeprop(wfn, 'DIPOLE', 'QUADRUPOLE', 'MULLIKEN_CHARGES')

with open('psi4out.xyz', 'w') as f:
    f.write('4 ' )
    f.write('%.12f\n' % energy)
    f.write(MOL.save_string_xyz())
--------------------------------------------------------------------------
  Threads set to 1 by Python driver.

  Memory set to   4.981 GiB by Python driver.

*** tstart() called on loro.prib.upf.edu
*** at Sat Sep 29 16:27:10 2018

   => Loading Basis Set <=

    Name: CC-PVDZ
    Role: ORBITAL
    Keyword: BASIS
    atoms 1-2 entry O          line   198 file /shared/joao/test_parameterize/miniconda3/share/psi4/basis/cc-pvdz.gbs 
    atoms 3-4 entry H          line    22 file /shared/joao/test_parameterize/miniconda3/share/psi4/basis/cc-pvdz.gbs 


         ---------------------------------------------------------
                                   SCF
            by Justin Turney, Rob Parrish, Andy Simmonett
                             and Daniel Smith
                              RKS Reference
                        1 Threads,   5100 MiB Core
         ---------------------------------------------------------

  ==> Geometry <==

    Molecular point group: c1
    Full point group: C1

    Geometry (in Angstrom), charge = 0, multiplicity = 1:

       Center              X                  Y                   Z               Mass       
    ------------   -----------------  -----------------  -----------------  -----------------
         O            1.014300000000    -0.002300000000     0.060500000000    15.994914619560
         O            2.462400000000    -0.107500000000    -0.002400000000    15.994914619560
         H            0.821200000000    -0.823600000000    -0.430600000000     1.007825032070
         H            2.545738000000    -0.866879000000     0.605246000000     1.007825032070

  Running in c1 symmetry.

  Rotational constants: A =      9.50714  B =      0.13853  C =      0.13782 [cm^-1]
  Rotational constants: A = 285016.98766  B =   4152.89057  C =   4131.75317 [MHz]
  Nuclear repulsion =   36.839381160652493

  Charge       = 0
  Multiplicity = 1
  Electrons    = 18
  Nalpha       = 9
  Nbeta        = 9

  ==> Algorithm <==

  SCF Algorithm Type is DF.
  DIIS enabled.
  MOM disabled.
  Fractional occupation disabled.
  Guess Type is SAD.
  Energy threshold   = 1.00e-06
  Density threshold  = 1.00e-06
  Integral threshold = 0.00e+00

  ==> Primary Basis <==

  Basis Set: CC-PVDZ
    Blend: CC-PVDZ
    Number of shells: 18
    Number of basis function: 38
    Number of Cartesian functions: 40
    Spherical Harmonics?: true
    Max angular momentum: 2

  ==> DFT Potential <==

   => Composite Functional: B3LYP-D3ZERO <= 

    B3LYP-d3zero Hyb-GGA Exchange-Correlation Functional

    P. J. Stephens, F. J. Devlin, C. F. Chabalowski, and M. J. Frisch, J. Phys. Chem. 98, 11623 (1994)

    Deriv               =              1
    GGA                 =           TRUE
    Meta                =          FALSE

    Exchange Hybrid     =           TRUE
    MP2 Hybrid          =          FALSE

   => Exchange Functionals <=

    0.0800   Slater exchange
    0.7200         Becke 88

   => Exact (HF) Exchange <=

    0.2000               HF 

   => Correlation Functionals <=

    0.1900   Vosko, Wilk & Nusair (VWN5_RPA)
    0.8100   Lee, Yang & Parr

   => Molecular Quadrature <=

    Radial Scheme       =       TREUTLER
    Pruning Scheme      =           FLAT
    Nuclear Scheme      =       TREUTLER

    BS radius alpha     =              1
    Pruning alpha       =              1
    Radial Points       =             75
    Spherical Points    =            302
    Total Points        =          88294
    Total Blocks        =            704
    Max Points          =            254
    Max Functions       =             38

   => -D3ZERO: Empirical Dispersion <=

    Grimme's -D3 (zero-damping) Dispersion Correction
    Grimme S.; Antony J.; Ehrlich S.; Krieg H. (2010), J. Chem. Phys., 132: 154104

        S6 =   1.000000E+00
        S8 =   1.703000E+00
       SR6 =   1.261000E+00
       SR8 =   1.000000E+00
    ALPHA6 =   1.400000E+01

   => Loading Basis Set <=

    Name: (CC-PVDZ AUX)
    Role: JKFIT
    Keyword: DF_BASIS_SCF
    atoms 1-2 entry O          line   221 file /shared/joao/test_parameterize/miniconda3/share/psi4/basis/cc-pvdz-jkfit.gbs 
    atoms 3-4 entry H          line    51 file /shared/joao/test_parameterize/miniconda3/share/psi4/basis/cc-pvdz-jkfit.gbs 

  ==> Pre-Iterations <==

   -------------------------------------------------------
    Irrep   Nso     Nmo     Nalpha   Nbeta   Ndocc  Nsocc
   -------------------------------------------------------
     A         38      38       0       0       0       0
   -------------------------------------------------------
    Total      38      38       9       9       9       0
   -------------------------------------------------------

  ==> Integral Setup <==

  DFHelper Memory: AOs need 0.003 [GiB]; user supplied 3.486 [GiB]. Using in-core AOs.

  ==> MemDFJK: Density-Fitted J/K Matrices <==

    J tasked:                   Yes
    K tasked:                   Yes
    wK tasked:                   No
    OpenMP threads:               1
    Memory (MB):               3570
    Algorithm:                 Core
    Schwarz Cutoff:           1E-12
    Mask sparsity (%):       0.0000
    Fitting Condition:        1E-12

   => Auxiliary Basis Set <=

  Basis Set: (CC-PVDZ AUX)
    Blend: CC-PVDZ-JKFIT
    Number of shells: 66
    Number of basis function: 186
    Number of Cartesian functions: 212
    Spherical Harmonics?: true
    Max angular momentum: 3

  Minimum eigenvalue in the overlap matrix is 2.5866361359E-02.
  Using Symmetric Orthogonalization.

  SCF Guess: Superposition of Atomic Densities via on-the-fly atomic UHF.

  ==> Iterations <==

                           Total Energy        Delta E     RMS |[F,P]|

   @DF-RKS iter   0:  -151.59043843088318   -1.51590e+02   4.87870e-02 
   @DF-RKS iter   1:  -151.51532575814431    7.51127e-02   7.30782e-03 
   @DF-RKS iter   2:  -151.51473456196993    5.91196e-04   7.58421e-03 DIIS
   @DF-RKS iter   3:  -151.54534290391118   -3.06083e-02   8.52192e-04 DIIS
   @DF-RKS iter   4:  -151.54569915334912   -3.56249e-04   1.11989e-04 DIIS
   @DF-RKS iter   5:  -151.54569689451429    2.25883e-06   1.36444e-04 DIIS
   @DF-RKS iter   6:  -151.54570668460508   -9.79009e-06   7.76091e-06 DIIS
   @DF-RKS iter   7:  -151.54570673228940   -4.76843e-08   1.68514e-06 DIIS
   @DF-RKS iter   8:  -151.54570673400764   -1.71823e-09   1.21041e-07 DIIS

  ==> Post-Iterations <==

    Orbital Energies [Eh]
    ---------------------

    Doubly Occupied:                                                      

       1A    -19.190895     2A    -19.190857     3A     -1.117347  
       4A     -0.887084     5A     -0.538461     6A     -0.458686  
       7A     -0.423603     8A     -0.311289     9A     -0.274939  

    Virtual:                                                              

      10A      0.022298    11A      0.034588    12A      0.110652  
      13A      0.573510    14A      0.575781    15A      0.855759  
      16A      0.872715    17A      0.909786    18A      0.926200  
      19A      1.015075    20A      1.035052    21A      1.232445  
      22A      1.302142    23A      1.312039    24A      1.412214  
      25A      1.660662    26A      1.714626    27A      2.051012  
      28A      2.075418    29A      2.404787    30A      2.436787  
      31A      2.574202    32A      2.865016    33A      2.932392  
      34A      3.068570    35A      3.094970    36A      3.451868  
      37A      3.577411    38A      3.819263  

    Final Occupation by Irrep:
              A 
    DOCC [     9 ]

  Energy converged.

  @DF-RKS Final Energy:  -151.54570673400764

   => Energetics <=

    Nuclear Repulsion Energy =             36.8393811606524935
    One-Electron Energy =                -281.6001302712633105
    Two-Electron Energy =                 107.6768077275663416
    DFT Exchange-Correlation Energy =     -14.4615390209631531
    Empirical Dispersion Energy =          -0.0002263300000000
    VV10 Nonlocal Energy =                  0.0000000000000000
    Total Energy =                       -151.5457067340076378



Properties will be evaluated at   0.000000,   0.000000,   0.000000 [a0]

Properties computed using the SCF density matrix

  Nuclear Dipole Moment: [e a0]
     X:    58.9227      Y:    -4.8545      Z:     1.2084

  Electronic Dipole Moment: [e a0]
     X:   -58.9945      Y:     3.8204      Z:    -1.1321

  Dipole Moment: [e a0]
     X:    -0.0718      Y:    -1.0341      Z:     0.0763     Total:     1.0394

  Dipole Moment: [D]
     X:    -0.1825      Y:    -2.6284      Z:     0.1939     Total:     2.6419


*** tstop() called on loro.prib.upf.edu at Sat Sep 29 16:27:15 2018
Module time:
	user time   =       2.72 seconds =       0.05 minutes
	system time =       0.07 seconds =       0.00 minutes
	total time  =          5 seconds =       0.08 minutes
Total time:
	user time   =       2.72 seconds =       0.05 minutes
	system time =       0.07 seconds =       0.00 minutes
	total time  =          5 seconds =       0.08 minutes


Properties will be evaluated at   0.000000,   0.000000,   0.000000 [a0]
OEProp: No title given, name of density matrix used for the following properties is 'SCF density'
  Nuclear Dipole Moment: [e a0]
     X:    58.9227      Y:    -4.8545      Z:     1.2084

  Electronic Dipole Moment: [e a0]
     X:   -58.9945      Y:     3.8204      Z:    -1.1321

  Dipole Moment: [e a0]
     X:    -0.0718      Y:    -1.0341      Z:     0.0763     Total:     1.0394

  Dipole Moment: [D]
     X:    -0.1825      Y:    -2.6284      Z:     0.1939     Total:     2.6419

  Quadrupole Moment: [D A]
    XX:   -11.8034     YY:    -9.1564     ZZ:   -11.0164
    XY:    -4.3073     XZ:     2.0893     YZ:    -0.3283

  Traceless Quadrupole Moment: [D A]
    XX:    -1.1446     YY:     1.5023     ZZ:    -0.3577
    XY:    -4.3073     XZ:     2.0893     YZ:    -0.3283

  Mulliken Charges: (a.u.)
   Center  Symbol    Alpha    Beta     Spin     Total
       1     O     4.08537  4.08537  0.00000 -0.17073
       2     O     4.08535  4.08535  0.00000 -0.17069
       3     H     0.41463  0.41463  0.00000  0.17073
       4     H     0.41465  0.41465  0.00000  0.17069

   Total alpha =  9.00000, Total beta =  9.00000, Total charge = -0.00000


    Psi4 stopped on: Saturday, 29 September 2018 04:27PM
    Psi4 wall time for execution: 0:00:04.88

*** Psi4 exiting successfully. Buy a developer a beer!
