
    -----------------------------------------------------------------------
          Psi4: An Open-Source Ab Initio Electronic Structure Package
                               Psi4 1.2.1 release

                         Git: Rev {HEAD} 406f4de 


    R. M. Parrish, L. A. Burns, D. G. A. Smith, A. C. Simmonett,
    A. E. DePrince III, E. G. Hohenstein, U. Bozkaya, A. Yu. Sokolov,
    R. Di Remigio, R. M. Richard, J. F. Gonthier, A. M. James,
    H. R. McAlexander, A. Kumar, M. Saitow, X. Wang, B. P. Pritchard,
    P. Verma, H. F. Schaefer III, K. Patkowski, R. A. King, E. F. Valeev,
    F. A. Evangelista, J. M. Turney, T. D. Crawford, and C. D. Sherrill,
    J. Chem. Theory Comput. 13(7) pp 3185--3197 (2017).
    (doi: 10.1021/acs.jctc.7b00174)


                         Additional Contributions by
    P. Kraus, H. Kruse, M. H. Lechner, M. C. Schieber, and R. A. Shaw

    -----------------------------------------------------------------------


    Psi4 started on: Saturday, 29 September 2018 05:10PM

    Process ID: 13624
    Host:       loro.prib.upf.edu
    PSIDATADIR: /shared/joao/test_parameterize/miniconda3/share/psi4
    Memory:     500.0 MiB
    Threads:    1
    
  ==> Input File <==

--------------------------------------------------------------------------
set_num_threads(1)
set_memory('5348 MB')

set { scf_mem_safety_factor 0.7 }

set { reference rks }
set { basis cc-pVDZ }

molecule MOL {
    0 1
    noreorient
    nocom
    symmetry c1
    O    1.050400   0.042900  -0.048100
    C    2.474100   0.047400  -0.029000
    C    3.002600  -1.068900  -0.932000
    N    4.462700  -1.072400  -1.006800
    H    0.760400   0.728400   0.578000
    H    2.809900  -0.097900   1.003200
    H    2.817400   1.026800  -0.378600
    H    2.581000  -0.963300  -1.938400
    H    2.653800  -2.036400  -0.553400
    H    4.845867  -1.372382  -0.110878
    H    4.786540  -0.114741  -1.141960
}

set optking { frozen_dihedral = (" 2 3 4 10 ") }

energy, wfn = energy('B3LYP-D3', return_wfn=True)

import os
os.chdir(os.environ['HTMD_PSI4_WORKDIR'])

oeprop(wfn, 'DIPOLE', 'QUADRUPOLE', 'MULLIKEN_CHARGES')

with open('psi4out.xyz', 'w') as f:
    f.write('11 ' )
    f.write('%.12f\n' % energy)
    f.write(MOL.save_string_xyz())
--------------------------------------------------------------------------
  Threads set to 1 by Python driver.

  Memory set to   4.981 GiB by Python driver.

*** tstart() called on loro.prib.upf.edu
*** at Sat Sep 29 17:10:05 2018

   => Loading Basis Set <=

    Name: CC-PVDZ
    Role: ORBITAL
    Keyword: BASIS
    atoms 1    entry O          line   198 file /shared/joao/test_parameterize/miniconda3/share/psi4/basis/cc-pvdz.gbs 
    atoms 2-3  entry C          line   138 file /shared/joao/test_parameterize/miniconda3/share/psi4/basis/cc-pvdz.gbs 
    atoms 4    entry N          line   168 file /shared/joao/test_parameterize/miniconda3/share/psi4/basis/cc-pvdz.gbs 
    atoms 5-11 entry H          line    22 file /shared/joao/test_parameterize/miniconda3/share/psi4/basis/cc-pvdz.gbs 


         ---------------------------------------------------------
                                   SCF
            by Justin Turney, Rob Parrish, Andy Simmonett
                             and Daniel Smith
                              RKS Reference
                        1 Threads,   5100 MiB Core
         ---------------------------------------------------------

  ==> Geometry <==

    Molecular point group: c1
    Full point group: C1

    Geometry (in Angstrom), charge = 0, multiplicity = 1:

       Center              X                  Y                   Z               Mass       
    ------------   -----------------  -----------------  -----------------  -----------------
         O            1.050400000000     0.042900000000    -0.048100000000    15.994914619560
         C            2.474100000000     0.047400000000    -0.029000000000    12.000000000000
         C            3.002600000000    -1.068900000000    -0.932000000000    12.000000000000
         N            4.462700000000    -1.072400000000    -1.006800000000    14.003074004780
         H            0.760400000000     0.728400000000     0.578000000000     1.007825032070
         H            2.809900000000    -0.097900000000     1.003200000000     1.007825032070
         H            2.817400000000     1.026800000000    -0.378600000000     1.007825032070
         H            2.581000000000    -0.963300000000    -1.938400000000     1.007825032070
         H            2.653800000000    -2.036400000000    -0.553400000000     1.007825032070
         H            4.845867000000    -1.372382000000    -0.110878000000     1.007825032070
         H            4.786540000000    -0.114741000000    -1.141960000000     1.007825032070

  Running in c1 symmetry.

  Rotational constants: A =      0.72316  B =      0.02779  C =      0.02715 [cm^-1]
  Rotational constants: A =  21679.66621  B =    833.25062  C =    813.94302 [MHz]
  Nuclear repulsion =  130.881240121472871

  Charge       = 0
  Multiplicity = 1
  Electrons    = 34
  Nalpha       = 17
  Nbeta        = 17

  ==> Algorithm <==

  SCF Algorithm Type is DF.
  DIIS enabled.
  MOM disabled.
  Fractional occupation disabled.
  Guess Type is SAD.
  Energy threshold   = 1.00e-06
  Density threshold  = 1.00e-06
  Integral threshold = 0.00e+00

  ==> Primary Basis <==

  Basis Set: CC-PVDZ
    Blend: CC-PVDZ
    Number of shells: 45
    Number of basis function: 91
    Number of Cartesian functions: 95
    Spherical Harmonics?: true
    Max angular momentum: 2

  ==> DFT Potential <==

   => Composite Functional: B3LYP-D3ZERO <= 

    B3LYP-d3zero Hyb-GGA Exchange-Correlation Functional

    P. J. Stephens, F. J. Devlin, C. F. Chabalowski, and M. J. Frisch, J. Phys. Chem. 98, 11623 (1994)

    Deriv               =              1
    GGA                 =           TRUE
    Meta                =          FALSE

    Exchange Hybrid     =           TRUE
    MP2 Hybrid          =          FALSE

   => Exchange Functionals <=

    0.0800   Slater exchange
    0.7200         Becke 88

   => Exact (HF) Exchange <=

    0.2000               HF 

   => Correlation Functionals <=

    0.1900   Vosko, Wilk & Nusair (VWN5_RPA)
    0.8100   Lee, Yang & Parr

   => Molecular Quadrature <=

    Radial Scheme       =       TREUTLER
    Pruning Scheme      =           FLAT
    Nuclear Scheme      =       TREUTLER

    BS radius alpha     =              1
    Pruning alpha       =              1
    Radial Points       =             75
    Spherical Points    =            302
    Total Points        =         245074
    Total Blocks        =           1877
    Max Points          =            256
    Max Functions       =             91

   => -D3ZERO: Empirical Dispersion <=

    Grimme's -D3 (zero-damping) Dispersion Correction
    Grimme S.; Antony J.; Ehrlich S.; Krieg H. (2010), J. Chem. Phys., 132: 154104

        S6 =   1.000000E+00
        S8 =   1.703000E+00
       SR6 =   1.261000E+00
       SR8 =   1.000000E+00
    ALPHA6 =   1.400000E+01

   => Loading Basis Set <=

    Name: (CC-PVDZ AUX)
    Role: JKFIT
    Keyword: DF_BASIS_SCF
    atoms 1    entry O          line   221 file /shared/joao/test_parameterize/miniconda3/share/psi4/basis/cc-pvdz-jkfit.gbs 
    atoms 2-3  entry C          line   121 file /shared/joao/test_parameterize/miniconda3/share/psi4/basis/cc-pvdz-jkfit.gbs 
    atoms 4    entry N          line   171 file /shared/joao/test_parameterize/miniconda3/share/psi4/basis/cc-pvdz-jkfit.gbs 
    atoms 5-11 entry H          line    51 file /shared/joao/test_parameterize/miniconda3/share/psi4/basis/cc-pvdz-jkfit.gbs 

  ==> Pre-Iterations <==

   -------------------------------------------------------
    Irrep   Nso     Nmo     Nalpha   Nbeta   Ndocc  Nsocc
   -------------------------------------------------------
     A         91      91       0       0       0       0
   -------------------------------------------------------
    Total      91      91      17      17      17       0
   -------------------------------------------------------

  ==> Integral Setup <==

  DFHelper Memory: AOs need 0.036 [GiB]; user supplied 3.486 [GiB]. Using in-core AOs.

  ==> MemDFJK: Density-Fitted J/K Matrices <==

    J tasked:                   Yes
    K tasked:                   Yes
    wK tasked:                   No
    OpenMP threads:               1
    Memory (MB):               3570
    Algorithm:                 Core
    Schwarz Cutoff:           1E-12
    Mask sparsity (%):       0.1208
    Fitting Condition:        1E-12

   => Auxiliary Basis Set <=

  Basis Set: (CC-PVDZ AUX)
    Blend: CC-PVDZ-JKFIT
    Number of shells: 159
    Number of basis function: 441
    Number of Cartesian functions: 499
    Spherical Harmonics?: true
    Max angular momentum: 3

  Minimum eigenvalue in the overlap matrix is 4.6703533297E-03.
  Using Symmetric Orthogonalization.

  SCF Guess: Superposition of Atomic Densities via on-the-fly atomic UHF.

  ==> Iterations <==

                           Total Energy        Delta E     RMS |[F,P]|

   @DF-RKS iter   0:  -210.84158538786312   -2.10842e+02   3.66163e-02 
   @DF-RKS iter   1:  -210.22210138687484    6.19484e-01   6.95117e-03 
   @DF-RKS iter   2:  -210.07617895114799    1.45922e-01   9.61047e-03 DIIS
   @DF-RKS iter   3:  -210.39166001162502   -3.15481e-01   6.28751e-04 DIIS
   @DF-RKS iter   4:  -210.39262137497235   -9.61363e-04   3.58714e-04 DIIS
   @DF-RKS iter   5:  -210.39308816328429   -4.66788e-04   4.74064e-05 DIIS
   @DF-RKS iter   6:  -210.39309390888292   -5.74560e-06   2.45338e-05 DIIS
   @DF-RKS iter   7:  -210.39309606179043   -2.15291e-06   2.22745e-06 DIIS
   @DF-RKS iter   8:  -210.39309607945199   -1.76616e-08   8.95117e-07 DIIS

  ==> Post-Iterations <==

    Orbital Energies [Eh]
    ---------------------

    Doubly Occupied:                                                      

       1A    -19.128568     2A    -14.308075     3A    -10.224924  
       4A    -10.202825     5A     -1.011274     6A     -0.880031  
       7A     -0.710794     8A     -0.605348     9A     -0.504658  
      10A     -0.499940    11A     -0.439761    12A     -0.419466  
      13A     -0.402315    14A     -0.351515    15A     -0.331862  
      16A     -0.263678    17A     -0.236397  

    Virtual:                                                              

      18A      0.050655    19A      0.054839    20A      0.093901  
      21A      0.111777    22A      0.130690    23A      0.159377  
      24A      0.165190    25A      0.206684    26A      0.250215  
      27A      0.254283    28A      0.431591    29A      0.449171  
      30A      0.492978    31A      0.510870    32A      0.513658  
      33A      0.562411    34A      0.596912    35A      0.634571  
      36A      0.637510    37A      0.651130    38A      0.657223  
      39A      0.679114    40A      0.719205    41A      0.825495  
      42A      0.837649    43A      0.853305    44A      0.917808  
      45A      0.937338    46A      0.989300    47A      0.991136  
      48A      1.062306    49A      1.195245    50A      1.208465  
      51A      1.231342    52A      1.267830    53A      1.292352  
      54A      1.345357    55A      1.366958    56A      1.506343  
      57A      1.581887    58A      1.587632    59A      1.620410  
      60A      1.640708    61A      1.651620    62A      1.656976  
      63A      1.674075    64A      1.722893    65A      1.731494  
      66A      1.786020    67A      1.805175    68A      1.886175  
      69A      1.916463    70A      1.935498    71A      1.963152  
      72A      1.990673    73A      2.088013    74A      2.100151  
      75A      2.173247    76A      2.214706    77A      2.291905  
      78A      2.393060    79A      2.410229    80A      2.427509  
      81A      2.466120    82A      2.511093    83A      2.643127  
      84A      2.673985    85A      2.813408    86A      2.950395  
      87A      3.027334    88A      3.048740    89A      3.095583  
      90A      3.206603    91A      3.692096  

    Final Occupation by Irrep:
              A 
    DOCC [    17 ]

  Energy converged.

  @DF-RKS Final Energy:  -210.39309607945199

   => Energetics <=

    Nuclear Repulsion Energy =            130.8812401214728709
    One-Electron Energy =                -544.6237546088883619
    Two-Electron Energy =                 226.8404369381618721
    DFT Exchange-Correlation Energy =     -23.4858663401983314
    Empirical Dispersion Energy =          -0.0051521900000000
    VV10 Nonlocal Energy =                  0.0000000000000000
    Total Energy =                       -210.3930960794519649



Properties will be evaluated at   0.000000,   0.000000,   0.000000 [a0]

Properties computed using the SCF density matrix

  Nuclear Dipole Moment: [e a0]
     X:   177.1754      Y:   -30.4664      Z:   -29.7451

  Electronic Dipole Moment: [e a0]
     X:  -176.9682      Y:    31.1106      Z:    30.4644

  Dipole Moment: [e a0]
     X:     0.2073      Y:     0.6442      Z:     0.7193     Total:     0.9876

  Dipole Moment: [D]
     X:     0.5269      Y:     1.6373      Z:     1.8282     Total:     2.5101


*** tstop() called on loro.prib.upf.edu at Sat Sep 29 17:10:22 2018
Module time:
	user time   =      15.32 seconds =       0.26 minutes
	system time =       0.24 seconds =       0.00 minutes
	total time  =         17 seconds =       0.28 minutes
Total time:
	user time   =      15.32 seconds =       0.26 minutes
	system time =       0.24 seconds =       0.00 minutes
	total time  =         17 seconds =       0.28 minutes


Properties will be evaluated at   0.000000,   0.000000,   0.000000 [a0]
OEProp: No title given, name of density matrix used for the following properties is 'SCF density'
  Nuclear Dipole Moment: [e a0]
     X:   177.1754      Y:   -30.4664      Z:   -29.7451

  Electronic Dipole Moment: [e a0]
     X:  -176.9682      Y:    31.1106      Z:    30.4644

  Dipole Moment: [e a0]
     X:     0.2073      Y:     0.6442      Z:     0.7193     Total:     0.9876

  Dipole Moment: [D]
     X:     0.5269      Y:     1.6373      Z:     1.8282     Total:     2.5101

  Quadrupole Moment: [D A]
    XX:   -24.3250     YY:   -25.5763     ZZ:   -26.6487
    XY:     4.3088     XZ:     5.4494     YZ:    -1.8462

  Traceless Quadrupole Moment: [D A]
    XX:     1.1917     YY:    -0.0597     ZZ:    -1.1320
    XY:     4.3088     XZ:     5.4494     YZ:    -1.8462

  Mulliken Charges: (a.u.)
   Center  Symbol    Alpha    Beta     Spin     Total
       1     O     4.13866  4.13866  0.00000 -0.27732
       2     C     2.94232  2.94232  0.00000  0.11537
       3     C     2.97763  2.97763  0.00000  0.04475
       4     N     3.59032  3.59032  0.00000 -0.18065
       5     H     0.43094  0.43094  0.00000  0.13812
       6     H     0.50622  0.50622  0.00000 -0.01245
       7     H     0.50448  0.50448  0.00000 -0.00896
       8     H     0.48848  0.48848  0.00000  0.02304
       9     H     0.48957  0.48957  0.00000  0.02087
      10     H     0.46505  0.46505  0.00000  0.06991
      11     H     0.46634  0.46634  0.00000  0.06733

   Total alpha = 17.00000, Total beta = 17.00000, Total charge =  0.00000


    Psi4 stopped on: Saturday, 29 September 2018 05:10PM
    Psi4 wall time for execution: 0:00:16.89

*** Psi4 exiting successfully. Buy a developer a beer!
