
    -----------------------------------------------------------------------
          Psi4: An Open-Source Ab Initio Electronic Structure Package
                               Psi4 1.2.1 release

                         Git: Rev {HEAD} 406f4de 


    R. M. Parrish, L. A. Burns, D. G. A. Smith, A. C. Simmonett,
    A. E. DePrince III, E. G. Hohenstein, U. Bozkaya, A. Yu. Sokolov,
    R. Di Remigio, R. M. Richard, J. F. Gonthier, A. M. James,
    H. R. McAlexander, A. Kumar, M. Saitow, X. Wang, B. P. Pritchard,
    P. Verma, H. F. Schaefer III, K. Patkowski, R. A. King, E. F. Valeev,
    F. A. Evangelista, J. M. Turney, T. D. Crawford, and C. D. Sherrill,
    J. Chem. Theory Comput. 13(7) pp 3185--3197 (2017).
    (doi: 10.1021/acs.jctc.7b00174)


                         Additional Contributions by
    P. Kraus, H. Kruse, M. H. Lechner, M. C. Schieber, and R. A. Shaw

    -----------------------------------------------------------------------


    Psi4 started on: Saturday, 29 September 2018 04:50PM

    Process ID: 5746
    Host:       loro.prib.upf.edu
    PSIDATADIR: /shared/joao/test_parameterize/miniconda3/share/psi4
    Memory:     500.0 MiB
    Threads:    1
    
  ==> Input File <==

--------------------------------------------------------------------------
set_num_threads(1)
set_memory('5348 MB')

set { scf_mem_safety_factor 0.7 }

set { reference rks }
set { basis cc-pVDZ }

molecule MOL {
    0 1
    noreorient
    nocom
    symmetry c1
    O    1.141000   0.017000   0.083000
    C    2.558000   0.086000  -0.005000
    C    3.192000  -0.789000   1.067000
    O    4.610000  -0.719000   0.979000
    H    0.789000   0.590000  -0.620000
    H    2.874000   1.128000   0.115000
    H    2.871000  -0.243000  -1.001000
    H    2.876000  -1.830000   0.947000
    H    2.879000  -0.459000   2.064000
    H    4.900977  -0.095666   1.667239
}

set optking { frozen_dihedral = (" 2 3 4 10 ") }

energy, wfn = energy('B3LYP-D3', return_wfn=True)

import os
os.chdir(os.environ['HTMD_PSI4_WORKDIR'])

oeprop(wfn, 'DIPOLE', 'QUADRUPOLE', 'MULLIKEN_CHARGES')

with open('psi4out.xyz', 'w') as f:
    f.write('10 ' )
    f.write('%.12f\n' % energy)
    f.write(MOL.save_string_xyz())
--------------------------------------------------------------------------
  Threads set to 1 by Python driver.

  Memory set to   4.981 GiB by Python driver.

*** tstart() called on loro.prib.upf.edu
*** at Sat Sep 29 16:50:41 2018

   => Loading Basis Set <=

    Name: CC-PVDZ
    Role: ORBITAL
    Keyword: BASIS
    atoms 1, 4 entry O          line   198 file /shared/joao/test_parameterize/miniconda3/share/psi4/basis/cc-pvdz.gbs 
    atoms 2-3  entry C          line   138 file /shared/joao/test_parameterize/miniconda3/share/psi4/basis/cc-pvdz.gbs 
    atoms 5-10 entry H          line    22 file /shared/joao/test_parameterize/miniconda3/share/psi4/basis/cc-pvdz.gbs 


         ---------------------------------------------------------
                                   SCF
            by Justin Turney, Rob Parrish, Andy Simmonett
                             and Daniel Smith
                              RKS Reference
                        1 Threads,   5100 MiB Core
         ---------------------------------------------------------

  ==> Geometry <==

    Molecular point group: c1
    Full point group: C1

    Geometry (in Angstrom), charge = 0, multiplicity = 1:

       Center              X                  Y                   Z               Mass       
    ------------   -----------------  -----------------  -----------------  -----------------
         O            1.141000000000     0.017000000000     0.083000000000    15.994914619560
         C            2.558000000000     0.086000000000    -0.005000000000    12.000000000000
         C            3.192000000000    -0.789000000000     1.067000000000    12.000000000000
         O            4.610000000000    -0.719000000000     0.979000000000    15.994914619560
         H            0.789000000000     0.590000000000    -0.620000000000     1.007825032070
         H            2.874000000000     1.128000000000     0.115000000000     1.007825032070
         H            2.871000000000    -0.243000000000    -1.001000000000     1.007825032070
         H            2.876000000000    -1.830000000000     0.947000000000     1.007825032070
         H            2.879000000000    -0.459000000000     2.064000000000     1.007825032070
         H            4.900977000000    -0.095666000000     1.667239000000     1.007825032070

  Running in c1 symmetry.

  Rotational constants: A =      0.82079  B =      0.02544  C =      0.02496 [cm^-1]
  Rotational constants: A =  24606.80881  B =    762.55481  C =    748.30148 [MHz]
  Nuclear repulsion =  129.660189134819120

  Charge       = 0
  Multiplicity = 1
  Electrons    = 34
  Nalpha       = 17
  Nbeta        = 17

  ==> Algorithm <==

  SCF Algorithm Type is DF.
  DIIS enabled.
  MOM disabled.
  Fractional occupation disabled.
  Guess Type is SAD.
  Energy threshold   = 1.00e-06
  Density threshold  = 1.00e-06
  Integral threshold = 0.00e+00

  ==> Primary Basis <==

  Basis Set: CC-PVDZ
    Blend: CC-PVDZ
    Number of shells: 42
    Number of basis function: 86
    Number of Cartesian functions: 90
    Spherical Harmonics?: true
    Max angular momentum: 2

  ==> DFT Potential <==

   => Composite Functional: B3LYP-D3ZERO <= 

    B3LYP-d3zero Hyb-GGA Exchange-Correlation Functional

    P. J. Stephens, F. J. Devlin, C. F. Chabalowski, and M. J. Frisch, J. Phys. Chem. 98, 11623 (1994)

    Deriv               =              1
    GGA                 =           TRUE
    Meta                =          FALSE

    Exchange Hybrid     =           TRUE
    MP2 Hybrid          =          FALSE

   => Exchange Functionals <=

    0.0800   Slater exchange
    0.7200         Becke 88

   => Exact (HF) Exchange <=

    0.2000               HF 

   => Correlation Functionals <=

    0.1900   Vosko, Wilk & Nusair (VWN5_RPA)
    0.8100   Lee, Yang & Parr

   => Molecular Quadrature <=

    Radial Scheme       =       TREUTLER
    Pruning Scheme      =           FLAT
    Nuclear Scheme      =       TREUTLER

    BS radius alpha     =              1
    Pruning alpha       =              1
    Radial Points       =             75
    Spherical Points    =            302
    Total Points        =         222552
    Total Blocks        =           1735
    Max Points          =            256
    Max Functions       =             86

   => -D3ZERO: Empirical Dispersion <=

    Grimme's -D3 (zero-damping) Dispersion Correction
    Grimme S.; Antony J.; Ehrlich S.; Krieg H. (2010), J. Chem. Phys., 132: 154104

        S6 =   1.000000E+00
        S8 =   1.703000E+00
       SR6 =   1.261000E+00
       SR8 =   1.000000E+00
    ALPHA6 =   1.400000E+01

   => Loading Basis Set <=

    Name: (CC-PVDZ AUX)
    Role: JKFIT
    Keyword: DF_BASIS_SCF
    atoms 1, 4 entry O          line   221 file /shared/joao/test_parameterize/miniconda3/share/psi4/basis/cc-pvdz-jkfit.gbs 
    atoms 2-3  entry C          line   121 file /shared/joao/test_parameterize/miniconda3/share/psi4/basis/cc-pvdz-jkfit.gbs 
    atoms 5-10 entry H          line    51 file /shared/joao/test_parameterize/miniconda3/share/psi4/basis/cc-pvdz-jkfit.gbs 

  ==> Pre-Iterations <==

   -------------------------------------------------------
    Irrep   Nso     Nmo     Nalpha   Nbeta   Ndocc  Nsocc
   -------------------------------------------------------
     A         86      86       0       0       0       0
   -------------------------------------------------------
    Total      86      86      17      17      17       0
   -------------------------------------------------------

  ==> Integral Setup <==

  DFHelper Memory: AOs need 0.030 [GiB]; user supplied 3.486 [GiB]. Using in-core AOs.

  ==> MemDFJK: Density-Fitted J/K Matrices <==

    J tasked:                   Yes
    K tasked:                   Yes
    wK tasked:                   No
    OpenMP threads:               1
    Memory (MB):               3570
    Algorithm:                 Core
    Schwarz Cutoff:           1E-12
    Mask sparsity (%):       0.3245
    Fitting Condition:        1E-12

   => Auxiliary Basis Set <=

  Basis Set: (CC-PVDZ AUX)
    Blend: CC-PVDZ-JKFIT
    Number of shells: 150
    Number of basis function: 418
    Number of Cartesian functions: 474
    Spherical Harmonics?: true
    Max angular momentum: 3

  Minimum eigenvalue in the overlap matrix is 5.1171118565E-03.
  Using Symmetric Orthogonalization.

  SCF Guess: Superposition of Atomic Densities via on-the-fly atomic UHF.

  ==> Iterations <==

                           Total Energy        Delta E     RMS |[F,P]|

   @DF-RKS iter   0:  -231.04917410075785   -2.31049e+02   4.13875e-02 
   @DF-RKS iter   1:  -230.19134440115585    8.57830e-01   4.68981e-03 
   @DF-RKS iter   2:  -230.16353907761979    2.78053e-02   5.91977e-03 DIIS
   @DF-RKS iter   3:  -230.25619393273828   -9.26549e-02   7.05280e-04 DIIS
   @DF-RKS iter   4:  -230.25752174843555   -1.32782e-03   2.15170e-04 DIIS
   @DF-RKS iter   5:  -230.25768258143361   -1.60833e-04   4.98016e-05 DIIS
   @DF-RKS iter   6:  -230.25769117328579   -8.59185e-06   7.35009e-06 DIIS
   @DF-RKS iter   7:  -230.25769127416748   -1.00882e-07   4.49411e-06 DIIS
   @DF-RKS iter   8:  -230.25769132802256   -5.38551e-08   4.36170e-07 DIIS

  ==> Post-Iterations <==

    Orbital Energies [Eh]
    ---------------------

    Doubly Occupied:                                                      

       1A    -19.134537     2A    -19.130845     3A    -10.227092  
       4A    -10.223973     5A     -1.020268     6A     -1.009190  
       7A     -0.730787     8A     -0.609556     9A     -0.523940  
      10A     -0.493544    11A     -0.452836    12A     -0.425829  
      13A     -0.396801    14A     -0.337849    15A     -0.325624  
      16A     -0.269681    17A     -0.263942  

    Virtual:                                                              

      18A      0.042789    19A      0.051749    20A      0.107006  
      21A      0.119370    22A      0.126140    23A      0.163839  
      24A      0.187035    25A      0.246715    26A      0.251545  
      27A      0.434658    28A      0.441820    29A      0.503929  
      30A      0.523808    31A      0.554137    32A      0.588306  
      33A      0.604276    34A      0.623016    35A      0.635624  
      36A      0.648841    37A      0.662047    38A      0.681720  
      39A      0.883478    40A      0.906002    41A      0.910104  
      42A      0.971711    43A      1.015352    44A      1.058768  
      45A      1.062691    46A      1.086654    47A      1.202956  
      48A      1.216831    49A      1.280786    50A      1.341800  
      51A      1.347397    52A      1.399115    53A      1.448795  
      54A      1.522359    55A      1.595760    56A      1.602654  
      57A      1.642350    58A      1.650731    59A      1.668043  
      60A      1.704225    61A      1.734331    62A      1.761468  
      63A      1.828435    64A      1.846413    65A      1.914800  
      66A      1.985162    67A      2.034076    68A      2.084030  
      69A      2.097034    70A      2.163765    71A      2.245044  
      72A      2.289605    73A      2.404243    74A      2.430307  
      75A      2.471177    76A      2.521541    77A      2.912223  
      78A      2.941620    79A      2.969762    80A      3.031220  
      81A      3.066508    82A      3.144407    83A      3.191460  
      84A      3.232225    85A      3.664614    86A      3.691470  

    Final Occupation by Irrep:
              A 
    DOCC [    17 ]

  Energy converged.

  @DF-RKS Final Energy:  -230.25769132802256

   => Energetics <=

    Nuclear Repulsion Energy =            129.6601891348191202
    One-Electron Energy =                -571.0502225537784398
    Two-Electron Energy =                 235.6757022429815436
    DFT Exchange-Correlation Energy =     -24.5388374220448000
    Empirical Dispersion Energy =          -0.0045227300000000
    VV10 Nonlocal Energy =                  0.0000000000000000
    Total Energy =                       -230.2576913280225597



Properties will be evaluated at   0.000000,   0.000000,   0.000000 [a0]

Properties computed using the SCF density matrix

  Nuclear Dipole Moment: [e a0]
     X:   184.6224      Y:   -20.3026      Z:    34.0911

  Electronic Dipole Moment: [e a0]
     X:  -184.6503      Y:    20.9718      Z:   -34.0709

  Dipole Moment: [e a0]
     X:    -0.0279      Y:     0.6692      Z:     0.0202     Total:     0.6701

  Dipole Moment: [D]
     X:    -0.0708      Y:     1.7010      Z:     0.0515     Total:     1.7033


*** tstop() called on loro.prib.upf.edu at Sat Sep 29 16:50:55 2018
Module time:
	user time   =      12.86 seconds =       0.21 minutes
	system time =       0.20 seconds =       0.00 minutes
	total time  =         14 seconds =       0.23 minutes
Total time:
	user time   =      12.86 seconds =       0.21 minutes
	system time =       0.20 seconds =       0.00 minutes
	total time  =         14 seconds =       0.23 minutes


Properties will be evaluated at   0.000000,   0.000000,   0.000000 [a0]
OEProp: No title given, name of density matrix used for the following properties is 'SCF density'
  Nuclear Dipole Moment: [e a0]
     X:   184.6224      Y:   -20.3026      Z:    34.0911

  Electronic Dipole Moment: [e a0]
     X:  -184.6503      Y:    20.9718      Z:   -34.0709

  Dipole Moment: [e a0]
     X:    -0.0279      Y:     0.6692      Z:     0.0202     Total:     0.6701

  Dipole Moment: [D]
     X:    -0.0708      Y:     1.7010      Z:     0.0515     Total:     1.7033

  Quadrupole Moment: [D A]
    XX:   -27.3954     YY:   -24.7363     ZZ:   -20.8877
    XY:     5.5029     XZ:     4.5759     YZ:     0.2168

  Traceless Quadrupole Moment: [D A]
    XX:    -3.0556     YY:    -0.3965     ZZ:     3.4521
    XY:     5.5029     XZ:     4.5759     YZ:     0.2168

  Mulliken Charges: (a.u.)
   Center  Symbol    Alpha    Beta     Spin     Total
       1     O     4.14094  4.14094  0.00000 -0.28188
       2     C     2.93669  2.93669  0.00000  0.12662
       3     C     2.93571  2.93571  0.00000  0.12858
       4     O     4.13974  4.13974  0.00000 -0.27947
       5     H     0.42815  0.42815  0.00000  0.14369
       6     H     0.50653  0.50653  0.00000 -0.01306
       7     H     0.49803  0.49803  0.00000  0.00393
       8     H     0.48862  0.48862  0.00000  0.02277
       9     H     0.49711  0.49711  0.00000  0.00578
      10     H     0.42847  0.42847  0.00000  0.14305

   Total alpha = 17.00000, Total beta = 17.00000, Total charge = -0.00000


    Psi4 stopped on: Saturday, 29 September 2018 04:50PM
    Psi4 wall time for execution: 0:00:14.95

*** Psi4 exiting successfully. Buy a developer a beer!
