
    -----------------------------------------------------------------------
          Psi4: An Open-Source Ab Initio Electronic Structure Package
                               Psi4 1.2.1 release

                         Git: Rev {HEAD} 406f4de 


    R. M. Parrish, L. A. Burns, D. G. A. Smith, A. C. Simmonett,
    A. E. DePrince III, E. G. Hohenstein, U. Bozkaya, A. Yu. Sokolov,
    R. Di Remigio, R. M. Richard, J. F. Gonthier, A. M. James,
    H. R. McAlexander, A. Kumar, M. Saitow, X. Wang, B. P. Pritchard,
    P. Verma, H. F. Schaefer III, K. Patkowski, R. A. King, E. F. Valeev,
    F. A. Evangelista, J. M. Turney, T. D. Crawford, and C. D. Sherrill,
    J. Chem. Theory Comput. 13(7) pp 3185--3197 (2017).
    (doi: 10.1021/acs.jctc.7b00174)


                         Additional Contributions by
    P. Kraus, H. Kruse, M. H. Lechner, M. C. Schieber, and R. A. Shaw

    -----------------------------------------------------------------------


    Psi4 started on: Saturday, 29 September 2018 08:45PM

    Process ID: 653
    Host:       arancio.prib.upf.edu
    PSIDATADIR: /shared/joao/test_parameterize/miniconda3/share/psi4
    Memory:     500.0 MiB
    Threads:    1
    
  ==> Input File <==

--------------------------------------------------------------------------
set_num_threads(4)
set_memory('3000 MB')

set { scf_mem_safety_factor 0.7 }

set { reference rks }
set { basis 6-31G* }

molecule MOL {
    1 1
    noreorient
    nocom
    symmetry c1
    C   -0.000000  -0.000000  -0.177864
    C    0.036678   1.219374   0.524165
    C    0.031765   1.213120   1.915444
    C    0.000000   0.000000   2.610107
    C   -0.031765  -1.213120   1.915444
    C   -0.036678  -1.219375   0.524165
    C   -0.000000   0.000000  -1.644734
    H    0.018170   2.164705  -0.010854
    H    0.042402   2.152895   2.457886
    H    0.000000   0.000000   3.695756
    H   -0.042402  -2.152895   2.457886
    H   -0.018170  -2.164705  -0.010853
    N   -0.361476   1.094470  -2.308460
    N    0.361476  -1.094470  -2.308461
    H    0.466896  -1.117362  -3.315997
    H    0.477788  -1.968877  -1.813317
    H   -0.477788   1.968877  -1.813316
    H   -0.466897   1.117363  -3.315996
}

set optking { frozen_dihedral = (" 2 1 7 13 ") }

set optking { dynamic_level = 1 
 geom_maxiter = 250
 print_trajectory_xyz_file = True }

energy, wfn = optimize('B3LYP-D3', return_wfn=True)

import os
os.chdir(os.environ['HTMD_PSI4_WORKDIR'])

oeprop(wfn, 'DIPOLE', 'QUADRUPOLE', 'MULLIKEN_CHARGES')

with open('psi4out.xyz', 'w') as f:
    f.write('18 ' )
    f.write('%.12f\n' % energy)
    f.write(MOL.save_string_xyz())
--------------------------------------------------------------------------
  Threads set to 4 by Python driver.

  Memory set to   2.794 GiB by Python driver.
gradient() will perform analytic gradient computation.

*** tstart() called on arancio.prib.upf.edu
*** at Sat Sep 29 20:45:40 2018

   => Loading Basis Set <=

    Name: 6-31G*
    Role: ORBITAL
    Keyword: BASIS
    atoms 1-7         entry C          line   111 file /shared/joao/test_parameterize/miniconda3/share/psi4/basis/6-31gs.gbs 
    atoms 8-12, 15-18 entry H          line    44 file /shared/joao/test_parameterize/miniconda3/share/psi4/basis/6-31gs.gbs 
    atoms 13-14       entry N          line   128 file /shared/joao/test_parameterize/miniconda3/share/psi4/basis/6-31gs.gbs 


         ---------------------------------------------------------
                                   SCF
            by Justin Turney, Rob Parrish, Andy Simmonett
                             and Daniel Smith
                              RKS Reference
                        4 Threads,   2861 MiB Core
         ---------------------------------------------------------

  ==> Geometry <==

    Molecular point group: c1
    Full point group: C1

    Geometry (in Angstrom), charge = 1, multiplicity = 1:

       Center              X                  Y                   Z               Mass       
    ------------   -----------------  -----------------  -----------------  -----------------
         C            0.000000000000     0.000000000000    -0.177864000000    12.000000000000
         C            0.036678000000     1.219374000000     0.524165000000    12.000000000000
         C            0.031765000000     1.213120000000     1.915444000000    12.000000000000
         C            0.000000000000     0.000000000000     2.610107000000    12.000000000000
         C           -0.031765000000    -1.213120000000     1.915444000000    12.000000000000
         C           -0.036678000000    -1.219375000000     0.524165000000    12.000000000000
         C            0.000000000000     0.000000000000    -1.644734000000    12.000000000000
         H            0.018170000000     2.164705000000    -0.010854000000     1.007825032070
         H            0.042402000000     2.152895000000     2.457886000000     1.007825032070
         H            0.000000000000     0.000000000000     3.695756000000     1.007825032070
         H           -0.042402000000    -2.152895000000     2.457886000000     1.007825032070
         H           -0.018170000000    -2.164705000000    -0.010853000000     1.007825032070
         N           -0.361476000000     1.094470000000    -2.308460000000    14.003074004780
         N            0.361476000000    -1.094470000000    -2.308461000000    14.003074004780
         H            0.466896000000    -1.117362000000    -3.315997000000     1.007825032070
         H            0.477788000000    -1.968877000000    -1.813317000000     1.007825032070
         H           -0.477788000000     1.968877000000    -1.813316000000     1.007825032070
         H           -0.466897000000     1.117363000000    -3.315996000000     1.007825032070

  Running in c1 symmetry.

  Rotational constants: A =      0.12190  B =      0.04045  C =      0.03076 [cm^-1]
  Rotational constants: A =   3654.48751  B =   1212.59179  C =    922.30128 [MHz]
  Nuclear repulsion =  417.519451555744411

  Charge       = 1
  Multiplicity = 1
  Electrons    = 64
  Nalpha       = 32
  Nbeta        = 32

  ==> Algorithm <==

  SCF Algorithm Type is DF.
  DIIS enabled.
  MOM disabled.
  Fractional occupation disabled.
  Guess Type is SAD.
  Energy threshold   = 1.00e-08
  Density threshold  = 1.00e-08
  Integral threshold = 0.00e+00

  ==> Primary Basis <==

  Basis Set: 6-31G*
    Blend: 6-31G*
    Number of shells: 72
    Number of basis function: 153
    Number of Cartesian functions: 153
    Spherical Harmonics?: false
    Max angular momentum: 2

  ==> DFT Potential <==

   => Composite Functional: B3LYP-D3ZERO <= 

    B3LYP-d3zero Hyb-GGA Exchange-Correlation Functional

    P. J. Stephens, F. J. Devlin, C. F. Chabalowski, and M. J. Frisch, J. Phys. Chem. 98, 11623 (1994)

    Deriv               =              1
    GGA                 =           TRUE
    Meta                =          FALSE

    Exchange Hybrid     =           TRUE
    MP2 Hybrid          =          FALSE

   => Exchange Functionals <=

    0.0800   Slater exchange
    0.7200         Becke 88

   => Exact (HF) Exchange <=

    0.2000               HF 

   => Correlation Functionals <=

    0.1900   Vosko, Wilk & Nusair (VWN5_RPA)
    0.8100   Lee, Yang & Parr

   => Molecular Quadrature <=

    Radial Scheme       =       TREUTLER
    Pruning Scheme      =           FLAT
    Nuclear Scheme      =       TREUTLER

    BS radius alpha     =              1
    Pruning alpha       =              1
    Radial Points       =             75
    Spherical Points    =            302
    Total Points        =         396590
    Total Blocks        =           2953
    Max Points          =            256
    Max Functions       =            149

   => -D3ZERO: Empirical Dispersion <=

    Grimme's -D3 (zero-damping) Dispersion Correction
    Grimme S.; Antony J.; Ehrlich S.; Krieg H. (2010), J. Chem. Phys., 132: 154104

        S6 =   1.000000E+00
        S8 =   1.703000E+00
       SR6 =   1.261000E+00
       SR8 =   1.000000E+00
    ALPHA6 =   1.400000E+01

   => Loading Basis Set <=

    Name: (6-31G* AUX)
    Role: JKFIT
    Keyword: DF_BASIS_SCF
    atoms 1-7         entry C          line   121 file /shared/joao/test_parameterize/miniconda3/share/psi4/basis/cc-pvdz-jkfit.gbs 
    atoms 8-12, 15-18 entry H          line    51 file /shared/joao/test_parameterize/miniconda3/share/psi4/basis/cc-pvdz-jkfit.gbs 
    atoms 13-14       entry N          line   171 file /shared/joao/test_parameterize/miniconda3/share/psi4/basis/cc-pvdz-jkfit.gbs 

  ==> Pre-Iterations <==

   -------------------------------------------------------
    Irrep   Nso     Nmo     Nalpha   Nbeta   Ndocc  Nsocc
   -------------------------------------------------------
     A        153     153       0       0       0       0
   -------------------------------------------------------
    Total     153     153      32      32      32       0
   -------------------------------------------------------

  ==> Integral Setup <==

  ==> DiskDFJK: Density-Fitted J/K Matrices <==

    J tasked:                  Yes
    K tasked:                  Yes
    wK tasked:                  No
    OpenMP threads:              4
    Integrals threads:           4
    Memory (MB):              2002
    Algorithm:                Core
    Integral Cache:           NONE
    Schwarz Cutoff:          1E-12
    Fitting Condition:       1E-12

   => Auxiliary Basis Set <=

  Basis Set: (6-31G* AUX)
    Blend: CC-PVDZ-JKFIT
    Number of shells: 297
    Number of basis function: 954
    Number of Cartesian functions: 954
    Spherical Harmonics?: false
    Max angular momentum: 3

  Minimum eigenvalue in the overlap matrix is 4.7561655317E-04.
  Using Symmetric Orthogonalization.

  SCF Guess: Superposition of Atomic Densities via on-the-fly atomic UHF.

  ==> Iterations <==

                           Total Energy        Delta E     RMS |[F,P]|

   @DF-RKS iter   0:  -379.46319608742732   -3.79463e+02   6.75063e-02 
   @DF-RKS iter   1:  -380.99778468940963   -1.53459e+00   1.26477e-02 
   @DF-RKS iter   2:  -380.88107187349982    1.16713e-01   1.41560e-02 DIIS
   @DF-RKS iter   3:  -381.45184371436818   -5.70772e-01   2.08965e-03 DIIS
   @DF-RKS iter   4:  -381.46140515568413   -9.56144e-03   9.07638e-04 DIIS
   @DF-RKS iter   5:  -381.46340694738660   -2.00179e-03   2.52127e-04 DIIS
   @DF-RKS iter   6:  -381.46356584763822   -1.58900e-04   8.63231e-05 DIIS
   @DF-RKS iter   7:  -381.46358617334693   -2.03257e-05   2.36021e-05 DIIS
   @DF-RKS iter   8:  -381.46358788104544   -1.70770e-06   6.57176e-06 DIIS
   @DF-RKS iter   9:  -381.46358801919695   -1.38152e-07   2.17422e-06 DIIS
   @DF-RKS iter  10:  -381.46358803247659   -1.32796e-08   6.37640e-07 DIIS
   @DF-RKS iter  11:  -381.46358803353621   -1.05962e-09   1.68210e-07 DIIS
   @DF-RKS iter  12:  -381.46358803361272   -7.65112e-11   8.42578e-08 DIIS
   @DF-RKS iter  13:  -381.46358803363660   -2.38742e-11   1.20591e-08 DIIS
   @DF-RKS iter  14:  -381.46358803363682   -2.27374e-13   6.66303e-09 DIIS

  ==> Post-Iterations <==

    Orbital Energies [Eh]
    ---------------------

    Doubly Occupied:                                                      

       1A    -14.566548     2A    -14.566541     3A    -10.497989  
       4A    -10.376162     5A    -10.361519     6A    -10.361509  
       7A    -10.345616     8A    -10.343598     9A    -10.343526  
      10A     -1.183932    11A     -1.092378    12A     -1.017267  
      13A     -0.928666    14A     -0.906477    15A     -0.848052  
      16A     -0.786254    17A     -0.779442    18A     -0.738838  
      19A     -0.738426    20A     -0.689998    21A     -0.668794  
      22A     -0.633102    23A     -0.613120    24A     -0.598250  
      25A     -0.580598    26A     -0.580492    27A     -0.517637  
      28A     -0.510417    29A     -0.502430    30A     -0.471791  
      31A     -0.411850    32A     -0.408286  

    Virtual:                                                              

      33A     -0.221483    34A     -0.157434    35A     -0.121989  
      36A     -0.115484    37A     -0.078737    38A     -0.070865  
      39A     -0.043184    40A     -0.027798    41A      0.012694  
      42A      0.026702    43A      0.029816    44A      0.065073  
      45A      0.083792    46A      0.090368    47A      0.117012  
      48A      0.138759    49A      0.151750    50A      0.183503  
      51A      0.233197    52A      0.247377    53A      0.301491  
      54A      0.346954    55A      0.349348    56A      0.375065  
      57A      0.392408    58A      0.395960    59A      0.419252  
      60A      0.424982    61A      0.437983    62A      0.446527  
      63A      0.453921    64A      0.470647    65A      0.470985  
      66A      0.473332    67A      0.482176    68A      0.492930  
      69A      0.492986    70A      0.539928    71A      0.565860  
      72A      0.589694    73A      0.623368    74A      0.643752  
      75A      0.664968    76A      0.693495    77A      0.695712  
      78A      0.703754    79A      0.716470    80A      0.751347  
      81A      0.778133    82A      0.790093    83A      0.795485  
      84A      0.815165    85A      0.847154    86A      0.865719  
      87A      0.872715    88A      0.925726    89A      0.969047  
      90A      1.015648    91A      1.022965    92A      1.048905  
      93A      1.051316    94A      1.064868    95A      1.137056  
      96A      1.180884    97A      1.203274    98A      1.275336  
      99A      1.278166   100A      1.316558   101A      1.320016  
     102A      1.343666   103A      1.353027   104A      1.374341  
     105A      1.374811   106A      1.456971   107A      1.522896  
     108A      1.602027   109A      1.631247   110A      1.647709  
     111A      1.673887   112A      1.735670   113A      1.751781  
     114A      1.799206   115A      1.814998   116A      1.868487  
     117A      1.898337   118A      1.905849   119A      1.932778  
     120A      1.980132   121A      1.990500   122A      2.024936  
     123A      2.036095   124A      2.064900   125A      2.116576  
     126A      2.120786   127A      2.153690   128A      2.226931  
     129A      2.233258   130A      2.277599   131A      2.331560  
     132A      2.362319   133A      2.443372   134A      2.470287  
     135A      2.493306   136A      2.505847   137A      2.528068  
     138A      2.589499   139A      2.595765   140A      2.647900  
     141A      2.739790   142A      2.886191   143A      3.005632  
     144A      3.257191   145A      3.642684   146A      3.693740  
     147A      3.906768   148A      3.943525   149A      3.960506  
     150A      4.039277   151A      4.168224   152A      4.258097  
     153A      4.547258  

    Final Occupation by Irrep:
              A 
    DOCC [    32 ]

  Energy converged.

  @DF-RKS Final Energy:  -381.46358803363682

   => Energetics <=

    Nuclear Repulsion Energy =            417.5194515557444106
    One-Electron Energy =               -1330.0770572996684677
    Two-Electron Energy =                 575.5157973950814494
    DFT Exchange-Correlation Energy =     -44.4102994147941672
    Empirical Dispersion Energy =          -0.0114802700000000
    VV10 Nonlocal Energy =                  0.0000000000000000
    Total Energy =                       -381.4635880336368245



Properties will be evaluated at   0.000000,   0.000000,   0.000000 [a0]

Properties computed using the SCF density matrix

  Nuclear Dipole Moment: [e a0]
     X:    -0.0000      Y:    -0.0000      Z:     0.0248

  Electronic Dipole Moment: [e a0]
     X:     0.0000      Y:     0.0000      Z:    -2.2110

  Dipole Moment: [e a0]
     X:    -0.0000      Y:     0.0000      Z:    -2.1862     Total:     2.1862

  Dipole Moment: [D]
     X:    -0.0000      Y:     0.0000      Z:    -5.5569     Total:     5.5569


*** tstop() called on arancio.prib.upf.edu at Sat Sep 29 20:46:07 2018
Module time:
	user time   =      96.65 seconds =       1.61 minutes
	system time =       0.47 seconds =       0.01 minutes
	total time  =         27 seconds =       0.45 minutes
Total time:
	user time   =      96.65 seconds =       1.61 minutes
	system time =       0.47 seconds =       0.01 minutes
	total time  =         27 seconds =       0.45 minutes

*** tstart() called on arancio.prib.upf.edu
*** at Sat Sep 29 20:46:07 2018


         ------------------------------------------------------------
                                   SCF GRAD                          
                          Rob Parrish, Justin Turney,                
                       Andy Simmonett, and Alex Sokolov              
         ------------------------------------------------------------

  ==> Geometry <==

    Molecular point group: c1
    Full point group: C1

    Geometry (in Angstrom), charge = 1, multiplicity = 1:

       Center              X                  Y                   Z               Mass       
    ------------   -----------------  -----------------  -----------------  -----------------
         C            0.000000000000     0.000000000000    -0.177864000000    12.000000000000
         C            0.036678000000     1.219374000000     0.524165000000    12.000000000000
         C            0.031765000000     1.213120000000     1.915444000000    12.000000000000
         C            0.000000000000     0.000000000000     2.610107000000    12.000000000000
         C           -0.031765000000    -1.213120000000     1.915444000000    12.000000000000
         C           -0.036678000000    -1.219375000000     0.524165000000    12.000000000000
         C            0.000000000000     0.000000000000    -1.644734000000    12.000000000000
         H            0.018170000000     2.164705000000    -0.010854000000     1.007825032070
         H            0.042402000000     2.152895000000     2.457886000000     1.007825032070
         H            0.000000000000     0.000000000000     3.695756000000     1.007825032070
         H           -0.042402000000    -2.152895000000     2.457886000000     1.007825032070
         H           -0.018170000000    -2.164705000000    -0.010853000000     1.007825032070
         N           -0.361476000000     1.094470000000    -2.308460000000    14.003074004780
         N            0.361476000000    -1.094470000000    -2.308461000000    14.003074004780
         H            0.466896000000    -1.117362000000    -3.315997000000     1.007825032070
         H            0.477788000000    -1.968877000000    -1.813317000000     1.007825032070
         H           -0.477788000000     1.968877000000    -1.813316000000     1.007825032070
         H           -0.466897000000     1.117363000000    -3.315996000000     1.007825032070

  Nuclear repulsion =  417.519451555744411

  ==> Basis Set <==

  Basis Set: 6-31G*
    Blend: 6-31G*
    Number of shells: 72
    Number of basis function: 153
    Number of Cartesian functions: 153
    Spherical Harmonics?: false
    Max angular momentum: 2

  ==> DFJKGrad: Density-Fitted SCF Gradients <==

    Gradient:                    1
    J tasked:                  Yes
    K tasked:                  Yes
    wK tasked:                  No
    OpenMP threads:              4
    Integrals threads:           4
    Memory (MB):              2002
    Schwarz Cutoff:          0E+00
    Fitting Condition:       1E-12

   => Auxiliary Basis Set <=

  Basis Set: (6-31G* AUX)
    Blend: CC-PVDZ-JKFIT
    Number of shells: 297
    Number of basis function: 954
    Number of Cartesian functions: 954
    Spherical Harmonics?: false
    Max angular momentum: 3

  ==> DFT Potential <==

   => Composite Functional: B3LYP-D3ZERO <= 

    B3LYP-d3zero Hyb-GGA Exchange-Correlation Functional

    P. J. Stephens, F. J. Devlin, C. F. Chabalowski, and M. J. Frisch, J. Phys. Chem. 98, 11623 (1994)

    Deriv               =              1
    GGA                 =           TRUE
    Meta                =          FALSE

    Exchange Hybrid     =           TRUE
    MP2 Hybrid          =          FALSE

   => Exchange Functionals <=

    0.0800   Slater exchange
    0.7200         Becke 88

   => Exact (HF) Exchange <=

    0.2000               HF 

   => Correlation Functionals <=

    0.1900   Vosko, Wilk & Nusair (VWN5_RPA)
    0.8100   Lee, Yang & Parr

   => Molecular Quadrature <=

    Radial Scheme       =       TREUTLER
    Pruning Scheme      =           FLAT
    Nuclear Scheme      =       TREUTLER

    BS radius alpha     =              1
    Pruning alpha       =              1
    Radial Points       =             75
    Spherical Points    =            302
    Total Points        =         396590
    Total Blocks        =           2953
    Max Points          =            256
    Max Functions       =            149


  -Total Gradient:
     Atom            X                  Y                   Z
    ------   -----------------  -----------------  -----------------
       1       -0.000000017804     0.000000754527    -0.000601355597
       2        0.006818410681     0.004340971471    -0.001772231251
       3        0.000303781308    -0.001360401890     0.000771688634
       4       -0.000000000492    -0.000000050616     0.000515045360
       5       -0.000303772074     0.001360656311     0.000771855852
       6       -0.006818424234    -0.004342465380    -0.001772616287
       7       -0.000000087251     0.000000183547     0.000073973604
       8       -0.003916963663    -0.001188691002    -0.004048670374
       9       -0.000766078910     0.000080968700    -0.000045754802
      10       -0.000000000270     0.000000004901     0.000111268194
      11        0.000766077456    -0.000081010522    -0.000045790585
      12        0.003916943686     0.001189404945    -0.004048199951
      13       -0.003633923828    -0.000368035174     0.002432689130
      14        0.003634099694     0.000367599875     0.002432168609
      15        0.002784587926     0.000527132139    -0.000474212584
      16       -0.004193293449    -0.001584443395     0.003078671429
      17        0.004193291711     0.001584470356     0.003078581900
      18       -0.002784630643    -0.000527048796    -0.000474286495


*** tstop() called on arancio.prib.upf.edu at Sat Sep 29 20:46:14 2018
Module time:
	user time   =      26.63 seconds =       0.44 minutes
	system time =       0.21 seconds =       0.00 minutes
	total time  =          7 seconds =       0.12 minutes
Total time:
	user time   =     123.33 seconds =       2.06 minutes
	system time =       0.69 seconds =       0.01 minutes
	total time  =         34 seconds =       0.57 minutes

			-----------------------------------------
			 OPTKING 2.0: for geometry optimizations 
			  - R.A. King,  Bethel University        
			-----------------------------------------
	At level 1: Red. Int., RFO, no backsteps, dynamic trust

	Internal coordinates to be generated automatically.
	Detected frag 1 with atoms:  1 2 3 4 5 6 7 8 9 10 11 12 13 14 15 16 17 18
	---Fragment 1 Bond Connectivity---
	 1 : 2 6 7
	 2 : 1 3 8
	 3 : 2 4 9
	 4 : 3 5 10
	 5 : 4 6 11
	 6 : 1 5 12
	 7 : 1 13 14
	 8 : 2
	 9 : 3
	 10 : 4
	 11 : 5
	 12 : 6
	 13 : 7 17 18
	 14 : 7 15 16
	 15 : 14
	 16 : 14
	 17 : 13
	 18 : 13

	Assuming in current code that numbering for constraints corresponds to unified fragment.
	Frozen dihedral atom list: 
	     2     1     7    13
	---Fragment 1 Geometry and Gradient---
	 C           0.0000000000        0.0000000000       -0.3361142489
	 C           0.0693113751        2.3042829136        0.9905282984
	 C           0.0600271506        2.2924645663        3.6196645829
	 C           0.0000000000        0.0000000000        4.9323874075
	 C          -0.0600271506       -2.2924645663        3.6196645829
	 C          -0.0693113751       -2.3042848033        0.9905282984
	 C           0.0000000000        0.0000000000       -3.1080968214
	 H           0.0343363238        4.0906996085       -0.0205110874
	 H           0.0801281675        4.0683819429        4.6447314059
	 H           0.0000000000        0.0000000000        6.9839666940
	 H          -0.0801281675       -4.0683819429        4.6447314059
	 H          -0.0343363238       -4.0906996085       -0.0205091977
	 N          -0.6830906436        2.0682485607       -4.3623571887
	 N           0.6830906436       -2.0682485607       -4.3623590784
	 H           0.8823055725       -2.1115081713       -6.2663261875
	 H           0.9028884696       -3.7206383193       -3.4266725221
	 H          -0.9028884696        3.7206383193       -3.4266706324
	 H          -0.8823074623        2.1115100610       -6.2663242977
	            -0.0000000178        0.0000007545       -0.0006013556
	             0.0068184107        0.0043409715       -0.0017722313
	             0.0003037813       -0.0013604019        0.0007716886
	            -0.0000000005       -0.0000000506        0.0005150454
	            -0.0003037721        0.0013606563        0.0007718559
	            -0.0068184242       -0.0043424654       -0.0017726163
	            -0.0000000873        0.0000001835        0.0000739736
	            -0.0039169637       -0.0011886910       -0.0040486704
	            -0.0007660789        0.0000809687       -0.0000457548
	            -0.0000000003        0.0000000049        0.0001112682
	             0.0007660775       -0.0000810105       -0.0000457906
	             0.0039169437        0.0011894049       -0.0040482000
	            -0.0036339238       -0.0003680352        0.0024326891
	             0.0036340997        0.0003675999        0.0024321686
	             0.0027845879        0.0005271321       -0.0004742126
	            -0.0041932934       -0.0015844434        0.0030786714
	             0.0041932917        0.0015844704        0.0030785819
	            -0.0027846306       -0.0005270488       -0.0004742865

	Previous optimization step data not found.  Starting new optimization.

	---Fragment 1 Intrafragment Coordinates---
	 - Coordinate -           - BOHR/RAD -       - ANG/DEG -
	 R(1,2)           =         2.659794	       1.407502
	 R(1,6)           =         2.659796	       1.407503
	 R(1,7)           =         2.771983	       1.466870
	 R(2,3)           =         2.629179	       1.391302
	 R(2,8)           =         2.052976	       1.086388
	 R(3,4)           =         2.642393	       1.398294
	 R(3,9)           =         2.050622	       1.085142
	 R(4,5)           =         2.642393	       1.398294
	 R(4,10)          =         2.051579	       1.085649
	 R(5,6)           =         2.629179	       1.391302
	 R(5,11)          =         2.050622	       1.085142
	 R(6,12)          =         2.052973	       1.086386
	 R(7,13)          =         2.513451	       1.330061
	 R(7,14)          =         2.513452	       1.330061
	 R(13,17)         =         1.911599	       1.011575
	 R(13,18)         =         1.914850	       1.013295
	 R(14,15)         =         1.914850	       1.013295
	 R(14,16)         =         1.911599	       1.011575
	 B(1,2,3)         =         2.088380	     119.655376
	 B(1,2,8)         =         2.103396	     120.515689
	 B(1,6,5)         =         2.088379	     119.655315
	 B(1,6,12)        =         2.103396	     120.515729
	 B(1,7,13)        =         2.093263	     119.935139
	 B(1,7,14)        =         2.093264	     119.935176
	 B(2,1,6)         =         2.097220	     120.161857
	 B(2,1,7)         =         2.092983	     119.919082
	 B(2,3,4)         =         2.095279	     120.050636
	 B(2,3,9)         =         2.089719	     119.732108
	 B(3,2,8)         =         2.090149	     119.756722
	 B(3,4,5)         =         2.101793	     120.423859
	 B(3,4,10)        =         2.090696	     119.788070
	 B(4,3,9)         =         2.098135	     120.214297
	 B(4,5,6)         =         2.095280	     120.050677
	 B(4,5,11)        =         2.098135	     120.214297
	 B(5,4,10)        =         2.090696	     119.788070
	 B(5,6,12)        =         2.090149	     119.756743
	 B(6,1,7)         =         2.092982	     119.919061
	 B(6,5,11)        =         2.089719	     119.732067
	 B(7,13,17)       =         2.092412	     119.886391
	 B(7,13,18)       =         2.144860	     122.891430
	 B(7,14,15)       =         2.144860	     122.891398
	 B(7,14,16)       =         2.092412	     119.886354
	 B(13,7,14)       =         2.096659	     120.129685
	 B(15,14,16)      =         2.043400	     117.078192
	 B(17,13,18)      =         2.043399	     117.078126
	 D(1,2,3,4)       =         0.007799	       0.446825
	 D(1,2,3,9)       =        -3.122896	    -178.928735
	 D(1,6,5,4)       =         0.007799	       0.446822
	 D(1,6,5,11)      =        -3.122896	    -178.928737
	 D(1,7,13,17)     =         0.187843	      10.762640
	 D(1,7,13,18)     =        -3.032164	    -173.730214
	 D(1,7,14,15)     =        -3.032165	    -173.730259
	 D(1,7,14,16)     =         0.187843	      10.762636
	 D(2,1,6,5)       =        -0.003906	      -0.223802
	 D(2,1,6,12)      =        -3.091437	    -177.126283
	*D(2,1,7,13)      =        -0.349066	     -19.999995
	 D(2,1,7,14)      =         2.792527	     160.000005
	 D(2,3,4,5)       =        -0.003942	      -0.225875
	 D(2,3,4,10)      =         3.137650	     179.774125
	 D(3,2,1,6)       =        -0.003906	      -0.223806
	 D(3,2,1,7)       =         3.137687	     179.776196
	 D(3,4,5,6)       =        -0.003942	      -0.225874
	 D(3,4,5,11)      =         3.126699	     179.146646
	 D(4,3,2,8)       =         3.095744	     177.373058
	 D(4,5,6,12)      =         3.095744	     177.373055
	 D(5,4,3,9)       =         3.126699	     179.146646
	 D(5,6,1,7)       =         3.137687	     179.776197
	 D(6,1,2,8)       =        -3.091437	    -177.126287
	 D(6,1,7,13)      =         2.792527	     160.000006
	 D(6,1,7,14)      =        -0.349066	     -19.999994
	 D(6,5,4,10)      =         3.137650	     179.774126
	 D(7,1,2,8)       =         0.050156	       2.873714
	 D(7,1,6,12)      =         0.050156	       2.873716
	 D(8,2,3,9)       =        -0.034950	      -2.002503
	 D(9,3,4,10)      =        -0.014894	      -0.853354
	 D(10,4,5,11)     =        -0.014894	      -0.853354
	 D(11,5,6,12)     =        -0.034950	      -2.002504
	 D(13,7,14,15)    =         0.109428	       6.269741
	 D(13,7,14,16)    =        -2.953749	    -169.237364
	 D(14,7,13,17)    =        -2.953749	    -169.237360
	 D(14,7,13,18)    =         0.109428	       6.269786

	Current energy   :      -381.4635880336

	Generating empirical Hessian (Schlegel '84) for each fragment.
	Taking RFO optimization step.
	Going to follow RFO solution 1.
	Using RFO vector 1.
	Norm of target step-size    0.39693
	Projected energy change by RFO approximation:         0.0006518910

	Back-transformation to cartesian coordinates...
	Could not converge backtransformation.
	Using first guess instead.

	Back-transformation to cartesian coordinates to adjust frozen coordinates...
	Successfully converged to displaced geometry.

	--- Internal Coordinate Step in ANG or DEG, aJ/ANG or AJ/DEG ---
	 ---------------------------------------------------------------------------
	   Coordinate                Previous        Force       Change         New 
	   ----------                --------       ------       ------       ------
	    1 R(1,2)          =      1.407502     0.020452     0.003119     1.410622
	    2 R(1,6)          =      1.407503     0.020449     0.003188     1.410691
	    3 R(1,7)          =      1.466870     0.083658     0.014748     1.481618
	    4 R(2,3)          =      1.391302    -0.008757    -0.001061     1.390241
	    5 R(2,8)          =      1.086388    -0.008451     0.001509     1.087897
	    6 R(3,4)          =      1.398294    -0.015990    -0.002146     1.396148
	    7 R(3,9)          =      1.085142    -0.000331     0.000720     1.085862
	    8 R(4,5)          =      1.398294    -0.015986    -0.002127     1.396167
	    9 R(4,10)         =      1.085649    -0.000925    -0.000162     1.085487
	   10 R(5,6)          =      1.391302    -0.008752    -0.001031     1.390271
	   11 R(5,11)         =      1.085142    -0.000332     0.001007     1.086149
	   12 R(6,12)         =      1.086386    -0.008444     0.002221     1.088607
	   13 R(7,13)         =      1.330061     0.011064     0.001684     1.331744
	   14 R(7,14)         =      1.330061     0.011060     0.002286     1.332347
	   15 R(13,17)        =      1.011575    -0.019730     0.005872     1.017447
	   16 R(13,18)        =      1.013295    -0.006166     0.002092     1.015387
	   17 R(14,15)        =      1.013295    -0.006166     0.002323     1.015618
	   18 R(14,16)        =      1.011575    -0.019730     0.007796     1.019370
	   19 B(1,2,3)        =    119.655376     0.000256     0.868231   120.523607
	   20 B(1,2,8)        =    120.515689     0.000202     1.069331   121.585020
	   21 B(1,6,5)        =    119.655315     0.000256     0.875625   120.530940
	   22 B(1,6,12)       =    120.515729     0.000202     1.104779   121.620509
	   23 B(1,7,13)       =    119.935139     0.000462     1.360886   121.296025
	   24 B(1,7,14)       =    119.935176     0.000462     1.312742   121.247918
	   25 B(2,1,6)        =    120.161857    -0.000510    -1.510610   118.651247
	   26 B(2,1,7)        =    119.919082     0.000255     0.744937   120.664018
	   27 B(2,3,4)        =    120.050636     0.000031     0.021885   120.072521
	   28 B(2,3,9)        =    119.732108    -0.000011     0.012315   119.744423
	   29 B(3,2,8)        =    119.756722    -0.000450    -1.917129   117.839593
	   30 B(3,4,5)        =    120.423859    -0.000065    -0.295538   120.128321
	   31 B(3,4,10)       =    119.788070     0.000032     0.149755   119.937825
	   32 B(4,3,9)        =    120.214297    -0.000021    -0.031371   120.182925
	   33 B(4,5,6)        =    120.050677     0.000031     0.017357   120.068034
	   34 B(4,5,11)       =    120.214297    -0.000020    -0.029120   120.185176
	   35 B(5,4,10)       =    119.788070     0.000032     0.145442   119.933512
	   36 B(5,6,12)       =    119.756743    -0.000449    -1.951055   117.805688
	   37 B(6,1,7)        =    119.919061     0.000255     0.744336   120.663397
	   38 B(6,5,11)       =    119.732067    -0.000011     0.013846   119.745913
	   39 B(7,13,17)      =    119.886391     0.000298     1.252906   121.139297
	   40 B(7,13,18)      =    122.891430    -0.000159    -0.841868   122.049562
	   41 B(7,14,15)      =    122.891398    -0.000159    -0.903505   121.987893
	   42 B(7,14,16)      =    119.886354     0.000298     1.307077   121.193431
	   43 B(13,7,14)      =    120.129685    -0.000923    -2.694449   117.435237
	   44 B(15,14,16)     =    117.078192    -0.000133    -0.289029   116.789163
	   45 B(17,13,18)     =    117.078126    -0.000133    -0.296396   116.781730
	   46 D(1,2,3,4)      =      0.446825    -0.000015    -2.111654    -1.664829
	   47 D(1,2,3,9)      =   -178.928735    -0.000021    -2.867702  -181.796437
	   48 D(1,6,5,4)      =      0.446822    -0.000012    -1.485662    -1.038840
	   49 D(1,6,5,11)     =   -178.928737    -0.000019    -2.450075  -181.378812
	   50 D(1,7,13,17)    =     10.762640    -0.000062    -7.817273     2.945367
	   51 D(1,7,13,18)    =   -173.730214    -0.000043    -5.360900  -179.091114
	   52 D(1,7,14,15)    =   -173.730259    -0.000033    -3.654220  -177.384479
	   53 D(1,7,14,16)    =     10.762636    -0.000052    -6.107292     4.655344
	   54 D(2,1,6,5)      =     -0.223802     0.000002     0.130583    -0.093218
	   55 D(2,1,6,12)     =   -177.126283    -0.000037    -5.400667  -182.526950
	   56 *D(2,1,7,13)    =    -19.999995     0.000000     0.000000   -19.999995
	   57 D(2,1,7,14)     =    160.000005    -0.000010    -1.702491   158.297514
	   58 D(2,3,4,5)      =     -0.225875     0.000006     0.741459     0.515583
	   59 D(2,3,4,10)     =    179.774125     0.000007     0.954059   180.728183
	   60 D(3,2,1,6)      =     -0.223806     0.000011     1.670210     1.446405
	   61 D(3,2,1,7)      =    179.776196     0.000002     0.001025   179.777220
	   62 D(3,4,5,6)      =     -0.225874     0.000008     1.060979     0.835104
	   63 D(3,4,5,11)     =    179.146646     0.000015     2.029937   181.176583
	   64 D(4,3,2,8)      =    177.373058     0.000029     3.537966   180.911023
	   65 D(4,5,6,12)     =    177.373055     0.000032     3.931001   181.304056
	   66 D(5,4,3,9)      =    179.146646     0.000012     1.501127   180.647774
	   67 D(5,6,1,7)      =    179.776197     0.000012     1.799758   181.575955
	   68 D(6,1,2,8)      =   -177.126287    -0.000029    -4.101185  -181.227472
	   69 D(6,1,7,13)     =    160.000006    -0.000010    -1.702914   158.297092
	   70 D(6,1,7,14)     =    -19.999994    -0.000020    -3.405405   -23.405399
	   71 D(6,5,4,10)     =    179.774126     0.000007     0.848388   180.622514
	   72 D(7,1,2,8)      =      2.873714    -0.000039    -5.770370    -2.896656
	   73 D(7,1,6,12)     =      2.873716    -0.000027    -3.731493    -0.857777
	   74 D(8,2,3,9)      =     -2.002503     0.000023     2.781918     0.779415
	   75 D(9,3,4,10)     =     -0.853354     0.000013     1.713727     0.860373
	   76 D(10,4,5,11)    =     -0.853354     0.000014     1.817346     0.963992
	   77 D(11,5,6,12)    =     -2.002504     0.000025     2.966588     0.964084
	   78 D(13,7,14,15)   =      6.269741    -0.000043    -5.293320     0.976422
	   79 D(13,7,14,16)   =   -169.237364    -0.000062    -7.746391  -176.983756
	   80 D(14,7,13,17)   =   -169.237360    -0.000052    -6.177337  -175.414697
	   81 D(14,7,13,18)   =      6.269786    -0.000033    -3.720964     2.548822
	 ---------------------------------------------------------------------------
	Successfully symmetrized geometry.

  ==> Convergence Check <==

  Measures of convergence in internal coordinates in au.
  Criteria marked as inactive (o), active & met (*), and active & unmet ( ).
  --------------------------------------------------------------------------------------------- ~
   Step     Total Energy     Delta E     MAX Force     RMS Force      MAX Disp      RMS Disp    ~
  --------------------------------------------------------------------------------------------- ~
    Convergence Criteria    1.00e-06 *    3.00e-04 *             o    1.20e-03 *             o  ~
  --------------------------------------------------------------------------------------------- ~
      1    -381.46358803   -3.81e+02      1.21e-02      2.90e-03 o    1.36e-01      4.39e-02 o  ~
  ---------------------------------------------------------------------------------------------

	Writing optimization data to binary file.
	Structure for next step:
	Cartesian Geometry (in Angstrom)
	    C     0.0103585983  -0.0028278746  -0.1718720638
	    C     0.0391227086   1.2111296579   0.5459948556
	    C     0.0518470547   1.2092352796   1.9361763484
	    C     0.0010848038   0.0014204495   2.6346289309
	    C    -0.0517341075  -1.2083220216   1.9396356324
	    C    -0.0364051755  -1.2142478830   0.5494621995
	    C    -0.0082227149  -0.0043536864  -1.6533723274
	    H     0.0952596367   2.1718811419   0.0387230790
	    H     0.1035482820   2.1501367836   2.4757393554
	    H    -0.0008025023   0.0030178801   3.7201126740
	    H    -0.1105064965  -2.1475693483   2.4819266407
	    H    -0.1009179363  -2.1767614728   0.0450108151
	    N    -0.3886263860   1.0704702734  -2.3415506299
	    N     0.3870129423  -1.0701072126  -2.3484311883
	    H     0.4158540566  -1.0699121545  -3.3636393987
	    H     0.6466485145  -1.9383074791  -1.8815975096
	    H    -0.6348818435   1.9374782858  -1.8694777969
	    H    -0.4186404348   1.0776393810  -3.3564686163
			--------------------------
			 OPTKING Finished Execution 
			--------------------------

    Structure for next step:
    Molecular point group: c1
    Full point group: C1

    Geometry (in Angstrom), charge = 1, multiplicity = 1:

    C            0.010358598275    -0.002827874558    -0.171872063807
    C            0.039122708625     1.211129657943     0.545994855553
    C            0.051847054679     1.209235279641     1.936176348423
    C            0.001084803838     0.001420449463     2.634628930882
    C           -0.051734107479    -1.208322021621     1.939635632434
    C           -0.036405175521    -1.214247883014     0.549462199477
    C           -0.008222714928    -0.004353686371    -1.653372327376
    H            0.095259636681     2.171881141886     0.038723079043
    H            0.103548281961     2.150136783571     2.475739355391
    H           -0.000802502322     0.003017880057     3.720112673955
    H           -0.110506496514    -2.147569348267     2.481926640692
    H           -0.100917936342    -2.176761472787     0.045010815096
    N           -0.388626386045     1.070470273422    -2.341550629872
    N            0.387012942326    -1.070107212607    -2.348431188335
    H            0.415854056600    -1.069912154457    -3.363639398710
    H            0.646648514453    -1.938307479150    -1.881597509581
    H           -0.634881843503     1.937478285832    -1.869477796918
    H           -0.418640434783     1.077639381017    -3.356468616346

gradient() will perform analytic gradient computation.

*** tstart() called on arancio.prib.upf.edu
*** at Sat Sep 29 20:46:15 2018

   => Loading Basis Set <=

    Name: 6-31G*
    Role: ORBITAL
    Keyword: BASIS
    atoms 1-7         entry C          line   111 file /shared/joao/test_parameterize/miniconda3/share/psi4/basis/6-31gs.gbs 
    atoms 8-12, 15-18 entry H          line    44 file /shared/joao/test_parameterize/miniconda3/share/psi4/basis/6-31gs.gbs 
    atoms 13-14       entry N          line   128 file /shared/joao/test_parameterize/miniconda3/share/psi4/basis/6-31gs.gbs 


         ---------------------------------------------------------
                                   SCF
            by Justin Turney, Rob Parrish, Andy Simmonett
                             and Daniel Smith
                              RKS Reference
                        4 Threads,   2861 MiB Core
         ---------------------------------------------------------

  ==> Geometry <==

    Molecular point group: c1
    Full point group: C1

    Geometry (in Angstrom), charge = 1, multiplicity = 1:

       Center              X                  Y                   Z               Mass       
    ------------   -----------------  -----------------  -----------------  -----------------
         C            0.010358598275    -0.002827874558    -0.171872063807    12.000000000000
         C            0.039122708625     1.211129657943     0.545994855553    12.000000000000
         C            0.051847054679     1.209235279641     1.936176348423    12.000000000000
         C            0.001084803838     0.001420449463     2.634628930882    12.000000000000
         C           -0.051734107479    -1.208322021621     1.939635632434    12.000000000000
         C           -0.036405175521    -1.214247883014     0.549462199477    12.000000000000
         C           -0.008222714928    -0.004353686371    -1.653372327376    12.000000000000
         H            0.095259636681     2.171881141886     0.038723079043     1.007825032070
         H            0.103548281961     2.150136783571     2.475739355391     1.007825032070
         H           -0.000802502322     0.003017880057     3.720112673955     1.007825032070
         H           -0.110506496514    -2.147569348267     2.481926640692     1.007825032070
         H           -0.100917936342    -2.176761472787     0.045010815096     1.007825032070
         N           -0.388626386045     1.070470273422    -2.341550629872    14.003074004780
         N            0.387012942326    -1.070107212607    -2.348431188335    14.003074004780
         H            0.415854056600    -1.069912154457    -3.363639398710     1.007825032070
         H            0.646648514453    -1.938307479150    -1.881597509581     1.007825032070
         H           -0.634881843503     1.937478285832    -1.869477796918     1.007825032070
         H           -0.418640434783     1.077639381017    -3.356468616346     1.007825032070

  Running in c1 symmetry.

  Rotational constants: A =      0.12331  B =      0.03934  C =      0.03031 [cm^-1]
  Rotational constants: A =   3696.75944  B =   1179.52935  C =    908.62904 [MHz]
  Nuclear repulsion =  415.596097675222723

  Charge       = 1
  Multiplicity = 1
  Electrons    = 64
  Nalpha       = 32
  Nbeta        = 32

  ==> Algorithm <==

  SCF Algorithm Type is DF.
  DIIS enabled.
  MOM disabled.
  Fractional occupation disabled.
  Guess Type is READ.
  Energy threshold   = 1.00e-08
  Density threshold  = 1.00e-08
  Integral threshold = 0.00e+00

  ==> Primary Basis <==

  Basis Set: 6-31G*
    Blend: 6-31G*
    Number of shells: 72
    Number of basis function: 153
    Number of Cartesian functions: 153
    Spherical Harmonics?: false
    Max angular momentum: 2

  ==> DFT Potential <==

   => Composite Functional: B3LYP-D3ZERO <= 

    B3LYP-d3zero Hyb-GGA Exchange-Correlation Functional

    P. J. Stephens, F. J. Devlin, C. F. Chabalowski, and M. J. Frisch, J. Phys. Chem. 98, 11623 (1994)

    Deriv               =              1
    GGA                 =           TRUE
    Meta                =          FALSE

    Exchange Hybrid     =           TRUE
    MP2 Hybrid          =          FALSE

   => Exchange Functionals <=

    0.0800   Slater exchange
    0.7200         Becke 88

   => Exact (HF) Exchange <=

    0.2000               HF 

   => Correlation Functionals <=

    0.1900   Vosko, Wilk & Nusair (VWN5_RPA)
    0.8100   Lee, Yang & Parr

   => Molecular Quadrature <=

    Radial Scheme       =       TREUTLER
    Pruning Scheme      =           FLAT
    Nuclear Scheme      =       TREUTLER

    BS radius alpha     =              1
    Pruning alpha       =              1
    Radial Points       =             75
    Spherical Points    =            302
    Total Points        =         396676
    Total Blocks        =           2956
    Max Points          =            256
    Max Functions       =            149

   => -D3ZERO: Empirical Dispersion <=

    Grimme's -D3 (zero-damping) Dispersion Correction
    Grimme S.; Antony J.; Ehrlich S.; Krieg H. (2010), J. Chem. Phys., 132: 154104

        S6 =   1.000000E+00
        S8 =   1.703000E+00
       SR6 =   1.261000E+00
       SR8 =   1.000000E+00
    ALPHA6 =   1.400000E+01

   => Loading Basis Set <=

    Name: (6-31G* AUX)
    Role: JKFIT
    Keyword: DF_BASIS_SCF
    atoms 1-7         entry C          line   121 file /shared/joao/test_parameterize/miniconda3/share/psi4/basis/cc-pvdz-jkfit.gbs 
    atoms 8-12, 15-18 entry H          line    51 file /shared/joao/test_parameterize/miniconda3/share/psi4/basis/cc-pvdz-jkfit.gbs 
    atoms 13-14       entry N          line   171 file /shared/joao/test_parameterize/miniconda3/share/psi4/basis/cc-pvdz-jkfit.gbs 

  Reading orbitals from file 180, no projection.

  ==> Pre-Iterations <==

   -------------------------------------------------------
    Irrep   Nso     Nmo     Nalpha   Nbeta   Ndocc  Nsocc
   -------------------------------------------------------
     A        153     153       0       0       0       0
   -------------------------------------------------------
    Total     153     153      32      32      32       0
   -------------------------------------------------------

  ==> Integral Setup <==

  ==> DiskDFJK: Density-Fitted J/K Matrices <==

    J tasked:                  Yes
    K tasked:                  Yes
    wK tasked:                  No
    OpenMP threads:              4
    Integrals threads:           4
    Memory (MB):              2002
    Algorithm:                Core
    Integral Cache:           NONE
    Schwarz Cutoff:          1E-12
    Fitting Condition:       1E-12

   => Auxiliary Basis Set <=

  Basis Set: (6-31G* AUX)
    Blend: CC-PVDZ-JKFIT
    Number of shells: 297
    Number of basis function: 954
    Number of Cartesian functions: 954
    Spherical Harmonics?: false
    Max angular momentum: 3

  Minimum eigenvalue in the overlap matrix is 4.7337779876E-04.
  Using Symmetric Orthogonalization.

  SCF Guess: Orbitals guess was supplied from a previous computation.

  ==> Iterations <==

                           Total Energy        Delta E     RMS |[F,P]|

   @DF-RKS iter   0:  -381.42888018270429   -3.81429e+02   1.53685e-03 
   @DF-RKS iter   1:  -381.46644755969442   -3.75674e-02   2.12927e-04 
   @DF-RKS iter   2:  -381.46638021160379    6.73481e-05   2.92349e-04 DIIS
   @DF-RKS iter   3:  -381.46665512177174   -2.74910e-04   6.93271e-05 DIIS
   @DF-RKS iter   4:  -381.46666795436533   -1.28326e-05   3.28277e-05 DIIS
   @DF-RKS iter   5:  -381.46667094198494   -2.98762e-06   8.05770e-06 DIIS
   @DF-RKS iter   6:  -381.46667113111971   -1.89135e-07   2.39636e-06 DIIS
   @DF-RKS iter   7:  -381.46667114749368   -1.63740e-08   4.55053e-07 DIIS
   @DF-RKS iter   8:  -381.46667114786646   -3.72779e-10   2.88866e-07 DIIS
   @DF-RKS iter   9:  -381.46667114809583   -2.29363e-10   6.99785e-08 DIIS
   @DF-RKS iter  10:  -381.46667114810811   -1.22782e-11   1.89137e-08 DIIS
   @DF-RKS iter  11:  -381.46667114810896   -8.52651e-13   5.77067e-09 DIIS

  ==> Post-Iterations <==

    Orbital Energies [Eh]
    ---------------------

    Doubly Occupied:                                                      

       1A    -14.567096     2A    -14.566942     3A    -10.499736  
       4A    -10.379109     5A    -10.360109     6A    -10.360057  
       7A    -10.344226     8A    -10.341745     9A    -10.341678  
      10A     -1.183313    11A     -1.087281    12A     -1.015689  
      13A     -0.926971    14A     -0.904265    15A     -0.846714  
      16A     -0.786077    17A     -0.774149    18A     -0.737721  
      19A     -0.736839    20A     -0.682999    21A     -0.669293  
      22A     -0.629506    23A     -0.614182    24A     -0.596910  
      25A     -0.581404    26A     -0.576495    27A     -0.517770  
      28A     -0.508553    29A     -0.499970    30A     -0.469502  
      31A     -0.412180    32A     -0.406875  

    Virtual:                                                              

      33A     -0.220555    34A     -0.156089    35A     -0.121535  
      36A     -0.116114    37A     -0.075853    38A     -0.072127  
      39A     -0.040423    40A     -0.033956    41A      0.011184  
      42A      0.022338    43A      0.027049    44A      0.064473  
      45A      0.075221    46A      0.077416    47A      0.116652  
      48A      0.132995    49A      0.155966    50A      0.181015  
      51A      0.219155    52A      0.244776    53A      0.299875  
      54A      0.348785    55A      0.351110    56A      0.374627  
      57A      0.391420    58A      0.396730    59A      0.419598  
      60A      0.420202    61A      0.439377    62A      0.453246  
      63A      0.454593    64A      0.469295    65A      0.472705  
      66A      0.473182    67A      0.483730    68A      0.499087  
      69A      0.502022    70A      0.537560    71A      0.558170  
      72A      0.592280    73A      0.619885    74A      0.648855  
      75A      0.662478    76A      0.684062    77A      0.690904  
      78A      0.703948    79A      0.714464    80A      0.735693  
      81A      0.775696    82A      0.778907    83A      0.789097  
      84A      0.804780    85A      0.837419    86A      0.850051  
      87A      0.863991    88A      0.929972    89A      0.968845  
      90A      1.008703    91A      1.026105    92A      1.044694  
      93A      1.064853    94A      1.074506    95A      1.132869  
      96A      1.182471    97A      1.201256    98A      1.272165  
      99A      1.287886   100A      1.314867   101A      1.318720  
     102A      1.340399   103A      1.353735   104A      1.366664  
     105A      1.395975   106A      1.458635   107A      1.502860  
     108A      1.606949   109A      1.613055   110A      1.647510  
     111A      1.661359   112A      1.739324   113A      1.744366  
     114A      1.801003   115A      1.817195   116A      1.847001  
     117A      1.895736   118A      1.923225   119A      1.946586  
     120A      1.975351   121A      1.987255   122A      2.023537  
     123A      2.025703   124A      2.084482   125A      2.106835  
     126A      2.114199   127A      2.154108   128A      2.218022  
     129A      2.229378   130A      2.259932   131A      2.319422  
     132A      2.352600   133A      2.441283   134A      2.466230  
     135A      2.487610   136A      2.506789   137A      2.531161  
     138A      2.592797   139A      2.609541   140A      2.638758  
     141A      2.735890   142A      2.886374   143A      2.991778  
     144A      3.256146   145A      3.636430   146A      3.671909  
     147A      3.899581   148A      3.946588   149A      3.960345  
     150A      4.045072   151A      4.169451   152A      4.257642  
     153A      4.544468  

    Final Occupation by Irrep:
              A 
    DOCC [    32 ]

  Energy converged.

  @DF-RKS Final Energy:  -381.46667114810896

   => Energetics <=

    Nuclear Repulsion Energy =            415.5960976752227225
    One-Electron Energy =               -1326.3369120834584010
    Two-Electron Energy =                 573.6779566434531716
    DFT Exchange-Correlation Energy =     -44.3922243033264010
    Empirical Dispersion Energy =          -0.0115890800000000
    VV10 Nonlocal Energy =                  0.0000000000000000
    Total Energy =                       -381.4666711481089578



Properties will be evaluated at   0.000000,   0.000000,   0.000000 [a0]

Properties computed using the SCF density matrix

  Nuclear Dipole Moment: [e a0]
     X:     0.0389      Y:    -0.0712      Z:     0.2728

  Electronic Dipole Moment: [e a0]
     X:    -0.0419      Y:     0.0701      Z:    -2.4936

  Dipole Moment: [e a0]
     X:    -0.0030      Y:    -0.0010      Z:    -2.2207     Total:     2.2207

  Dipole Moment: [D]
     X:    -0.0077      Y:    -0.0025      Z:    -5.6445     Total:     5.6445


*** tstop() called on arancio.prib.upf.edu at Sat Sep 29 20:46:36 2018
Module time:
	user time   =      76.11 seconds =       1.27 minutes
	system time =       0.34 seconds =       0.01 minutes
	total time  =         21 seconds =       0.35 minutes
Total time:
	user time   =     200.46 seconds =       3.34 minutes
	system time =       1.11 seconds =       0.02 minutes
	total time  =         56 seconds =       0.93 minutes

*** tstart() called on arancio.prib.upf.edu
*** at Sat Sep 29 20:46:36 2018


         ------------------------------------------------------------
                                   SCF GRAD                          
                          Rob Parrish, Justin Turney,                
                       Andy Simmonett, and Alex Sokolov              
         ------------------------------------------------------------

  ==> Geometry <==

    Molecular point group: c1
    Full point group: C1

    Geometry (in Angstrom), charge = 1, multiplicity = 1:

       Center              X                  Y                   Z               Mass       
    ------------   -----------------  -----------------  -----------------  -----------------
         C            0.010358598275    -0.002827874558    -0.171872063807    12.000000000000
         C            0.039122708625     1.211129657943     0.545994855553    12.000000000000
         C            0.051847054679     1.209235279641     1.936176348423    12.000000000000
         C            0.001084803838     0.001420449463     2.634628930882    12.000000000000
         C           -0.051734107479    -1.208322021621     1.939635632434    12.000000000000
         C           -0.036405175521    -1.214247883014     0.549462199477    12.000000000000
         C           -0.008222714928    -0.004353686371    -1.653372327376    12.000000000000
         H            0.095259636681     2.171881141886     0.038723079043     1.007825032070
         H            0.103548281961     2.150136783571     2.475739355391     1.007825032070
         H           -0.000802502322     0.003017880057     3.720112673955     1.007825032070
         H           -0.110506496514    -2.147569348267     2.481926640692     1.007825032070
         H           -0.100917936342    -2.176761472787     0.045010815096     1.007825032070
         N           -0.388626386045     1.070470273422    -2.341550629872    14.003074004780
         N            0.387012942326    -1.070107212607    -2.348431188335    14.003074004780
         H            0.415854056600    -1.069912154457    -3.363639398710     1.007825032070
         H            0.646648514453    -1.938307479150    -1.881597509581     1.007825032070
         H           -0.634881843503     1.937478285832    -1.869477796918     1.007825032070
         H           -0.418640434783     1.077639381017    -3.356468616346     1.007825032070

  Nuclear repulsion =  415.596097675222723

  ==> Basis Set <==

  Basis Set: 6-31G*
    Blend: 6-31G*
    Number of shells: 72
    Number of basis function: 153
    Number of Cartesian functions: 153
    Spherical Harmonics?: false
    Max angular momentum: 2

  ==> DFJKGrad: Density-Fitted SCF Gradients <==

    Gradient:                    1
    J tasked:                  Yes
    K tasked:                  Yes
    wK tasked:                  No
    OpenMP threads:              4
    Integrals threads:           4
    Memory (MB):              2002
    Schwarz Cutoff:          0E+00
    Fitting Condition:       1E-12

   => Auxiliary Basis Set <=

  Basis Set: (6-31G* AUX)
    Blend: CC-PVDZ-JKFIT
    Number of shells: 297
    Number of basis function: 954
    Number of Cartesian functions: 954
    Spherical Harmonics?: false
    Max angular momentum: 3

  ==> DFT Potential <==

   => Composite Functional: B3LYP-D3ZERO <= 

    B3LYP-d3zero Hyb-GGA Exchange-Correlation Functional

    P. J. Stephens, F. J. Devlin, C. F. Chabalowski, and M. J. Frisch, J. Phys. Chem. 98, 11623 (1994)

    Deriv               =              1
    GGA                 =           TRUE
    Meta                =          FALSE

    Exchange Hybrid     =           TRUE
    MP2 Hybrid          =          FALSE

   => Exchange Functionals <=

    0.0800   Slater exchange
    0.7200         Becke 88

   => Exact (HF) Exchange <=

    0.2000               HF 

   => Correlation Functionals <=

    0.1900   Vosko, Wilk & Nusair (VWN5_RPA)
    0.8100   Lee, Yang & Parr

   => Molecular Quadrature <=

    Radial Scheme       =       TREUTLER
    Pruning Scheme      =           FLAT
    Nuclear Scheme      =       TREUTLER

    BS radius alpha     =              1
    Pruning alpha       =              1
    Radial Points       =             75
    Spherical Points    =            302
    Total Points        =         396676
    Total Blocks        =           2956
    Max Points          =            256
    Max Functions       =            149


  -Total Gradient:
     Atom            X                  Y                   Z
    ------   -----------------  -----------------  -----------------
       1        0.003289797203     0.000190177459     0.002426165616
       2       -0.001329450816    -0.001337201800     0.002842314812
       3        0.000330424070    -0.000333482835    -0.000000884972
       4        0.000106165670     0.000091641601    -0.001162308381
       5       -0.000468431496     0.000383735615    -0.000183207566
       6        0.000114602518     0.001893944602     0.003199839218
       7       -0.004254162445    -0.000804649598    -0.001252588275
       8       -0.000881895697     0.001315630122     0.000451432280
       9        0.000356489179     0.000317737200     0.000631107231
      10       -0.000020621908    -0.000008060895    -0.000096811362
      11       -0.000382935779    -0.000489264300     0.000727422607
      12        0.000627387997    -0.001781787191     0.000486835301
      13        0.000830554152    -0.006897163797    -0.004356088463
      14        0.000604728513     0.008519185565    -0.005087834543
      15        0.001368113650     0.001611543754    -0.002786467713
      16       -0.000450305034    -0.007612854701     0.003658341238
      17        0.001384790447     0.006341655685     0.003094141025
      18       -0.001226433412    -0.001400717252    -0.002604456729


*** tstop() called on arancio.prib.upf.edu at Sat Sep 29 20:46:43 2018
Module time:
	user time   =      27.25 seconds =       0.45 minutes
	system time =       0.15 seconds =       0.00 minutes
	total time  =          7 seconds =       0.12 minutes
Total time:
	user time   =     227.76 seconds =       3.80 minutes
	system time =       1.27 seconds =       0.02 minutes
	total time  =         63 seconds =       1.05 minutes

			-----------------------------------------
			 OPTKING 2.0: for geometry optimizations 
			  - R.A. King,  Bethel University        
			-----------------------------------------
	At level 1: Red. Int., RFO, no backsteps, dynamic trust

	Previous internal coordinate definitions found.
	---Fragment 1 Geometry and Gradient---
	 C           0.0195749139       -0.0053439085       -0.3247911305
	 C           0.0739312049        2.2887033649        1.0317807470
	 C           0.0979767341        2.2851235087        3.6588430435
	 C           0.0020499822        0.0026842605        4.9787271411
	 C          -0.0977632949       -2.2833977012        3.6653801429
	 C          -0.0687958116       -2.2945959563        1.0383330774
	 C          -0.0155386793       -0.0082272749       -3.1244208944
	 H           0.1800146248        4.1042605513        0.0731760144
	 H           0.1956778944        4.0631696692        4.6784693581
	 H          -0.0015165096        0.0057029668        7.0299941373
	 H          -0.2088270143       -4.0583179196        4.6901616328
	 H          -0.1907072616       -4.1134830402        0.0850581135
	 N          -0.7343974376        2.0228956502       -4.4248894167
	 N           0.7313484709       -2.0222095647       -4.4378917879
	 H           0.7858502782       -2.0218409582       -6.3563572733
	 H           1.2219885966       -3.6628702969       -3.5557039854
	 H          -1.1997528110        3.6613033486       -3.5328010477
	 H          -0.7911157699        2.0364433001       -6.3428064585
	             0.0032897972        0.0001901775        0.0024261656
	            -0.0013294508       -0.0013372018        0.0028423148
	             0.0003304241       -0.0003334828       -0.0000008850
	             0.0001061657        0.0000916416       -0.0011623084
	            -0.0004684315        0.0003837356       -0.0001832076
	             0.0001146025        0.0018939446        0.0031998392
	            -0.0042541624       -0.0008046496       -0.0012525883
	            -0.0008818957        0.0013156301        0.0004514323
	             0.0003564892        0.0003177372        0.0006311072
	            -0.0000206219       -0.0000080609       -0.0000968114
	            -0.0003829358       -0.0004892643        0.0007274226
	             0.0006273880       -0.0017817872        0.0004868353
	             0.0008305542       -0.0068971638       -0.0043560885
	             0.0006047285        0.0085191856       -0.0050878345
	             0.0013681137        0.0016115438       -0.0027864677
	            -0.0004503050       -0.0076128547        0.0036583412
	             0.0013847904        0.0063416557        0.0030941410
	            -0.0012264334       -0.0014007173       -0.0026044567

	---Fragment 1 Intrafragment Coordinates---
	 - Coordinate -           - BOHR/RAD -       - ANG/DEG -
	 R(1,2)           =         2.665688	       1.410622
	 R(1,6)           =         2.665819	       1.410691
	 R(1,7)           =         2.799851	       1.481618
	 R(2,3)           =         2.627175	       1.390241
	 R(2,8)           =         2.055827	       1.087897
	 R(3,4)           =         2.638338	       1.396148
	 R(3,9)           =         2.051982	       1.085862
	 R(4,5)           =         2.638373	       1.396167
	 R(4,10)          =         2.051272	       1.085487
	 R(5,6)           =         2.627231	       1.390271
	 R(5,11)          =         2.052524	       1.086149
	 R(6,12)          =         2.057169	       1.088607
	 R(7,13)          =         2.516632	       1.331744
	 R(7,14)          =         2.517771	       1.332347
	 R(13,17)         =         1.922695	       1.017447
	 R(13,18)         =         1.918803	       1.015387
	 R(14,15)         =         1.919240	       1.015618
	 R(14,16)         =         1.926331	       1.019370
	 B(1,2,3)         =         2.103534	     120.523607
	 B(1,2,8)         =         2.122059	     121.585020
	 B(1,6,5)         =         2.103662	     120.530940
	 B(1,6,12)        =         2.122678	     121.620509
	 B(1,7,13)        =         2.117015	     121.296025
	 B(1,7,14)        =         2.116175	     121.247918
	 B(2,1,6)         =         2.070855	     118.651247
	 B(2,1,7)         =         2.105984	     120.664018
	 B(2,3,4)         =         2.095661	     120.072521
	 B(2,3,9)         =         2.089934	     119.744423
	 B(3,2,8)         =         2.056689	     117.839593
	 B(3,4,5)         =         2.096635	     120.128321
	 B(3,4,10)        =         2.093310	     119.937825
	 B(4,3,9)         =         2.097588	     120.182925
	 B(4,5,6)         =         2.095583	     120.068034
	 B(4,5,11)        =         2.097627	     120.185176
	 B(5,4,10)        =         2.093235	     119.933512
	 B(5,6,12)        =         2.056097	     117.805688
	 B(6,1,7)         =         2.105974	     120.663397
	 B(6,5,11)        =         2.089960	     119.745913
	 B(7,13,17)       =         2.114280	     121.139297
	 B(7,13,18)       =         2.130167	     122.049562
	 B(7,14,15)       =         2.129090	     121.987893
	 B(7,14,16)       =         2.115224	     121.193431
	 B(13,7,14)       =         2.049632	     117.435237
	 B(15,14,16)      =         2.038355	     116.789163
	 B(17,13,18)      =         2.038226	     116.781730
	 D(1,2,3,4)       =        -0.029057	      -1.664829
	 D(1,2,3,9)       =         3.110239	     178.203563
	 D(1,6,5,4)       =        -0.018131	      -1.038840
	 D(1,6,5,11)      =         3.117528	     178.621188
	 D(1,7,13,17)     =         0.051406	       2.945367
	 D(1,7,13,18)     =        -3.125730	    -179.091114
	 D(1,7,14,15)     =        -3.095943	    -177.384479
	 D(1,7,14,16)     =         0.081251	       4.655344
	 D(2,1,6,5)       =        -0.001627	      -0.093218
	 D(2,1,6,12)      =         3.097489	     177.473050
	*D(2,1,7,13)      =        -0.349066	     -19.999995
	 D(2,1,7,14)      =         2.762813	     158.297514
	 D(2,3,4,5)       =         0.008999	       0.515583
	 D(2,3,4,10)      =        -3.128883	    -179.271817
	 D(3,2,1,6)       =         0.025245	       1.446405
	 D(3,2,1,7)       =         3.137704	     179.777220
	 D(3,4,5,6)       =         0.014575	       0.835104
	 D(3,4,5,11)      =        -3.121057	    -178.823417
	 D(4,3,2,8)       =        -3.125692	    -179.088977
	 D(4,5,6,12)      =        -3.118833	    -178.695944
	 D(5,4,3,9)       =        -3.130287	    -179.352226
	 D(5,6,1,7)       =        -3.114087	    -178.424045
	 D(6,1,2,8)       =         3.120169	     178.772528
	 D(6,1,7,13)      =         2.762805	     158.297092
	 D(6,1,7,14)      =        -0.408501	     -23.405399
	 D(6,5,4,10)      =        -3.130728	    -179.377486
	 D(7,1,2,8)       =        -0.050556	      -2.896656
	 D(7,1,6,12)      =        -0.014971	      -0.857777
	 D(8,2,3,9)       =         0.013603	       0.779415
	 D(9,3,4,10)      =         0.015016	       0.860373
	 D(10,4,5,11)     =         0.016825	       0.963992
	 D(11,5,6,12)     =         0.016826	       0.964084
	 D(13,7,14,15)    =         0.017042	       0.976422
	 D(13,7,14,16)    =        -3.088949	    -176.983756
	 D(14,7,13,17)    =        -3.061564	    -175.414697
	 D(14,7,13,18)    =         0.044485	       2.548822

	Current energy   :      -381.4666711481

	Energy change for the previous step:
		Projected    :         0.0006518910
		Actual       :        -0.0030831145

	Performing BFGS update.
	Previous computed or guess Hessian on step 1.
	Steps to be used in Hessian update: 1
	Taking RFO optimization step.
	Going to follow RFO solution 1.
	Using RFO vector 1.
	Norm of target step-size    0.32876
	Projected energy change by RFO approximation:        -0.0000023912

	Back-transformation to cartesian coordinates...
	Could not converge backtransformation.
	Using first guess instead.

	Back-transformation to cartesian coordinates to adjust frozen coordinates...
	Successfully converged to displaced geometry.

	--- Internal Coordinate Step in ANG or DEG, aJ/ANG or AJ/DEG ---
	 ---------------------------------------------------------------------------
	   Coordinate                Previous        Force       Change         New 
	   ----------                --------       ------       ------       ------
	    1 R(1,2)          =      1.410622    -0.022142    -0.002354     1.408268
	    2 R(1,6)          =      1.410691    -0.023590    -0.002422     1.408269
	    3 R(1,7)          =      1.481618    -0.077042    -0.009086     1.472532
	    4 R(2,3)          =      1.390241     0.000204    -0.000229     1.390012
	    5 R(2,8)          =      1.087897    -0.007460    -0.000025     1.087872
	    6 R(3,4)          =      1.396148     0.011680     0.001126     1.397274
	    7 R(3,9)          =      1.085862    -0.004994    -0.000662     1.085200
	    8 R(4,5)          =      1.396167     0.010814     0.000986     1.397153
	    9 R(4,10)         =      1.085487     0.000791     0.000102     1.085589
	   10 R(5,6)          =      1.390271     0.000447    -0.000256     1.390015
	   11 R(5,11)         =      1.086149    -0.006652    -0.000806     1.085343
	   12 R(6,12)         =      1.088607    -0.010812    -0.000497     1.088110
	   13 R(7,13)         =      1.331744    -0.001117     0.000442     1.332186
	   14 R(7,14)         =      1.332347    -0.005238     0.000178     1.332525
	   15 R(13,17)        =      1.017447    -0.053591     0.001345     1.018791
	   16 R(13,18)        =      1.015387    -0.021658    -0.000727     1.014660
	   17 R(14,15)        =      1.015618    -0.023265     0.000311     1.015929
	   18 R(14,16)        =      1.019370    -0.066279    -0.000764     1.018607
	   19 B(1,2,3)        =    120.523607    -0.000109    -0.144949   120.378658
	   20 B(1,2,8)        =    121.585020    -0.000024     0.080572   121.665593
	   21 B(1,6,5)        =    120.530940    -0.000104    -0.124994   120.405946
	   22 B(1,6,12)       =    121.620509    -0.000045     0.034294   121.654802
	   23 B(1,7,13)       =    121.296025    -0.000297    -0.474033   120.821991
	   24 B(1,7,14)       =    121.247918    -0.000361    -0.678516   120.569402
	   25 B(2,1,6)        =    118.651247     0.000268     0.312195   118.963442
	   26 B(2,1,7)        =    120.664018    -0.000086    -0.028017   120.636001
	   27 B(2,3,4)        =    120.072521    -0.000013     0.027636   120.100157
	   28 B(2,3,9)        =    119.744423    -0.000023    -0.150180   119.594242
	   29 B(3,2,8)        =    117.839593     0.000132    -0.050418   117.789175
	   30 B(3,4,5)        =    120.128321    -0.000026    -0.079289   120.049032
	   31 B(3,4,10)       =    119.937825     0.000013     0.037875   119.975701
	   32 B(4,3,9)        =    120.182925     0.000037     0.118349   120.301275
	   33 B(4,5,6)        =    120.068034    -0.000015     0.014376   120.082410
	   34 B(4,5,11)       =    120.185176     0.000037     0.119286   120.304462
	   35 B(5,4,10)       =    119.933512     0.000014     0.041327   119.974840
	   36 B(5,6,12)       =    117.805688     0.000149     0.011490   117.817179
	   37 B(6,1,7)        =    120.663397    -0.000183    -0.324461   120.338936
	   38 B(6,5,11)       =    119.745913    -0.000022    -0.142045   119.603868
	   39 B(7,13,17)      =    121.139297    -0.000019     0.092250   121.231546
	   40 B(7,13,18)      =    122.049562     0.000083     0.080442   122.130004
	   41 B(7,14,15)      =    121.987893     0.000100     0.117331   122.105224
	   42 B(7,14,16)      =    121.193431    -0.000039    -0.009963   121.183468
	   43 B(13,7,14)      =    117.435237     0.000659     1.152554   118.587791
	   44 B(15,14,16)     =    116.789163    -0.000059    -0.079121   116.710042
	   45 B(17,13,18)     =    116.781730    -0.000060    -0.163915   116.617815
	   46 D(1,2,3,4)      =     -1.664829     0.000006     0.292450    -1.372379
	   47 D(1,2,3,9)      =    178.203563     0.000003    -0.330247   177.873316
	   48 D(1,6,5,4)      =     -1.038840     0.000008     0.812736    -0.226104
	   49 D(1,6,5,11)     =    178.621188     0.000004     0.049274   178.670461
	   50 D(1,7,13,17)    =      2.945367    -0.000044    -8.001086    -5.055719
	   51 D(1,7,13,18)    =   -179.091114    -0.000021    -4.256002  -183.347116
	   52 D(1,7,14,15)    =   -177.384479    -0.000025    -4.633637  -182.018115
	   53 D(1,7,14,16)    =      4.655344    -0.000038    -7.096242    -2.440898
	   54 D(2,1,6,5)      =     -0.093218    -0.000006    -0.806566    -0.899784
	   55 D(2,1,6,12)     =    177.473050    -0.000006    -2.477701   174.995349
	   56 *D(2,1,7,13)    =    -19.999995    -0.000000    -0.000000   -19.999995
	   57 D(2,1,7,14)     =    158.297514     0.000004     0.019470   158.316984
	   58 D(2,3,4,5)      =      0.515583    -0.000003    -0.289556     0.226027
	   59 D(2,3,4,10)     =   -179.271817    -0.000003    -0.264206  -179.536023
	   60 D(3,2,1,6)      =      1.446405    -0.000001     0.253345     1.699750
	   61 D(3,2,1,7)      =    179.777220    -0.000006    -0.922529   178.854691
	   62 D(3,4,5,6)      =      0.835104    -0.000003    -0.261449     0.573655
	   63 D(3,4,5,11)     =   -178.823417    -0.000000     0.508311  -178.315106
	   64 D(4,3,2,8)      =   -179.088977     0.000010     2.329550  -176.759427
	   65 D(4,5,6,12)     =   -178.695944     0.000009     2.420297  -176.275647
	   66 D(5,4,3,9)      =   -179.352226    -0.000000     0.337941  -179.014286
	   67 D(5,6,1,7)      =   -178.424045    -0.000001     0.360641  -178.063404
	   68 D(6,1,2,8)      =    178.772528    -0.000004    -1.867943   176.904585
	   69 D(6,1,7,13)     =    158.297092    -0.000004    -1.181330   157.115762
	   70 D(6,1,7,14)     =    -23.405399     0.000001    -1.161860   -24.567258
	   71 D(6,5,4,10)     =   -179.377486    -0.000003    -0.286806  -179.664293
	   72 D(7,1,2,8)      =     -2.896656    -0.000009    -3.043818    -5.940474
	   73 D(7,1,6,12)     =     -0.857777    -0.000001    -1.310494    -2.168271
	   74 D(8,2,3,9)      =      0.779415     0.000007     1.706854     2.486269
	   75 D(9,3,4,10)     =      0.860373    -0.000000     0.363291     1.223664
	   76 D(10,4,5,11)    =      0.963992     0.000000     0.482954     1.446946
	   77 D(11,5,6,12)    =      0.964084     0.000006     1.656835     2.620918
	   78 D(13,7,14,15)   =      0.976422    -0.000024    -4.640514    -3.664092
	   79 D(13,7,14,16)   =   -176.983756    -0.000037    -7.103119  -184.086874
	   80 D(14,7,13,17)   =   -175.414697    -0.000044    -7.990731  -183.405428
	   81 D(14,7,13,18)   =      2.548822    -0.000022    -4.245646    -1.696824
	 ---------------------------------------------------------------------------
	Successfully symmetrized geometry.

  ==> Convergence Check <==

  Measures of convergence in internal coordinates in au.
  Criteria marked as inactive (o), active & met (*), and active & unmet ( ).
  ---------------------------------------------------------------------------------------------
   Step     Total Energy     Delta E     MAX Force     RMS Force      MAX Disp      RMS Disp   
  ---------------------------------------------------------------------------------------------
    Convergence Criteria    1.00e-06 *    3.00e-04 *             o    1.20e-03 *             o
  ---------------------------------------------------------------------------------------------
      2    -381.46667115   -3.08e-03      9.35e-03      2.26e-03 o    1.40e-01      3.66e-02 o  ~
  ---------------------------------------------------------------------------------------------

	Writing optimization data to binary file.
	Structure for next step:
	Cartesian Geometry (in Angstrom)
	    C     0.0234575486  -0.0003765061  -0.1774175937
	    C     0.0543852528   1.2126316729   0.5373364155
	    C     0.0562229934   1.2096362641   1.9273438570
	    C    -0.0016219027   0.0007063827   2.6255687515
	    C    -0.0566898280  -1.2083716725   1.9276182905
	    C    -0.0420233272  -1.2118065684   0.5376848862
	    C    -0.0039725196  -0.0033185699  -1.6496909814
	    H     0.1547687055   2.1708089477   0.0320799418
	    H     0.1152124150   2.1503075811   2.4652255702
	    H    -0.0076788047   0.0010770957   3.7111405130
	    H    -0.1292365259  -2.1483357519   2.4653672147
	    H    -0.1487034737  -2.1688856916   0.0311261643
	    N    -0.3922812766   1.0759271097  -2.3273085240
	    N     0.3917377979  -1.0768583115  -2.3327351184
	    H     0.3543006820  -1.1153723168  -3.3472434414
	    H     0.7545911378  -1.9008528000  -1.8563635858
	    H    -0.7508431225   1.9001216397  -1.8476495021
	    H    -0.3716267520   1.1129614953  -3.3410818579
			--------------------------
			 OPTKING Finished Execution 
			--------------------------

    Structure for next step:
    Molecular point group: c1
    Full point group: C1

    Geometry (in Angstrom), charge = 1, multiplicity = 1:

    C            0.023457548606    -0.000376506143    -0.177417593685
    C            0.054385252794     1.212631672892     0.537336415489
    C            0.056222993388     1.209636264105     1.927343857019
    C           -0.001621902728     0.000706382665     2.625568751517
    C           -0.056689828035    -1.208371672519     1.927618290495
    C           -0.042023327218    -1.211806568448     0.537684886180
    C           -0.003972519639    -0.003318569940    -1.649690981388
    H            0.154768705535     2.170808947687     0.032079941801
    H            0.115212415049     2.150307581070     2.465225570239
    H           -0.007678804670     0.001077095734     3.711140513035
    H           -0.129236525939    -2.148335751924     2.465367214675
    H           -0.148703473722    -2.168885691582     0.031126164269
    N           -0.392281276616     1.075927109747    -2.327308524013
    N            0.391737797862    -1.076858311462    -2.332735118422
    H            0.354300682020    -1.115372316806    -3.347243441412
    H            0.754591137757    -1.900852800010    -1.856363585812
    H           -0.750843122487     1.900121639668    -1.847649502088
    H           -0.371626751955     1.112961495265    -3.341081857898

gradient() will perform analytic gradient computation.

*** tstart() called on arancio.prib.upf.edu
*** at Sat Sep 29 20:46:43 2018

   => Loading Basis Set <=

    Name: 6-31G*
    Role: ORBITAL
    Keyword: BASIS
    atoms 1-7         entry C          line   111 file /shared/joao/test_parameterize/miniconda3/share/psi4/basis/6-31gs.gbs 
    atoms 8-12, 15-18 entry H          line    44 file /shared/joao/test_parameterize/miniconda3/share/psi4/basis/6-31gs.gbs 
    atoms 13-14       entry N          line   128 file /shared/joao/test_parameterize/miniconda3/share/psi4/basis/6-31gs.gbs 


         ---------------------------------------------------------
                                   SCF
            by Justin Turney, Rob Parrish, Andy Simmonett
                             and Daniel Smith
                              RKS Reference
                        4 Threads,   2861 MiB Core
         ---------------------------------------------------------

  ==> Geometry <==

    Molecular point group: c1
    Full point group: C1

    Geometry (in Angstrom), charge = 1, multiplicity = 1:

[...]
	 R(6,Z)           =         1.006817	       0.532785
	 R(7,X)           =        -0.010786	      -0.005708
	 R(7,Y)           =        -0.008946	      -0.004734
	 R(7,Z)           =        -3.104519	      -1.642841
	 R(8,X)           =         0.407228	       0.215496
	 R(8,Y)           =         4.079347	       2.158698
	 R(8,Z)           =         0.017165	       0.009083
	 R(9,X)           =         0.276966	       0.146564
	 R(9,Y)           =         4.061434	       2.149218
	 R(9,Z)           =         4.654086	       2.462836
	 R(10,X)          =        -0.029064	      -0.015380
	 R(10,Y)          =         0.004960	       0.002625
	 R(10,Z)          =         7.000431	       3.704469
	 R(11,X)          =        -0.316120	      -0.167283
	 R(11,Y)          =        -4.054345	      -2.145467
	 R(11,Z)          =         4.656448	       2.464086
	 R(12,X)          =        -0.369172	      -0.195357
	 R(12,Y)          =        -4.077494	      -2.157717
	 R(12,Z)          =         0.017524	       0.009273
	 R(13,X)          =        -0.721766	      -0.381942
	 R(13,Y)          =         2.048505	       1.084022
	 R(13,Z)          =        -4.368864	      -2.311903
	 R(14,X)          =         0.729051	       0.385797
	 R(14,Y)          =        -2.041963	      -1.080561
	 R(14,Z)          =        -4.390436	      -2.323319
	 R(15,X)          =         0.573109	       0.303276
	 R(15,Y)          =        -2.169519	      -1.148060
	 R(15,Z)          =        -6.293777	      -3.330523
	 R(16,X)          =         1.632333	       0.863793
	 R(16,Y)          =        -3.472657	      -1.837651
	 R(16,Z)          =        -3.504000	      -1.854237
	 R(17,X)          =        -1.629538	      -0.862314
	 R(17,Y)          =         3.468327	       1.835359
	 R(17,Z)          =        -3.469502	      -1.835981
	 R(18,X)          =        -0.637341	      -0.337266
	 R(18,Y)          =         2.157851	       1.141886
	 R(18,Z)          =        -6.278033	      -3.322192

	Current energy   :      -381.4692810998

	Generating empirical Hessian (Schlegel '84) for each fragment.
	Taking RFO optimization step.
	Going to follow RFO solution 1.
	Using RFO vector 1.
	Norm of target step-size    0.00139
	Projected energy change by RFO approximation:        -0.0000000677

	Back-transformation to cartesian coordinates...
	Successfully converged to displaced geometry.

	Back-transformation to cartesian coordinates to adjust frozen coordinates...
	Successfully converged to displaced geometry.

	--- Internal Coordinate Step in ANG or DEG, aJ/ANG or AJ/DEG ---
	 ---------------------------------------------------------------------------
	   Coordinate                Previous        Force       Change         New 
	   ----------                --------       ------       ------       ------
	    1 R(1,2)          =      1.408926     0.000047     0.000005     1.408931
	    2 R(1,6)          =      1.409052     0.000049     0.000012     1.409063
	    3 R(1,7)          =      1.466504    -0.000107    -0.000029     1.466475
	    4 R(2,3)          =      1.390297    -0.000012    -0.000003     1.390294
	    5 R(2,8)          =      1.086118    -0.000014    -0.000001     1.086117
	    6 R(3,4)          =      1.398242     0.000030     0.000006     1.398248
	    7 R(3,9)          =      1.085080     0.000010     0.000001     1.085082
	    8 R(4,5)          =      1.397881    -0.000015    -0.000004     1.397877
	    9 R(4,10)         =      1.085635    -0.000000    -0.000000     1.085635
	   10 R(5,6)          =      1.390555    -0.000042    -0.000008     1.390547
	   11 R(5,11)         =      1.085079    -0.000002    -0.000001     1.085078
	   12 R(6,12)         =      1.086135     0.000011     0.000001     1.086136
	   13 R(7,13)         =      1.332136    -0.000010     0.000006     1.332142
	   14 R(7,14)         =      1.331814    -0.000102    -0.000012     1.331802
	   15 R(13,17)        =      1.010825     0.000419     0.000086     1.010911
	   16 R(13,18)        =      1.012930    -0.000055    -0.000006     1.012924
	   17 R(14,15)        =      1.012831    -0.000021    -0.000001     1.012830
	   18 R(14,16)        =      1.010794     0.000382     0.000077     1.010871
	   19 B(1,2,3)        =    120.018421     0.000000    -0.000065   120.018356
	   20 B(1,2,8)        =    120.846063    -0.000000    -0.001232   120.844831
	   21 B(1,6,5)        =    120.049709     0.000000     0.001513   120.051222
	   22 B(1,6,12)       =    120.891473    -0.000000    -0.001166   120.890307
	   23 B(1,7,13)       =    120.529920     0.000000     0.000555   120.530475
	   24 B(1,7,14)       =    120.297086     0.000001     0.001085   120.298170
	   25 B(2,1,6)        =    119.514744    -0.000001    -0.001691   119.513053
	   26 B(2,1,7)        =    120.394340     0.000000    -0.001617   120.392723
	   27 B(2,3,4)        =    120.081266     0.000000     0.000873   120.082140
	   28 B(2,3,9)        =    119.684051     0.000000     0.000400   119.684451
	   29 B(3,2,8)        =    119.004551     0.000000     0.000732   119.005283
	   30 B(3,4,5)        =    120.272383    -0.000000    -0.000534   120.271849
	   31 B(3,4,10)       =    119.858405     0.000000     0.000594   119.858999
	   32 B(4,3,9)        =    120.232059    -0.000000    -0.001254   120.230805
	   33 B(4,5,6)        =    120.042664    -0.000000    -0.000409   120.042255
	   34 B(4,5,11)       =    120.244488    -0.000000    -0.000244   120.244244
	   35 B(5,4,10)       =    119.868693     0.000000    -0.000070   119.868623
	   36 B(5,6,12)       =    118.985112     0.000000    -0.000198   118.984914
	   37 B(6,1,7)        =    119.969652     0.000000     0.002860   119.972512
	   38 B(6,5,11)       =    119.703984     0.000000     0.000641   119.704625
	   39 B(7,13,17)      =    120.347280    -0.000001    -0.002424   120.344856
	   40 B(7,13,18)      =    122.355436     0.000001     0.003529   122.358965
	   41 B(7,14,15)      =    122.546649     0.000001     0.004524   122.551173
	   42 B(7,14,16)      =    120.460141    -0.000001    -0.005520   120.454621
	   43 B(13,7,14)      =    119.118179    -0.000001    -0.000799   119.117380
	   44 B(15,14,16)     =    116.750540    -0.000001    -0.002471   116.748069
	   45 B(17,13,18)     =    116.621659    -0.000001    -0.004504   116.617155
	   46 D(1,2,3,4)      =     -0.705517    -0.000000    -0.007762    -0.713278
	   47 D(1,2,3,9)      =    178.706674    -0.000000    -0.005623   178.701051
	   48 D(1,6,5,4)      =      0.796176     0.000000     0.005657     0.801833
	   49 D(1,6,5,11)     =    179.715947     0.000000     0.004907   179.720854
	   50 D(1,7,13,17)    =    -15.603245    -0.000000    -0.004140   -15.607385
	   51 D(1,7,13,18)    =    174.137829     0.000000     0.020586   174.158416
	   52 D(1,7,14,15)    =    174.985063     0.000000     0.013672   174.998735
	   53 D(1,7,14,16)    =    -10.860257    -0.000000    -0.027974   -10.888231
	   54 D(2,1,6,5)      =     -1.668434    -0.000000    -0.012012    -1.680447
	   55 D(2,1,6,12)     =    175.177943    -0.000000    -0.008825   175.169118
	   56 *D(2,1,7,13)    =    -19.999995    -0.000000     0.000000   -19.999995
	   57 D(2,1,7,14)     =    157.283761     0.000000     0.020890   157.304651
	   58 D(2,3,4,5)      =     -0.179140    -0.000000     0.001297    -0.177842
	   59 D(2,3,4,10)     =   -179.916671     0.000000     0.003708  -179.912963
	   60 D(3,2,1,6)      =      1.622596     0.000000     0.013042     1.635637
	   61 D(3,2,1,7)      =    177.618375     0.000000     0.005775   177.624150
	   62 D(3,4,5,6)      =      0.133576     0.000000    -0.000234     0.133341
	   63 D(3,4,5,11)     =   -178.780301     0.000000     0.000510  -178.779791
	   64 D(4,3,2,8)      =   -176.581157    -0.000000     0.001169  -176.579988
	   65 D(4,5,6,12)     =   -176.110122     0.000000     0.002562  -176.107559
	   66 D(5,4,3,9)      =   -179.588081    -0.000000    -0.000863  -179.588944
	   67 D(5,6,1,7)      =   -177.681466    -0.000000    -0.004596  -177.686062
	   68 D(6,1,2,8)      =    177.421078     0.000000     0.004027   177.425104
	   69 D(6,1,7,13)     =    155.977548    -0.000000    -0.007483   155.970064
	   70 D(6,1,7,14)     =    -26.738696     0.000000     0.013407   -26.725289
	   71 D(6,5,4,10)     =    179.871080    -0.000000    -0.002643   179.868436
	   72 D(7,1,2,8)      =     -6.583143     0.000000    -0.003240    -6.586383
	   73 D(7,1,6,12)     =     -0.835089    -0.000000    -0.001409    -0.836498
	   74 D(8,2,3,9)      =      2.831033     0.000000     0.003309     2.834342
	   75 D(9,3,4,10)     =      0.674388     0.000000     0.001547     0.675935
	   76 D(10,4,5,11)    =      0.957203    -0.000000    -0.001898     0.955305
	   77 D(11,5,6,12)    =      2.809649     0.000000     0.001812     2.811461
	   78 D(13,7,14,15)   =     -7.693053     0.000000     0.034305    -7.658748
	   79 D(13,7,14,16)   =    166.461627    -0.000000    -0.007341   166.454285
	   80 D(14,7,13,17)   =    167.081272    -0.000000    -0.024836   167.056436
	   81 D(14,7,13,18)   =     -3.177654     0.000000    -0.000110    -3.177764
	   82 R(1,X)          =      0.034365     0.000055     0.000079     0.034444
	   83 R(1,Y)          =     -0.001525    -0.000017    -0.000005    -0.001530
	   84 R(1,Z)          =     -0.176888    -0.000080    -0.000015    -0.176903
	   85 R(2,X)          =      0.092575     0.000002    -0.000041     0.092533
	   86 R(2,Y)          =      1.214700     0.000010     0.000003     1.214703
	   87 R(2,Z)          =      0.531971    -0.000028    -0.000009     0.531962
	   88 R(3,X)          =      0.080285     0.000011     0.000010     0.080295
	   89 R(3,Y)          =      1.210747    -0.000010    -0.000007     1.210740
	   90 R(3,Z)          =      1.922208    -0.000040    -0.000012     1.922196
	   91 R(4,X)          =     -0.004692     0.000013     0.000017    -0.004675
	   92 R(4,Y)          =      0.001409    -0.000019    -0.000005     0.001404
	   93 R(4,Z)          =      2.618886     0.000006     0.000004     2.618890
	   94 R(5,X)          =     -0.081453    -0.000009     0.000001    -0.081452
	   95 R(5,Y)          =     -1.208682    -0.000002    -0.000001    -1.208683
	   96 R(5,Z)          =      1.923287     0.000010     0.000008     1.923295
	   97 R(6,X)          =     -0.070757    -0.000025    -0.000028    -0.070785
	   98 R(6,Y)          =     -1.214266     0.000010     0.000009    -1.214257
	   99 R(6,Z)          =      0.532785     0.000052     0.000015     0.532800
	  100 R(7,X)          =     -0.005708     0.000114     0.000156    -0.005552
	  101 R(7,Y)          =     -0.004734    -0.000015     0.000035    -0.004700
	  102 R(7,Z)          =     -1.642841     0.000026     0.000011    -1.642829
	  103 R(8,X)          =      0.215496    -0.000010    -0.000028     0.215468
	  104 R(8,Y)          =      2.158698    -0.000009    -0.000006     2.158692
	  105 R(8,Z)          =      0.009083    -0.000034    -0.000019     0.009064
	  106 R(9,X)          =      0.146564     0.000008     0.000008     0.146572
	  107 R(9,Y)          =      2.149218    -0.000019    -0.000011     2.149207
	  108 R(9,Z)          =      2.462836    -0.000004    -0.000001     2.462835
	  109 R(10,X)         =     -0.015380     0.000003    -0.000004    -0.015384
	  110 R(10,Y)         =      0.002625    -0.000010    -0.000003     0.002622
	  111 R(10,Z)         =      3.704469     0.000005     0.000004     3.704472
	  112 R(11,X)         =     -0.167283    -0.000019    -0.000002    -0.167285
	  113 R(11,Y)         =     -2.145467     0.000007     0.000003    -2.145464
	  114 R(11,Z)         =      2.464086     0.000021     0.000013     2.464099
	  115 R(12,X)         =     -0.195357    -0.000085    -0.000083    -0.195440
	  116 R(12,Y)         =     -2.157717     0.000014     0.000016    -2.157701
	  117 R(12,Z)         =      0.009273     0.000035     0.000013     0.009287
	  118 R(13,X)         =     -0.381942     0.000128     0.000116    -0.381826
	  119 R(13,Y)         =      1.084022    -0.000070     0.000026     1.084048
	  120 R(13,Z)         =     -2.311903    -0.000052     0.000009    -2.311894
	  121 R(14,X)         =      0.385797    -0.000104    -0.000135     0.385662
	  122 R(14,Y)         =     -1.080561     0.000085    -0.000047    -1.080607
	  123 R(14,Z)         =     -2.323319    -0.000058    -0.000004    -2.323323
	  124 R(15,X)         =      0.303276     0.000097     0.000109     0.303386
	  125 R(15,Y)         =     -1.148060     0.000025     0.000022    -1.148038
	  126 R(15,Z)         =     -3.330523    -0.000049    -0.000027    -3.330550
	  127 R(16,X)         =      0.863793     0.000106     0.000024     0.863817
	  128 R(16,Y)         =     -1.837651    -0.000167    -0.000028    -1.837679
	  129 R(16,Z)         =     -1.854237     0.000145     0.000031    -1.854206
	  130 R(17,X)         =     -0.862314    -0.000147    -0.000057    -0.862371
	  131 R(17,Y)         =      1.835359     0.000170    -0.000001     1.835358
	  132 R(17,Z)         =     -1.835981     0.000181     0.000062    -1.835920
	  133 R(18,X)         =     -0.337266    -0.000136    -0.000142    -0.337409
	  134 R(18,Y)         =      1.141886     0.000012    -0.000004     1.141882
	  135 R(18,Z)         =     -3.322192    -0.000004     0.000002    -3.322190
	 ---------------------------------------------------------------------------
	Successfully symmetrized geometry.

  ==> Convergence Check <==

  Measures of convergence in internal coordinates in au.
  Criteria marked as inactive (o), active & met (*), and active & unmet ( ).
  --------------------------------------------------------------------------------------------- ~
   Step     Total Energy     Delta E     MAX Force     RMS Force      MAX Disp      RMS Disp    ~
  --------------------------------------------------------------------------------------------- ~
    Convergence Criteria    1.00e-06 *    3.00e-04 *             o    1.20e-03 *             o  ~
  --------------------------------------------------------------------------------------------- ~
      1    -381.46928110   -3.81e+02      5.09e-05 *    9.55e-06 o    5.99e-04 *    1.19e-04 o  ~
  ---------------------------------------------------------------------------------------------


  **** Optimization is complete! (in 1 steps) ****

  ==> Optimization Summary <==

  Measures of convergence in internal coordinates in au.
  --------------------------------------------------------------------------------------------------------------- ~
   Step         Total Energy             Delta E       MAX Force       RMS Force        MAX Disp        RMS Disp  ~
  --------------------------------------------------------------------------------------------------------------- ~
      1    -381.469281099824   -381.469281099824      0.00005089      0.00000955      0.00059873      0.00011950  ~
  --------------------------------------------------------------------------------------------------------------- ~

	Writing optimization data to binary file.
	Final energy is   -381.4692810998243
	Final (previous) structure:
	Cartesian Geometry (in Angstrom)
	    C     0.0343650558  -0.0015251980  -0.1768875804
	    C     0.0925745505   1.2147000495   0.5319709608
	    C     0.0802852343   1.2107469405   1.9222084464
	    C    -0.0046922757   0.0014089323   2.6188864114
	    C    -0.0814528368  -1.2086823758   1.9232873052
	    C    -0.0707567151  -1.2142663271   0.5327846791
	    C    -0.0057077458  -0.0047342152  -1.6428407348
	    H     0.2154955955   2.1586976184   0.0090830893
	    H     0.1465641397   2.1492180723   2.4628360438
	    H    -0.0153799413   0.0026245726   3.7044685722
	    H    -0.1672834765  -2.1454667120   2.4640863318
	    H    -0.1953573901  -2.1577170558   0.0092733676
	    N    -0.3819419629   1.0840219243  -2.3119033868
	    N     0.3857972701  -1.0805605430  -2.3233189073
	    H     0.3032764521  -1.1480598877  -3.3305231171
	    H     0.8637934516  -1.8376507875  -1.8542371271
	    H    -0.8623141450   1.8353593750  -1.8359814521
	    H    -0.3372662603   1.1418856172  -3.3221919021
	Saving final (previous) structure.
	Removing binary optimization data file.
			--------------------------
			 OPTKING Finished Execution 
			--------------------------

    Final optimized geometry and variables:
    Molecular point group: c1
    Full point group: C1

    Geometry (in Angstrom), charge = 1, multiplicity = 1:

    C            0.034365055807    -0.001525197978    -0.176887580435
    C            0.092574550468     1.214700049467     0.531970960816
    C            0.080285234271     1.210746940528     1.922208446429
    C           -0.004692275737     0.001408932254     2.618886411362
    C           -0.081452836771    -1.208682375800     1.923287305227
    C           -0.070756715123    -1.214266327085     0.532784679063
    C           -0.005707745829    -0.004734215207    -1.642840734796
    H            0.215495595509     2.158697618370     0.009083089325
    H            0.146564139700     2.149218072285     2.462836043837
    H           -0.015379941277     0.002624572564     3.704468572196
    H           -0.167283476450    -2.145466712004     2.464086331827
    H           -0.195357390118    -2.157717055771     0.009273367617
    N           -0.381941962887     1.084021924349    -2.311903386802
    N            0.385797270056    -1.080560542984    -2.323318907296
    H            0.303276452077    -1.148059887669    -3.330523117086
    H            0.863793451586    -1.837650787540    -1.854237127056
    H           -0.862314145009     1.835359374975    -1.835981452086
    H           -0.337266260273     1.141885617247    -3.322191902140

	Removing binary optimization data file.
	Cleaning optimization helper files.


Properties will be evaluated at   0.000000,   0.000000,   0.000000 [a0]
OEProp: No title given, name of density matrix used for the following properties is 'SCF density'
  Nuclear Dipole Moment: [e a0]
     X:     0.4653      Y:     0.0170      Z:     0.2206

  Electronic Dipole Moment: [e a0]
     X:    -0.5043      Y:    -0.0309      Z:    -2.4142

  Dipole Moment: [e a0]
     X:    -0.0391      Y:    -0.0139      Z:    -2.1936     Total:     2.1940

  Dipole Moment: [D]
     X:    -0.0993      Y:    -0.0353      Z:    -5.5756     Total:     5.5766

  Quadrupole Moment: [D A]
    XX:   -52.8794     YY:   -34.7550     ZZ:   -12.8909
    XY:    -3.9750     XZ:     0.1653     YZ:     0.1464

  Traceless Quadrupole Moment: [D A]
    XX:   -19.3709     YY:    -1.2466     ZZ:    20.6175
    XY:    -3.9750     XZ:     0.1653     YZ:     0.1464

  Mulliken Charges: (a.u.)
   Center  Symbol    Alpha    Beta     Spin     Total
       1     C     2.94355  2.94355  0.00000  0.11290
       2     C     3.08604  3.08604  0.00000 -0.17209
       3     C     3.06203  3.06203  0.00000 -0.12406
       4     C     3.05129  3.05129  0.00000 -0.10258
       5     C     3.06162  3.06162  0.00000 -0.12324
       6     C     3.08503  3.08503  0.00000 -0.17005
       7     C     2.71247  2.71247  0.00000  0.57506
       8     H     0.41591  0.41591  0.00000  0.16817
       9     H     0.40511  0.40511  0.00000  0.18978
      10     H     0.40315  0.40315  0.00000  0.19370
      11     H     0.40510  0.40510  0.00000  0.18981
      12     H     0.41646  0.41646  0.00000  0.16707
      13     N     3.87020  3.87020  0.00000 -0.74040
      14     N     3.86874  3.86874  0.00000 -0.73749
      15     H     0.30585  0.30585  0.00000  0.38830
      16     H     0.30040  0.30040  0.00000  0.39921
      17     H     0.30113  0.30113  0.00000  0.39774
      18     H     0.30592  0.30592  0.00000  0.38816

   Total alpha = 32.00000, Total beta = 32.00000, Total charge =  1.00000


    Psi4 stopped on: Saturday, 29 September 2018 08:51PM
    Psi4 wall time for execution: 0:05:50.07

*** Psi4 exiting successfully. Buy a developer a beer!
