
    -----------------------------------------------------------------------
          Psi4: An Open-Source Ab Initio Electronic Structure Package
                               Psi4 1.2.1 release

                         Git: Rev {HEAD} 406f4de 


    R. M. Parrish, L. A. Burns, D. G. A. Smith, A. C. Simmonett,
    A. E. DePrince III, E. G. Hohenstein, U. Bozkaya, A. Yu. Sokolov,
    R. Di Remigio, R. M. Richard, J. F. Gonthier, A. M. James,
    H. R. McAlexander, A. Kumar, M. Saitow, X. Wang, B. P. Pritchard,
    P. Verma, H. F. Schaefer III, K. Patkowski, R. A. King, E. F. Valeev,
    F. A. Evangelista, J. M. Turney, T. D. Crawford, and C. D. Sherrill,
    J. Chem. Theory Comput. 13(7) pp 3185--3197 (2017).
    (doi: 10.1021/acs.jctc.7b00174)


                         Additional Contributions by
    P. Kraus, H. Kruse, M. H. Lechner, M. C. Schieber, and R. A. Shaw

    -----------------------------------------------------------------------


    Psi4 started on: Saturday, 29 September 2018 05:10PM

    Process ID: 13846
    Host:       loro.prib.upf.edu
    PSIDATADIR: /shared/joao/test_parameterize/miniconda3/share/psi4
    Memory:     500.0 MiB
    Threads:    1
    
  ==> Input File <==

--------------------------------------------------------------------------
set_num_threads(1)
set_memory('5348 MB')

set { scf_mem_safety_factor 0.7 }

set { reference rks }
set { basis cc-pVDZ }

molecule MOL {
    0 1
    noreorient
    nocom
    symmetry c1
    O    1.050400   0.042900  -0.048100
    C    2.474100   0.047400  -0.029000
    C    3.002600  -1.068900  -0.932000
    N    4.462700  -1.072400  -1.006800
    H    0.762361   0.855685   0.401818
    H    2.809900  -0.097900   1.003200
    H    2.817400   1.026800  -0.378600
    H    2.581000  -0.963300  -1.938400
    H    2.653800  -2.036400  -0.553400
    H    4.779000  -0.221000  -1.470000
    H    4.758600  -1.842500  -1.606500
}

set optking { frozen_dihedral = (" 3 2 1 5 ") }

energy, wfn = energy('B3LYP-D3', return_wfn=True)

import os
os.chdir(os.environ['HTMD_PSI4_WORKDIR'])

oeprop(wfn, 'DIPOLE', 'QUADRUPOLE', 'MULLIKEN_CHARGES')

with open('psi4out.xyz', 'w') as f:
    f.write('11 ' )
    f.write('%.12f\n' % energy)
    f.write(MOL.save_string_xyz())
--------------------------------------------------------------------------
  Threads set to 1 by Python driver.

  Memory set to   4.981 GiB by Python driver.

*** tstart() called on loro.prib.upf.edu
*** at Sat Sep 29 17:10:23 2018

   => Loading Basis Set <=

    Name: CC-PVDZ
    Role: ORBITAL
    Keyword: BASIS
    atoms 1    entry O          line   198 file /shared/joao/test_parameterize/miniconda3/share/psi4/basis/cc-pvdz.gbs 
    atoms 2-3  entry C          line   138 file /shared/joao/test_parameterize/miniconda3/share/psi4/basis/cc-pvdz.gbs 
    atoms 4    entry N          line   168 file /shared/joao/test_parameterize/miniconda3/share/psi4/basis/cc-pvdz.gbs 
    atoms 5-11 entry H          line    22 file /shared/joao/test_parameterize/miniconda3/share/psi4/basis/cc-pvdz.gbs 


         ---------------------------------------------------------
                                   SCF
            by Justin Turney, Rob Parrish, Andy Simmonett
                             and Daniel Smith
                              RKS Reference
                        1 Threads,   5100 MiB Core
         ---------------------------------------------------------

  ==> Geometry <==

    Molecular point group: c1
    Full point group: C1

    Geometry (in Angstrom), charge = 0, multiplicity = 1:

       Center              X                  Y                   Z               Mass       
    ------------   -----------------  -----------------  -----------------  -----------------
         O            1.050400000000     0.042900000000    -0.048100000000    15.994914619560
         C            2.474100000000     0.047400000000    -0.029000000000    12.000000000000
         C            3.002600000000    -1.068900000000    -0.932000000000    12.000000000000
         N            4.462700000000    -1.072400000000    -1.006800000000    14.003074004780
         H            0.762361000000     0.855685000000     0.401818000000     1.007825032070
         H            2.809900000000    -0.097900000000     1.003200000000     1.007825032070
         H            2.817400000000     1.026800000000    -0.378600000000     1.007825032070
         H            2.581000000000    -0.963300000000    -1.938400000000     1.007825032070
         H            2.653800000000    -2.036400000000    -0.553400000000     1.007825032070
         H            4.779000000000    -0.221000000000    -1.470000000000     1.007825032070
         H            4.758600000000    -1.842500000000    -1.606500000000     1.007825032070

  Running in c1 symmetry.

  Rotational constants: A =      0.72081  B =      0.02763  C =      0.02695 [cm^-1]
  Rotational constants: A =  21609.33002  B =    828.41677  C =    807.90886 [MHz]
  Nuclear repulsion =  130.416550534444781

  Charge       = 0
  Multiplicity = 1
  Electrons    = 34
  Nalpha       = 17
  Nbeta        = 17

  ==> Algorithm <==

  SCF Algorithm Type is DF.
  DIIS enabled.
  MOM disabled.
  Fractional occupation disabled.
  Guess Type is SAD.
  Energy threshold   = 1.00e-06
  Density threshold  = 1.00e-06
  Integral threshold = 0.00e+00

  ==> Primary Basis <==

  Basis Set: CC-PVDZ
    Blend: CC-PVDZ
    Number of shells: 45
    Number of basis function: 91
    Number of Cartesian functions: 95
    Spherical Harmonics?: true
    Max angular momentum: 2

  ==> DFT Potential <==

   => Composite Functional: B3LYP-D3ZERO <= 

    B3LYP-d3zero Hyb-GGA Exchange-Correlation Functional

    P. J. Stephens, F. J. Devlin, C. F. Chabalowski, and M. J. Frisch, J. Phys. Chem. 98, 11623 (1994)

    Deriv               =              1
    GGA                 =           TRUE
    Meta                =          FALSE

    Exchange Hybrid     =           TRUE
    MP2 Hybrid          =          FALSE

   => Exchange Functionals <=

    0.0800   Slater exchange
    0.7200         Becke 88

   => Exact (HF) Exchange <=

    0.2000               HF 

   => Correlation Functionals <=

    0.1900   Vosko, Wilk & Nusair (VWN5_RPA)
    0.8100   Lee, Yang & Parr

   => Molecular Quadrature <=

    Radial Scheme       =       TREUTLER
    Pruning Scheme      =           FLAT
    Nuclear Scheme      =       TREUTLER

    BS radius alpha     =              1
    Pruning alpha       =              1
    Radial Points       =             75
    Spherical Points    =            302
    Total Points        =         245082
    Total Blocks        =           1884
    Max Points          =            256
    Max Functions       =             91

   => -D3ZERO: Empirical Dispersion <=

    Grimme's -D3 (zero-damping) Dispersion Correction
    Grimme S.; Antony J.; Ehrlich S.; Krieg H. (2010), J. Chem. Phys., 132: 154104

        S6 =   1.000000E+00
        S8 =   1.703000E+00
       SR6 =   1.261000E+00
       SR8 =   1.000000E+00
    ALPHA6 =   1.400000E+01

   => Loading Basis Set <=

    Name: (CC-PVDZ AUX)
    Role: JKFIT
    Keyword: DF_BASIS_SCF
    atoms 1    entry O          line   221 file /shared/joao/test_parameterize/miniconda3/share/psi4/basis/cc-pvdz-jkfit.gbs 
    atoms 2-3  entry C          line   121 file /shared/joao/test_parameterize/miniconda3/share/psi4/basis/cc-pvdz-jkfit.gbs 
    atoms 4    entry N          line   171 file /shared/joao/test_parameterize/miniconda3/share/psi4/basis/cc-pvdz-jkfit.gbs 
    atoms 5-11 entry H          line    51 file /shared/joao/test_parameterize/miniconda3/share/psi4/basis/cc-pvdz-jkfit.gbs 

  ==> Pre-Iterations <==

   -------------------------------------------------------
    Irrep   Nso     Nmo     Nalpha   Nbeta   Ndocc  Nsocc
   -------------------------------------------------------
     A         91      91       0       0       0       0
   -------------------------------------------------------
    Total      91      91      17      17      17       0
   -------------------------------------------------------

  ==> Integral Setup <==

  DFHelper Memory: AOs need 0.036 [GiB]; user supplied 3.486 [GiB]. Using in-core AOs.

  ==> MemDFJK: Density-Fitted J/K Matrices <==

    J tasked:                   Yes
    K tasked:                   Yes
    wK tasked:                   No
    OpenMP threads:               1
    Memory (MB):               3570
    Algorithm:                 Core
    Schwarz Cutoff:           1E-12
    Mask sparsity (%):       0.5072
    Fitting Condition:        1E-12

   => Auxiliary Basis Set <=

  Basis Set: (CC-PVDZ AUX)
    Blend: CC-PVDZ-JKFIT
    Number of shells: 159
    Number of basis function: 441
    Number of Cartesian functions: 499
    Spherical Harmonics?: true
    Max angular momentum: 3

  Minimum eigenvalue in the overlap matrix is 4.5062909456E-03.
  Using Symmetric Orthogonalization.

  SCF Guess: Superposition of Atomic Densities via on-the-fly atomic UHF.

  ==> Iterations <==

                           Total Energy        Delta E     RMS |[F,P]|

   @DF-RKS iter   0:  -210.82201628051050   -2.10822e+02   3.66771e-02 
   @DF-RKS iter   1:  -210.21763131887673    6.04385e-01   6.99746e-03 
   @DF-RKS iter   2:  -210.07877250454015    1.38859e-01   9.52725e-03 DIIS
   @DF-RKS iter   3:  -210.39003712082194   -3.11265e-01   5.63592e-04 DIIS
   @DF-RKS iter   4:  -210.39069092012124   -6.53799e-04   3.56339e-04 DIIS
   @DF-RKS iter   5:  -210.39114066047139   -4.49740e-04   4.78104e-05 DIIS
   @DF-RKS iter   6:  -210.39114670001857   -6.03955e-06   2.30016e-05 DIIS
   @DF-RKS iter   7:  -210.39114863413837   -1.93412e-06   2.02087e-06 DIIS
   @DF-RKS iter   8:  -210.39114864875856   -1.46202e-08   6.33032e-07 DIIS

  ==> Post-Iterations <==

    Orbital Energies [Eh]
    ---------------------

    Doubly Occupied:                                                      

       1A    -19.127016     2A    -14.304844     3A    -10.223840  
       4A    -10.201664     5A     -1.009443     6A     -0.876708  
       7A     -0.712092     8A     -0.597065     9A     -0.506467  
      10A     -0.484785    11A     -0.456424    12A     -0.412907  
      13A     -0.389152    14A     -0.364964    15A     -0.322551  
      16A     -0.260642    17A     -0.231052  

    Virtual:                                                              

      18A      0.050977    19A      0.057710    20A      0.101882  
      21A      0.116938    22A      0.126491    23A      0.155232  
      24A      0.169232    25A      0.203543    26A      0.243514  
      27A      0.257046    28A      0.438572    29A      0.452479  
      30A      0.485989    31A      0.496812    32A      0.565123  
      33A      0.580809    34A      0.607828    35A      0.614506  
      36A      0.640129    37A      0.653487    38A      0.658924  
      39A      0.680477    40A      0.699947    41A      0.817855  
      42A      0.834422    43A      0.845073    44A      0.914614  
      45A      0.963269    46A      0.995819    47A      1.017438  
      48A      1.063679    49A      1.181095    50A      1.215016  
      51A      1.225886    52A      1.248832    53A      1.332027  
      54A      1.360665    55A      1.419498    56A      1.482897  
      57A      1.519427    58A      1.602850    59A      1.611295  
      60A      1.639654    61A      1.655786    62A      1.657435  
      63A      1.711770    64A      1.739515    65A      1.758176  
      66A      1.770805    67A      1.813844    68A      1.858022  
      69A      1.912254    70A      1.942902    71A      1.995241  
      72A      2.017318    73A      2.050318    74A      2.143371  
      75A      2.154399    76A      2.245740    77A      2.294775  
      78A      2.370548    79A      2.394783    80A      2.441444  
      81A      2.484585    82A      2.529161    83A      2.611650  
      84A      2.679152    85A      2.823993    86A      2.961095  
      87A      3.011842    88A      3.040173    89A      3.125450  
      90A      3.203266    91A      3.695819  

    Final Occupation by Irrep:
              A 
    DOCC [    17 ]

  Energy converged.

  @DF-RKS Final Energy:  -210.39114864875856

   => Energetics <=

    Nuclear Repulsion Energy =            130.4165505344447809
    One-Electron Energy =                -543.7700555008744914
    Two-Electron Energy =                 226.4537578569261598
    DFT Exchange-Correlation Energy =     -23.4864849392550319
    Empirical Dispersion Energy =          -0.0049166000000000
    VV10 Nonlocal Energy =                  0.0000000000000000
    Total Energy =                       -210.3911486487585591



Properties will be evaluated at   0.000000,   0.000000,   0.000000 [a0]

Properties computed using the SCF density matrix

  Nuclear Dipole Moment: [e a0]
     X:   177.0000      Y:   -31.3151      Z:   -33.5243

  Electronic Dipole Moment: [e a0]
     X:  -176.8181      Y:    31.7768      Z:    33.2781

  Dipole Moment: [e a0]
     X:     0.1819      Y:     0.4618      Z:    -0.2461     Total:     0.5540

  Dipole Moment: [D]
     X:     0.4624      Y:     1.1737      Z:    -0.6256     Total:     1.4081


*** tstop() called on loro.prib.upf.edu at Sat Sep 29 17:10:39 2018
Module time:
	user time   =      14.21 seconds =       0.24 minutes
	system time =       0.22 seconds =       0.00 minutes
	total time  =         16 seconds =       0.27 minutes
Total time:
	user time   =      14.21 seconds =       0.24 minutes
	system time =       0.22 seconds =       0.00 minutes
	total time  =         16 seconds =       0.27 minutes


Properties will be evaluated at   0.000000,   0.000000,   0.000000 [a0]
OEProp: No title given, name of density matrix used for the following properties is 'SCF density'
  Nuclear Dipole Moment: [e a0]
     X:   177.0000      Y:   -31.3151      Z:   -33.5243

  Electronic Dipole Moment: [e a0]
     X:  -176.8181      Y:    31.7768      Z:    33.2781

  Dipole Moment: [e a0]
     X:     0.1819      Y:     0.4618      Z:    -0.2461     Total:     0.5540

  Dipole Moment: [D]
     X:     0.4624      Y:     1.1737      Z:    -0.6256     Total:     1.4081

  Quadrupole Moment: [D A]
    XX:   -25.2392     YY:   -22.8562     ZZ:   -22.9643
    XY:     1.0149     XZ:    -6.2806     YZ:     2.2212

  Traceless Quadrupole Moment: [D A]
    XX:    -1.5526     YY:     0.8303     ZZ:     0.7223
    XY:     1.0149     XZ:    -6.2806     YZ:     2.2212

  Mulliken Charges: (a.u.)
   Center  Symbol    Alpha    Beta     Spin     Total
       1     O     4.13943  4.13943  0.00000 -0.27886
       2     C     2.92954  2.92954  0.00000  0.14092
       3     C     2.98458  2.98458  0.00000  0.03083
       4     N     3.59341  3.59341  0.00000 -0.18682
       5     H     0.42976  0.42976  0.00000  0.14049
       6     H     0.49758  0.49758  0.00000  0.00484
       7     H     0.50508  0.50508  0.00000 -0.01016
       8     H     0.50165  0.50165  0.00000 -0.00331
       9     H     0.48947  0.48947  0.00000  0.02106
      10     H     0.46612  0.46612  0.00000  0.06776
      11     H     0.46338  0.46338  0.00000  0.07324

   Total alpha = 17.00000, Total beta = 17.00000, Total charge =  0.00000


    Psi4 stopped on: Saturday, 29 September 2018 05:10PM
    Psi4 wall time for execution: 0:00:16.47

*** Psi4 exiting successfully. Buy a developer a beer!
